37
 energy: -59.749052536243 gnorm: 0.181834834568 xtb: 6.7.1 (edcfbbe)
N           -0.44376700000000       -0.47181200000000        1.74520500000000
C            0.69351000000000        0.10436000000000        1.02689900000000
C            0.25232500000000        0.99958500000000       -0.14624500000000
C           -0.57382300000000        0.30680200000000       -1.24485700000000
C            0.17276200000000       -0.78812900000000       -1.95771100000000
O            0.40822200000000       -0.68794500000000       -3.15102700000000
O            0.54634400000000       -1.90328400000000       -1.30373900000000
H           -0.08747200000000       -1.00411400000000        2.57127000000000
H           -1.08118400000000        0.28586300000000        2.08138600000000
H            1.28097900000000        0.73286000000000        1.73117400000000
H            1.36804500000000       -0.70373400000000        0.67713900000000
H            1.15866700000000        1.44313000000000       -0.61117500000000
H           -0.35578800000000        1.83434200000000        0.26527400000000
H           -1.51736400000000       -0.10080200000000       -0.82923500000000
H           -0.85273400000000        1.08677100000000       -1.98587200000000
H           -0.96872000000000       -1.13389300000000        1.13151600000000
O            3.15516700000000       -2.04680800000000        3.08032000000000
H            3.25594300000000       -1.10841700000000        3.38011600000000
H            3.87174400000000       -2.53755400000000        3.55602800000000
O            3.46526700000000       -1.28188100000000        0.26935600000000
H            4.36135500000000       -1.66404700000000        0.09162700000000
H            3.64663200000000       -0.44523100000000        0.76708700000000
O            3.91484600000000        1.67022300000000       -3.72029300000000
H            3.57153200000000        0.75319200000000       -3.86794000000000
H            3.14307500000000        2.16727200000000       -3.34891200000000
O            3.18239300000000       -4.14517100000000        1.36998100000000
H            2.45176700000000       -3.94490600000000        2.00770500000000
H            3.76616900000000       -3.34594900000000        1.40257000000000
O            3.45991400000000       -3.30307500000000       -1.90695500000000
H            3.65078000000000       -3.61212200000000       -0.98572200000000
H            2.47251700000000       -3.23993700000000       -1.94788800000000
O            4.20957900000000        0.98064500000000       -1.64029800000000
H            3.28888400000000        1.20478700000000       -1.35273500000000
H            4.66968400000000        0.70607400000000       -0.80751600000000
O            3.36363300000000        1.74066900000000        2.19874100000000
H            4.20500100000000        1.22750600000000        2.10191300000000
H            2.96672000000000        1.40930300000000        3.04329400000000
37
 energy: -59.777277255793 gnorm: 0.089307199971 xtb: 6.7.1 (edcfbbe)
N           -0.44159375627832       -0.47333008186049        1.74741944553622
C            0.70071163759163        0.10730614051910        1.02498797328021
C            0.24978216147240        0.99873486214659       -0.13243632863584
C           -0.56896046221330        0.30222972917877       -1.22890094196128
C            0.16943315864725       -0.80832087640834       -1.96173961030035
O            0.41887166836631       -0.68436879274863       -3.16955720272961
O            0.50872064532824       -1.86427857339634       -1.29751699192644
H           -0.09782641140541       -1.00644103039459        2.56081673668420
H           -1.08000515834541        0.27038145074588        2.07382546162157
H            1.28065840265848        0.73135751203767        1.71528390513840
H            1.34402424725471       -0.70017257210418        0.65310798230250
H            1.14295424851264        1.43210996950719       -0.59743015022149
H           -0.34892756454648        1.83146845505296        0.26107347422314
H           -1.50556697074763       -0.10547019806770       -0.82775722967065
H           -0.84319771221004        1.05517089111407       -1.98286949493932
H           -0.95210607595481       -1.12421583067097        1.13044420627390
O            3.15664888206764       -2.03151968053687        3.11179459643086
H            3.26375701680690       -1.11078133506390        3.39589578306339
H            3.85893326203355       -2.52416579010879        3.56636475701065
O            3.47957240757623       -1.28697934083133        0.30726562873887
H            4.35249475411183       -1.64030893446519        0.06309254201731
H            3.65676658867550       -0.44496749942345        0.76283214255376
O            3.87500340615469        1.70877649613535       -3.84908407491406
H            3.57942804541673        0.77583063963601       -3.87754158668698
H            3.14971378902668        2.17012962800046       -3.38569978795736
O            3.20174483530900       -4.16223969878570        1.37696092359303
H            2.46046800110224       -3.96348029283623        1.97462173785972
H            3.73034045991092       -3.34363263413268        1.38853660663191
O            3.45565115864477       -3.33705273220090       -1.90145647909007
H            3.62184235219995       -3.62744261130121       -0.98716120923401
H            2.49043510318821       -3.19615713673380       -1.93765382929005
O            4.22540943909408        0.98357897876836       -1.57310896960692
H            3.30902680565317        1.17473977531247       -1.31352240885583
H            4.67223078206449        0.69473680288732       -0.76174563867696
O            3.34841900322409        1.69450733689683        2.18211204485896
H            4.21491441113098        1.25324358254429        2.12602492517812
H            2.99283143847779        1.43559639158793        3.05320206170040
37
 energy: -59.787399913270 gnorm: 0.030162791808 xtb: 6.7.1 (edcfbbe)
N           -0.43807889296671       -0.47815140385351        1.74633954787358
C            0.70697032509596        0.10827561911526        1.01585867441427
C            0.24627925299487        1.00031461080803       -0.12838338795208
C           -0.57111836900313        0.30193117317813       -1.22016931317874
C            0.18552707870688       -0.82653934601246       -1.95196769401846
O            0.41749925364129       -0.67439844828638       -3.17317776424305
O            0.46717999725672       -1.84607758193910       -1.29771781910639
H           -0.10161380459879       -1.01274562245569        2.55060143633469
H           -1.07977399840975        0.25558929079775        2.06231822537130
H            1.28917371740803        0.72097512950994        1.69798571251532
H            1.32176438017090       -0.70186771361736        0.62356418905419
H            1.13141653416829        1.42970897515971       -0.59253447738668
H           -0.34975205983451        1.82690711669915        0.25917796239461
H           -1.49542014928727       -0.12071116720592       -0.82471743704006
H           -0.84570758744141        1.03639402645432       -1.98159241727827
H           -0.93270121668293       -1.12028199179725        1.12004639205465
O            3.15426729979945       -2.01497145921481        3.15663999609825
H            3.27108849258160       -1.10393734821574        3.42414383292183
H            3.84610735138596       -2.51676701583508        3.59015347502977
O            3.49803473017323       -1.29334572731134        0.34987963365019
H            4.34986484998250       -1.61198933235805        0.01931611509594
H            3.66591088452640       -0.44454108830087        0.77225119868230
O            3.85519121004171        1.72655187731001       -3.90023029008281
H            3.57730388132942        0.80978407288715       -3.92308882456012
H            3.15144943959111        2.19044005437928       -3.44670989288633
O            3.22386127656960       -4.17632615053557        1.37032876307098
H            2.46519957743048       -4.00792921018637        1.93811270541747
H            3.68279580784373       -3.32221646117669        1.36332031008138
O            3.44804698688249       -3.33759978333839       -1.87676818940323
H            3.57823703669740       -3.67768707409363       -0.98324797881169
H            2.50191955902417       -3.15820447465490       -1.93835803449981
O            4.23063892576840        0.98957255554783       -1.52378798622757
H            3.32041941550572        1.14087936534223       -1.26403400415070
H            4.69611423880921        0.69681467537885       -0.74042142588285
O            3.34437789213391        1.64840909589147        2.17209130384031
H            4.23876240310516        1.27967809749569        2.15548145312401
H            3.02136827959889        1.46863566443417        3.06977700968367
37
 energy: -59.791888531854 gnorm: 0.071558909403 xtb: 6.7.1 (edcfbbe)
N           -0.43471652731538       -0.48725113718944        1.73775408098833
C            0.70948173921090        0.10356163666659        1.00097395009613
C            0.23875316466236        1.00368983188731       -0.13251272121028
C           -0.58186869481883        0.30655702172758       -1.22233229687753
C            0.16636766480793       -0.85256226609257       -1.94839840096921
O            0.43387218930580       -0.66532684109694       -3.16251285591796
O            0.45641393666930       -1.84760302603905       -1.27652670111311
H           -0.09833742258684       -1.02446531528793        2.53946587825315
H           -1.08105769961995        0.24304038246675        2.04925820261090
H            1.30441551147327        0.70368987952743        1.68205357700779
H            1.30900933450978       -0.70952970543952        0.59345109779149
H            1.12257563214971        1.43385927616682       -0.59818848135116
H           -0.35396610309104        1.82853937961806        0.26353988133881
H           -1.50074515054529       -0.12178220932944       -0.82316397722101
H           -0.85337940075949        1.03351919110389       -1.98859912203361
H           -0.91951375479126       -1.12618884061558        1.10130765694752
O            3.13074744291352       -2.00353811067909        3.22341218513478
H            3.29203224988720       -1.08666936998897        3.45619233846334
H            3.83927566552018       -2.51914775993960        3.61501652912273
O            3.51059740753057       -1.32170146072844        0.42283834308823
H            4.34734114082307       -1.57714497288686       -0.04875223235766
H            3.67900396562609       -0.43510885119809        0.77620072513585
O            3.83348622286420        1.76028707503435       -3.99237131407950
H            3.59807669889612        0.81784715000706       -3.92487821317567
H            3.15466731265360        2.21249279451583       -3.47751420932526
O            3.26190061842968       -4.19062615316622        1.36347703560737
H            2.45751314490619       -4.07727474861548        1.89177093789325
H            3.61619601769275       -3.26820611420535        1.32258815952887
O            3.44283515538792       -3.36880011066512       -1.85014163776118
H            3.51555543089735       -3.74639207074841       -0.95972856211254
H            2.51093906007275       -3.08098978626181       -1.93872914427010
O            4.24717706642503        1.04677821085093       -1.49329689520673
H            3.31573769647397        1.08454809580740       -1.22240242071930
H            4.73206132867233        0.70069796493509       -0.73782729673031
O            3.33569792243959        1.58897257260803        2.15560825371175
H            4.28084512485932        1.31642050011474        2.19640152903220
H            3.05361290776571        1.51038088713580        3.09704712067931
37
 energy: -59.793352167885 gnorm: 0.084919394302 xtb: 6.7.1 (edcfbbe)
N           -0.42978366626112       -0.49787215893404        1.72659743853642
C            0.71237095319978        0.09879316102502        0.98215250656811
C            0.22896281636055        1.01074668934766       -0.13740979318101
C           -0.59269542168578        0.31392514541290       -1.22594545257656
C            0.16015183283890       -0.87501998308337       -1.94275095367346
O            0.44842820597928       -0.66012225854521       -3.15137018682702
O            0.43165897301084       -1.86082214084602       -1.24974186240806
H           -0.09177902239886       -1.03738859614002        2.52663000625615
H           -1.08315437381619        0.22850189040160        2.03267504802219
H            1.32533663224418        0.68212575054368        1.66281439871196
H            1.29447148237548       -0.71771879801899        0.55696471960006
H            1.11094697188343        1.44516689308378       -0.60516991192801
H           -0.36154986560306        1.83268990599472        0.27077105080318
H           -1.50508229768647       -0.12403337485579       -0.82164641661914
H           -0.86296431223953        1.02924924403354       -1.99972219419461
H           -0.90185183340786       -1.13467861906658        1.07752630544106
O            3.09448088151894       -1.99440791501686        3.30720881337404
H            3.32035647064918       -1.06756368856752        3.48631224893325
H            3.83170610940087       -2.52506563301424        3.63812514404668
O            3.54281396495086       -1.30576293474143        0.40699141134269
H            4.34331607988580       -1.58128223796345       -0.02893132785150
H            3.67916617669821       -0.43845007219855        0.79432271371344
O            3.80818297115488        1.79756156753342       -4.11173203788773
H            3.61497602755460        0.83683634000993       -3.95845862392117
H            3.16652270240740        2.24311477993986       -3.52003621647913
O            3.26209615874072       -4.17062233742069        1.30806009546670
H            2.46166884585769       -4.14718351887672        1.85818039068463
H            3.56333002074896       -3.23443560711786        1.29500167178582
O            3.42647039112047       -3.36692623078083       -1.80913113501995
H            3.45147285978652       -3.81916178931672       -0.93882409330428
H            2.51353310145996       -3.03931908781244       -1.92740185591376
O            4.25760879032422        1.08757105679953       -1.44696627652031
H            3.31792304638026        1.03156390587475       -1.15792848815793
H            4.77672894273783        0.70681887250174       -0.72172553698977
O            3.40931540843931        1.62467871605055        2.22666461529004
H            4.28917230941830        1.30893054496691        2.20084754698721
H            3.05829566596865        1.50413551879744        3.08752723788942
37
 energy: -59.797455042908 gnorm: 0.063094698750 xtb: 6.7.1 (edcfbbe)
N           -0.42411347766381       -0.50363553411870        1.71705830491910
C            0.71481596046692        0.09566575221247        0.97199695863641
C            0.22547675398722        1.01520174669523       -0.14158505267393
C           -0.59506234529970        0.31508300582146       -1.22828298222160
C            0.18961805293246       -0.86176639991117       -1.93464731282290
O            0.44053098181381       -0.67767942312750       -3.14612249109670
O            0.40429034482778       -1.88491263906267       -1.24040694358032
H           -0.08218401139422       -1.04223831099517        2.51958200438817
H           -1.08148223324338        0.22228130734579        2.02398716858153
H            1.33791569570033        0.67188625854670        1.65490136307479
H            1.29605907399277       -0.72062738981167        0.54187716183321
H            1.10467664456352        1.45862437271413       -0.61308750609239
H           -0.36840211451959        1.83389687519137        0.27503130073971
H           -1.50845064992756       -0.12561324617941       -0.82130749788525
H           -0.86869149752072        1.02459840874743       -2.00743575343234
H           -0.89362773576188       -1.14370496645661        1.06596483377554
O            3.08130731365669       -1.99158059446525        3.33541908141813
H            3.32403064183488       -1.06632051349575        3.50583871249050
H            3.82157619393183       -2.52904257738557        3.65244954864552
O            3.55812045066958       -1.30945594103528        0.42006076816378
H            4.33653545744392       -1.57998324651455       -0.03431915670611
H            3.68631768545434       -0.43649888390793        0.80036478169734
O            3.81394277001441        1.79509919027092       -4.10827143126808
H            3.59406523176102        0.87752048408030       -4.05420823250066
H            3.17328019931978        2.27029178086487       -3.57125013092315
O            3.22813033717500       -4.13190033410221        1.24766169017407
H            2.47475235722730       -4.16314046760501        1.85645843055784
H            3.55484739809041       -3.23949519319416        1.28732994766517
O            3.40454651149207       -3.34559180442104       -1.78528522385530
H            3.43811015076080       -3.82218256387670       -0.93248006221008
H            2.50286262313903       -3.07502050402364       -1.89563132708852
O            4.24283907406147        1.03723638262572       -1.41701912843666
H            3.34158352618288        1.05319350097457       -1.10914139496508
H            4.79739604000814        0.71603812084983       -0.69500353463162
O            3.38538086676981        1.54706526763386        2.18989352722130
H            4.33841155823267        1.34736545274268        2.24321406674382
H            3.08319816981661        1.55391562637238        3.11687651166421
37
 energy: -59.792914038858 gnorm: 0.106269149611 xtb: 6.7.1 (edcfbbe)
N           -0.41548426130191       -0.51052604525387        1.70429025513703
C            0.71967805099898        0.09205353803111        0.96233184901739
C            0.22526572689791        1.01453882932677       -0.14631346956846
C           -0.60004301932970        0.30951219209250       -1.22564012041419
C            0.18937720239053       -0.85165714028747       -1.93386419396096
O            0.43496379271986       -0.68950199231563       -3.14142561242954
O            0.40128588260733       -1.88261626265814       -1.24885621447021
H           -0.06982062533660       -1.04585353018484        2.50803521418125
H           -1.07478939853359        0.21312669970193        2.01483212663876
H            1.34405233083371        0.66560735616884        1.64637121296994
H            1.30562164219574       -0.71980924112988        0.52951074232453
H            1.09733668021708        1.46803820543686       -0.62266938640439
H           -0.37193527636034        1.82822576989137        0.27621891190877
H           -1.51872096903611       -0.12025563707146       -0.81850740594672
H           -0.87295468268441        1.01831644328435       -2.00787089781616
H           -0.88566943596376       -1.15500033631335        1.05775787478107
O            3.09182088735926       -1.99149477257270        3.33867577344997
H            3.31215683274026       -1.07931683349046        3.52769777644386
H            3.81389345237673       -2.52711847350216        3.67185727453348
O            3.54940692527246       -1.37076954733644        0.55596912677041
H            4.32610605529115       -1.53318014817955       -0.15576643170230
H            3.71320104783579       -0.42341324460795        0.80024240776621
O            3.81658908537072        1.80393282649287       -4.10827951918505
H            3.59987929945936        0.89208533276445       -4.06688037407126
H            3.17595335079337        2.28546462620104       -3.60032856683926
O            3.25190910745756       -4.13966975050012        1.24954060714756
H            2.47813262640178       -4.19451734291701        1.82840579348153
H            3.49300746681609       -3.18643782122796        1.24123829493941
O            3.38302893229493       -3.40315263510853       -1.77603452346092
H            3.40620313401189       -3.80412670081097       -0.90692592435084
H            2.48714292615214       -3.04906629879284       -1.86655785381623
O            4.24437376418759        1.05358392446421       -1.40245618422274
H            3.34792000016044        1.03175142050128       -1.07302334171101
H            4.81954596799869        0.72877056298638       -0.69997569810990
O            3.42218313652558        1.56735445850040        2.21940717925212
H            4.34708921502091        1.33811738337573        2.24381594018405
H            3.08489714615430        1.55157718504097        3.11565835755189
37
 energy: -59.799727855237 gnorm: 0.078984066711 xtb: 6.7.1 (edcfbbe)
N           -0.41041226990276       -0.51466929101426        1.69774925800404
C            0.72285750325450        0.09064724867869        0.95820279716666
C            0.22553631574914        1.01194605976935       -0.14823664449860
C           -0.60442230412115        0.30401329620834       -1.22260112338895
C            0.14939032742187       -0.86684903696333       -1.94028286576750
O            0.44788001915207       -0.68626424055577       -3.13524453692782
O            0.42233365200765       -1.86436859569070       -1.25400892179610
H           -0.06377872459350       -1.04783457329830        2.50099845269781
H           -1.07058628097477        0.20628158168094        2.00982945093951
H            1.34572346251904        0.66278590090060        1.64218484510203
H            1.30981493997205       -0.71843647735584        0.52272841843730
H            1.09252772743163        1.46978783204874       -0.62666650231272
H           -0.37204177214847        1.82285148732835        0.27669763773506
H           -1.52618378559342       -0.11354561016147       -0.81549872445321
H           -0.87310897800768        1.01490901084061       -2.00524167432374
H           -0.88016780401626       -1.16111666526049        1.05425836346371
O            3.09059204368911       -1.99201612563953        3.34550623835082
H            3.30971919496045       -1.08493327616385        3.53462291734039
H            3.80805669870157       -2.52705377060417        3.67810558557516
O            3.55976803515642       -1.31218594312746        0.45968722241328
H            4.32200468858943       -1.57386978609752       -0.07672282202353
H            3.70991179676712       -0.44434106976335        0.83407987629412
O            3.80951153322085        1.82426527452294       -4.15499831374294
H            3.61913684146122        0.87623213779500       -4.03025136948213
H            3.18029835501523        2.28925503873023       -3.59897156094756
O            3.27089716317674       -4.15401143138766        1.26089911425083
H            2.47694286163140       -4.20532407275658        1.80762265157857
H            3.45666384202848       -3.15471884449722        1.21466537053419
O            3.37928808967625       -3.43113231979009       -1.76486852694004
H            3.38313191817781       -3.81052974323288       -0.88678155937666
H            2.48126197263920       -3.01874241223504       -1.86024517466478
O            4.25169442238753        1.09092988596454       -1.40499987827114
H            3.33922432963653        1.00088074807543       -1.06071449312969
H            4.83199590304892        0.74156596142198       -0.71675590270663
O            3.40232166854674        1.52219232730791        2.19376718014834
H            4.37207205782915        1.36114273030731        2.26915220058029
H            3.10274855550534        1.57682976401425        3.13281401414053
37
 energy: -59.796293388552 gnorm: 0.106243183614 xtb: 6.7.1 (edcfbbe)
N           -0.40480283894854       -0.52119359486122        1.69587305835927
C            0.72712260259759        0.08971216463430        0.95392105965196
C            0.22154547470632        1.01057969308251       -0.14902317347702
C           -0.60612932514030        0.30506121390275       -1.22700246338079
C            0.13963368711544       -0.88438099099655       -1.94053599966508
O            0.46214567221772       -0.68129550346782       -3.13461170542271
O            0.41779709825154       -1.87163905414079       -1.24003079353012
H           -0.05809986506946       -1.05390964479160        2.49837268047842
H           -1.06929765034714        0.19636401848622        2.00407088123128
H            1.35125368206537        0.65971946826469        1.63768221565643
H            1.30932603172780       -0.71884655486220        0.51213629480778
H            1.08714505299498        1.46825013476373       -0.62811839227987
H           -0.37603543574876        1.81961733387617        0.27841266941518
H           -1.52261416064026       -0.11885405482894       -0.81592846196471
H           -0.87659433346631        1.01303415871961       -2.00925975995081
H           -0.86791999927171       -1.16773182754917        1.04779459413949
O            3.04326676180269       -1.99685309127481        3.39507357735936
H            3.32933348878293       -1.07168220843209        3.52918805154997
H            3.79813839005387       -2.54089947477168        3.67166022338742
O            3.56894072051702       -1.30925659243719        0.44940294433114
H            4.31252892602205       -1.57746791130897       -0.04702905420109
H            3.70378075083589       -0.44210642301147        0.83062096607197
O            3.80211478759739        1.83841484714877       -4.21876152070169
H            3.61368727596642        0.88511838277914       -4.05970176844119
H            3.19747181616534        2.30248082695140       -3.59603130825314
O            3.18391441856243       -4.08164996945830        1.16153619437021
H            2.48242627315792       -4.16491580704469        1.81810178410400
H            3.52334342809122       -3.22876736645718        1.26163902238053
O            3.37465353718486       -3.31620259278780       -1.71691381753834
H            3.37304913068696       -3.85684407805747       -0.88061796261056
H            2.48176547030570       -3.09389626076075       -1.86292040142745
O            4.23914997964364        1.05614784439487       -1.39669877887875
H            3.35108236802329        1.02567792014984       -1.04479670174714
H            4.83754088754003        0.75278705726384       -0.70448034973789
O            3.43453868528942        1.53585510102134        2.22583173540028
H            4.37431665730023        1.36032844164763        2.26643392141592
H            3.11308455342141        1.56381739421365        3.12519153909686
37
 energy: -59.803922525192 gnorm: 0.033016144345 xtb: 6.7.1 (edcfbbe)
N           -0.39663383351630       -0.52654950859103        1.68864005415629
C            0.73125642054110        0.08835994516895        0.94747290425105
C            0.22057671993384        1.01122032400360       -0.15263759405254
C           -0.60761683039963        0.30545468623242       -1.22968128730476
C            0.17182175771125       -0.86023522402571       -1.93367600509124
O            0.44651551356330       -0.69294732319940       -3.13677608366973
O            0.38803871880259       -1.88696389399150       -1.24538145817468
H           -0.04608973512947       -1.05802686548057        2.49174642824094
H           -1.06320095503041        0.18930280184987        1.99988314533828
H            1.35587517431114        0.65882947146389        1.63230593984659
H            1.31837280113100       -0.71670973810171        0.50365375902780
H            1.08341440773691        1.47316684067270       -0.63480243768925
H           -0.38003104585974        1.81719055054585        0.27804889082110
H           -1.52546403832165       -0.11942762116475       -0.81746601036669
H           -0.88136116075035        1.01368245424739       -2.01208640740940
H           -0.86017401399828       -1.17597603587994        1.04260220941020
O            3.05165346323040       -1.99741341331989        3.39295065246571
H            3.32183135882317       -1.07915475035186        3.54024290691581
H            3.79367474347361       -2.54208832414408        3.68323572616155
O            3.56494134903606       -1.31824371785021        0.48445275570641
H            4.30295684035935       -1.57630676031376       -0.07240971573074
H            3.72118886396459       -0.43776587855682        0.84034082212452
O            3.81224407813366        1.83400349631803       -4.18800200933633
H            3.60853228048943        0.90868809718940       -4.09534265934313
H            3.19713576033934        2.31208981790544       -3.62524229599786
O            3.21206327305408       -4.08998047626924        1.16042019519071
H            2.47272939751254       -4.21017128862510        1.78168734558444
H            3.47944123823436       -3.17363865206166        1.25541258485828
O            3.36500646552734       -3.38175615137693       -1.71354093514177
H            3.33953845072955       -3.82735168307207       -0.84801916338038
H            2.47205606643473       -3.05519428269892       -1.86201897816366
O            4.24616813549706        1.07947260867689       -1.38006522182390
H            3.35222055552131        0.99679813189345       -1.01673664672051
H            4.85623699355985        0.75787785276665       -0.70286075198211
O            3.43813588748400        1.52093979751054        2.22412353971602
H            4.38714982519237        1.36734724128890        2.27705670187386
H            3.12239907267222        1.57605047134090        3.13295009968791
37
 energy: -59.802994308789 gnorm: 0.083205049697 xtb: 6.7.1 (edcfbbe)
N           -0.38179101723378       -0.54167348332854        1.67381219730082
C            0.73897045805306        0.08334048803070        0.93230557453326
C            0.21811021808450        1.00914933110940       -0.16025361534671
C           -0.61874827664509        0.30004721943373       -1.22937791766940