37
 energy: -59.874501151477 gnorm: 0.001373029369 xtb: 6.7.1 (edcfbbe)
N           -1.16974893141114        0.68264651167281        0.16953661164325
C           -0.96023490089284       -0.02039735937414       -1.10935438168057
C           -0.17529201509208        0.82960479201230       -2.10062195028762
C            0.03245027963907        0.07431741484659       -3.41642496698761
C            1.01416447364512       -1.09446779091585       -3.22161313071024
O            2.23440409086844       -0.81773162557042       -3.18689614547750
O            0.54625261899403       -2.25080142302735       -3.09289700620916
H           -0.27737670461693        0.87634398747979        0.62417260063483
H           -1.66824703526854        1.59490880703480        0.01165229202141
H           -1.93393032977061       -0.26452211420293       -1.53337663087527
H           -0.42808551147902       -0.95654539095061       -0.93215800087160
H            0.80896445167018        1.07829037007127       -1.69786392441913
H           -0.71642748846604        1.75361316941487       -2.30706594779771
H           -0.91435503191723       -0.31937053376771       -3.78727949847725
H            0.47200576447563        0.73829632640041       -4.16200596520774
H           -1.75416567188579        0.07422132931174        0.79586194411555
O           -2.78085620322804       -1.07024313584565        1.48475606912184
H           -3.55067650926575       -0.80770017945108        1.99804428140737
H           -3.11598109840460       -1.49824743870945        0.67635403549385
O            4.05483767052602       -2.51892444004754       -2.03536600863802
H            3.85362710157028       -3.36924868261715       -2.43858025905805
H            3.43046735974550       -1.88241415468120       -2.44501652422910
O           -1.98957971301488        3.71075207664657       -2.93570481693298
H           -1.39940958220702        4.41082745714327       -3.22825106350377
H           -2.65714402957026        3.59597456795454       -3.61927973556895
O           -2.44680450569343        3.06192108255129       -0.25156933535740
H           -2.26626068601055        3.35465783812427       -1.15999328139733
H           -3.39967661824387        3.10330599984935       -0.12908394039039
O            3.17786249604926        4.96427098182179       -3.55404989119880
H            3.59414089207310        4.16019725441460       -3.87748211497997
H            3.21614315295588        4.93080138499494       -2.59299988072045
O           -3.72997830188586       -1.92993655175677       -0.97342174212214
H           -4.61815058509448       -2.10107737513549       -1.29700427055673
H           -3.11930662951678       -2.28399090836010       -1.64403600183904
O           -2.08374051992258       -2.84475119584973       -3.00756994188345
H           -2.12775709366282       -3.75374598380981       -3.31766368637435
H           -1.12771665541383       -2.61307806803071       -3.01236679062523
