34
 energy: -56.564207558103 gnorm: 0.192501675680 xtb: 6.7.1 (edcfbbe)
H            1.51131700000000       -0.30682800000000       -0.55501400000000
C            0.42356400000000       -0.53272100000000       -0.60971700000000
H            0.15351800000000        0.48284000000000       -2.37712700000000
H            0.30622500000000       -1.51992900000000       -1.10801900000000
N           -0.26687200000000        0.47309100000000       -1.42055200000000
H            0.31243500000000       -1.51306200000000        1.31258500000000
C           -0.16516600000000       -0.64664900000000        0.80679900000000
O            0.75046400000000        1.63132300000000        1.24106600000000
C            0.05694300000000        0.56251400000000        1.67849900000000
H           -0.17036900000000        1.42768900000000       -1.01141000000000
O           -0.37805100000000        0.56237000000000        2.81853100000000
H           -1.27994500000000        0.22829700000000       -1.50380900000000
H           -1.25406300000000       -0.84893600000000        0.72816900000000
O           -2.17780900000000       -2.17531500000000        3.51152400000000
H           -1.25704200000000       -2.53761200000000        3.55075200000000
H           -2.15110700000000       -1.50854900000000        2.77986700000000
O            0.83222100000000       -1.99601900000000       -3.89886100000000
H            0.75548300000000       -2.93166000000000       -4.21397700000000
H            1.41070100000000       -1.55466100000000       -4.57055700000000
O            2.78119100000000       -1.99721700000000       -2.69279300000000
H            2.12744200000000       -2.56896600000000       -2.21705600000000
H            2.39668000000000       -1.08604300000000       -2.64253900000000
O           -0.51526200000000       -1.81740000000000       -5.61759800000000
H           -0.09227900000000       -1.06290800000000       -6.09971700000000
H           -0.54221700000000       -2.55194000000000       -6.28117700000000
O            0.16457500000000        1.76391500000000       -4.70439800000000
H            0.40514400000000        1.66782900000000       -5.66017300000000
H            0.78991600000000        2.44961300000000       -4.35888400000000
O           -1.49814900000000       -3.40743400000000        1.54364500000000
H           -2.28278900000000       -2.96480300000000        1.13251400000000
H           -1.06824000000000       -3.89454700000000        0.79630800000000
O           -1.76756100000000       -0.50441700000000       -4.36699000000000
H           -0.85665300000000       -0.13738400000000       -4.23992800000000
H           -1.82389900000000       -1.25623500000000       -3.72495600000000
34
 energy: -56.609310752540 gnorm: 0.098169220372 xtb: 6.7.1 (edcfbbe)
H            1.49546291122909       -0.30180208949811       -0.54750339664003
C            0.42720824923544       -0.54399223061702       -0.61867369077735
H            0.13966672727783        0.49541903883577       -2.37776207795435
H            0.31072385995285       -1.51537762115945       -1.11447328435798
N           -0.26371641767742        0.47233252975784       -1.42692308328687
H            0.30042117384791       -1.49497350115430        1.30878490437892
C           -0.15444322559746       -0.64012485922117        0.79077799503517
O            0.71894772912911        1.59061171759550        1.20430786737567
C            0.07371108632762        0.57285799153084        1.68270587111627
H           -0.16253642807677        1.40849602722715       -0.99760391483191
O           -0.38836147917751        0.56725344191149        2.83085727590419
H           -1.26789265843926        0.24367586859826       -1.50630017896116
H           -1.23453161797841       -0.83360842314088        0.73865555714134
O           -2.18163433355052       -2.14742473585424        3.54401722907367
H           -1.28732747134428       -2.53002864449995        3.56460520782351
H           -2.14520553869879       -1.49571949870859        2.82407100383137
O            0.83288126679548       -2.00534067436545       -3.86658997384966
H            0.75221278045672       -2.91632764309037       -4.18725341504846
H            1.39852334627068       -1.57265336711780       -4.52890161909509
O            2.87284277735539       -1.98360738795956       -2.58545429545887
H            2.16872402451174       -2.56216601698441       -2.22330011633939
H            2.43427405956806       -1.10852325991894       -2.63567224538526
O           -0.56428046554902       -1.84407492693157       -5.74731799137786
H           -0.11422586254348       -1.08781860490896       -6.15932579065472
H           -0.54227503787336       -2.57299532224432       -6.37847486172401
O            0.20371186663732        1.74097661935056       -4.69226988386084
H            0.39053406197864        1.68493715590320       -5.64522193106595
H            0.77938354414487        2.45539412805185       -4.36818945191970
O           -1.47976630553965       -3.41853035334624        1.49768480529315
H           -2.27650588454709       -3.00138303070254        1.12635805066037
H           -1.07560907897698       -3.91549968144228        0.76961480792841
O           -1.82836774559713       -0.42042575285073       -4.26155788462753
H           -0.88536556400807       -0.13644530267731       -4.24745914986449
H           -1.81683834954360       -1.25486559036818       -3.74120533848052
34
 energy: -56.627293748324 gnorm: 0.035022766128 xtb: 6.7.1 (edcfbbe)
H            1.48482745856550       -0.29215748040839       -0.54149601906098
C            0.43092262373029       -0.55129384167482       -0.62482364424819
H            0.12723621138309        0.51684942731935       -2.38150713707426
H            0.31806863163987       -1.51038967518254       -1.12227778726942
N           -0.25998067889147        0.47547111774930       -1.43294564256157
H            0.28985030683205       -1.48095002411866        1.30868593632723
C           -0.15563000436623       -0.64134745242656        0.77406850575553
O            0.70941541159400        1.55037028305440        1.16814460656023
C            0.05846309923031        0.60689542872372        1.65673831398079
H           -0.14917574134822        1.39001940921130       -0.97251470422704
O           -0.38256424313709        0.55990484814699        2.82507614245176
H           -1.25945856139847        0.26396981277563       -1.51036366171311
H           -1.22946792558136       -0.82452973237500        0.74219179163335
O           -2.19613179580458       -2.13205245412368        3.57113441669967
H           -1.32145369638918       -2.52904930791315        3.59071107076437
H           -2.13499665021413       -1.45467221259875        2.89258833771115
O            0.80674013750404       -2.00305480613491       -3.84532486492584
H            0.71985233194759       -2.90081110250433       -4.16137376134497
H            1.37781923191426       -1.58253022435322       -4.49215305406203
O            2.93886383156266       -1.97949812813579       -2.52908318018046
H            2.24077591008472       -2.55673498888494       -2.19861072862341
H            2.50262939507842       -1.12381706305582       -2.59734974195841
O           -0.57935226031570       -1.86855894206567       -5.84316464714791
H           -0.15167673946458       -1.10299685595693       -6.22474475065203
H           -0.55860963550735       -2.58700253807535       -6.46259424762797
O            0.25547249256347        1.70601822150236       -4.67028440531579
H            0.37013634104386        1.70570394604760       -5.63023174732422
H            0.76715710330986        2.46750608978345       -4.36712142189910
O           -1.45308908937226       -3.42823788486708        1.44529948642623
H           -2.27739417303465       -3.05211476966549        1.11752356255523
H           -1.08138386790390       -3.95328814598176        0.73519112899380
O           -1.84265399124415       -0.40150714013266       -4.21481328369278
H           -0.92038142565811       -0.11611169743800       -4.23710506548635
H           -1.81448403835263       -1.24175611624046       -3.74246280346318
34
 energy: -56.637733454643 gnorm: 0.057891338787 xtb: 6.7.1 (edcfbbe)
H            1.47981871863552       -0.28867679157790       -0.53994759398365
C            0.43006105599227       -0.55890779754121       -0.63094543678394
H            0.12161860805773        0.54137088786623       -2.38455287020096
H            0.32185790501603       -1.51096367522897       -1.14067972144613
N           -0.25615724773982        0.48242208124703       -1.43344735824785
H            0.28051837151683       -1.49025095728511        1.30368507183608
C           -0.15886659216795       -0.65391423132253        0.76477797866507
O            0.65187686823628        1.57515858276776        1.09307345844921
C            0.10786325205783        0.60727721148466        1.64721581026047
H           -0.12970062399328        1.37890651879835       -0.94195060795696
O           -0.39428539584463        0.57423642139902        2.79537082517921
H           -1.25811588792065        0.28619207317394       -1.51051559221152
H           -1.23581560016424       -0.81411911275367        0.74535203519905
O           -2.22111543213808       -2.12177350228427        3.59181042946071
H           -1.36021761379725       -2.54723308896245        3.61910839968938
H           -2.11285101749243       -1.38158927104977        2.97556936792598
O            0.78779605345358       -1.99531709356958       -3.80267309226704
H            0.67028423993164       -2.88860035429051       -4.12527760928009
H            1.36040381287881       -1.57993709382397       -4.44913424150162
O            3.02299680126556       -1.97160821814278       -2.44494412994406
H            2.30028115764727       -2.56816422467360       -2.18910364810450
H            2.56147188971295       -1.13043913805992       -2.58299982769260
O           -0.60498943504099       -1.88335005491138       -5.91942906836756
H           -0.19253141009156       -1.10515653064882       -6.28760502516957
H           -0.57930402467756       -2.59574910722168       -6.55165776681228
O            0.31317090666079        1.66439984746446       -4.63942892720118
H            0.34721554082442        1.71925689522773       -5.61277775508946
H            0.75988614135708        2.48119673822917       -4.35640289390657
O           -1.40824160675306       -3.42056718073621        1.39156772528507
H           -2.29114878644907       -3.11642127769294        1.11536479139145
H           -1.09826234165180       -4.01555214693043        0.69451635416283
O           -1.87011766382621       -0.35915252293011       -4.13468996449103
H           -0.93034637016471       -0.11039632686074       -4.26459738270463
H           -1.78470827333147       -1.27433155915963       -3.76964473414079
34
 energy: -56.645711516652 gnorm: 0.050310465868 xtb: 6.7.1 (edcfbbe)
H            1.47563742334546       -0.28678941366953       -0.54220921873297
C            0.42689941591447       -0.56683438560669       -0.64250290765072
H            0.12036279640696        0.56808061478009       -2.38800083619132
H            0.32828485217693       -1.51468890626084       -1.16709850579649
N           -0.25246882065321        0.49066106381905       -1.43399525268216
H            0.27556644244036       -1.48628769700532        1.30324361735667
C           -0.16878794694546       -0.66070079281684        0.75135626400507
O            0.62224166517399        1.59694540663928        1.02111528159431
C            0.08343679752244        0.63723564527410        1.60848177803544
H           -0.10795769700582        1.36941582689854       -0.90896825494910
O           -0.36452922952416        0.57923837767605        2.77568083816270
H           -1.25881205480495        0.30804002642022       -1.51295059699025
H           -1.24479426235450       -0.81788493286544        0.73563742382646
O           -2.24553176933235       -2.10043040192879        3.61486936347884
H           -1.40209333799866       -2.57276457755025        3.64391406931518
H           -2.07975588636285       -1.30089799730380        3.06327057777693
O            0.77224207149752       -1.98877818787112       -3.74511469435290
H            0.60937992928374       -2.87551971100021       -4.08777309757249
H            1.33885602228632       -1.57189940215557       -4.40004546640797
O            3.10633917428569       -1.97453191828104       -2.37167570241561
H            2.37718374195755       -2.58677046679741       -2.16365800902366
H            2.63906685821350       -1.14094500844469       -2.55840609155267
O           -0.60496349543606       -1.92899678950957       -6.00899981349753
H           -0.22954777343362       -1.11757859602128       -6.36321154838630
H           -0.58449492121135       -2.61574201229243       -6.68080556831594
O            0.30084398235361        1.69081553496956       -4.63271189985853
H            0.35242094251585        1.69458545163007       -5.57628709287015
H            0.76464627174957        2.45838993988992       -4.32545982312147
O           -1.39080690888692       -3.45713266932649        1.34946974409870
H           -2.27824081100311       -3.15951734487406        1.10790117375737
H           -1.10697017501772       -4.07280849950370        0.65794654584498
O           -1.87468361437495       -0.35680001659325       -4.10267074900241
H           -0.96518230145888       -0.07198314252317       -4.25240025321931
H           -1.80344138131949       -1.23887901779531       -3.74293429466166
34
 energy: -56.647541851547 gnorm: 0.087261427039 xtb: 6.7.1 (edcfbbe)
H            1.47222087323094       -0.29359745921609       -0.55119112871673
C            0.42146304409841       -0.57449804264535       -0.65798735056060
H            0.11941793904395        0.59277335335487       -2.38718163017982
H            0.33110819883778       -1.51979519249949       -1.19581343750081
N           -0.25183813636997        0.49897991587234       -1.43156519858176
H            0.27107549921547       -1.47840610008469        1.30194025968027
C           -0.18020164736700       -0.66350729570216        0.73515385235904
O            0.59584998613414        1.61344919840685        0.97095379821427
C            0.01444482768175        0.67227368581896        1.56054741157617
H           -0.08789245566737        1.36110232872412       -0.87456257462041
O           -0.32689892143716        0.57705095121271        2.76182587637147
H           -1.26269057581227        0.32715170931116       -1.51239316888934
H           -1.25349852171557       -0.82947685772729        0.71488948166254
O           -2.25594164388335       -2.05229052231934        3.65346879426675
H           -1.43542907883818       -2.58320186468213        3.65389236386966
H           -2.06825974151925       -1.27141844687852        3.11236410094758
O            0.75504069065514       -1.97816717457483       -3.68634176334181
H            0.54203640110387       -2.85428029228299       -4.05402073985310
H            1.30768910735444       -1.55772923661081       -4.35814972120070
O            3.16030224742909       -1.97789925469458       -2.35293136571446
H            2.47543453834613       -2.59240809853782       -2.11653630627240
H            2.73430366927762       -1.14092328190704       -2.51317248989175
O           -0.60259599133804       -1.96472453568233       -6.07328244362484
H           -0.27674509333506       -1.12699347974286       -6.43634070710140
H           -0.61022057692615       -2.62004850778437       -6.78882563944116
O            0.42419212257627        1.58111551036646       -4.57310384500335
H            0.30244099981930        1.73443355862645       -5.56666724280181
H            0.74154955626077        2.49591208911563       -4.30728020591295
O           -1.38862549338360       -3.50740437152047        1.31478681877786
H           -2.26585098410523       -3.20073972804157        1.10403398631136
H           -1.11446627822359       -4.11793434062196        0.62676449283677
O           -1.88310077510909       -0.32964995973998       -4.03792736617964
H           -0.98554143859339       -0.03838886518637       -4.24918934740123
H           -1.78842634744125       -1.25251339212637       -3.76115056408227
34
 energy: -56.651745211685 gnorm: 0.080566178445 xtb: 6.7.1 (edcfbbe)
H            1.47391276166946       -0.30494447053935       -0.56249293614188
C            0.42262478931442       -0.57496223716009       -0.67067873364234
H            0.12579428403680        0.60763807260492       -2.38609467364857
H            0.32862826555079       -1.51631097107460       -1.21082229933711
N           -0.24622830444963        0.50720520549488       -1.43324236720930
H            0.26592216054317       -1.47418894568422        1.29132701256786
C           -0.17921410052720       -0.66019556433060        0.72064721935789
O            0.54401547766655        1.63015959295715        0.94571727304225
C            0.02112072866934        0.66677037877385        1.55064741360940
H           -0.07287200895632        1.35956178244605       -0.86143671152981
O           -0.33749461720842        0.59193128581534        2.74087867301401
H           -1.25674932793704        0.34123717388920       -1.51535598897412
H           -1.25291095167656       -0.82687956593763        0.69861898379376
O           -2.25692201503852       -2.02955329411626        3.66775949477965
H           -1.44660857151407       -2.56240275567020        3.66202661768563
H           -2.06342419005491       -1.26576653552588        3.13534217824358
O            0.74777568846722       -1.97525082638311       -3.65325624888326
H            0.51247209426035       -2.83641810170940       -4.03538000328340
H            1.28659313067419       -1.55140307224300       -4.33212453039940
O            3.19155245611935       -1.98704759616515       -2.33006853174907
H            2.51262169068353       -2.60707997775204       -2.10414122402308
H            2.77617287266138       -1.15212203909948       -2.49108287752422
O           -0.58672249631734       -1.97512595753305       -6.09443154391428
H           -0.29795332811204       -1.13685764273756       -6.47666262108437
H           -0.62891277800920       -2.61243944746927       -6.82112066119836
O            0.34680254723705        1.65835668537181       -4.58771845663255
H            0.33364756275353        1.68545833517822       -5.53237902999794
H            0.76291809605356        2.44765696742233       -4.27010857829794
O           -1.36477685200112       -3.50943814120662        1.29121084114292
H           -2.27688659300962       -3.24088809610190        1.11716854107739
H           -1.12781457309774       -4.14765738118187        0.60818296703130
O           -1.89100097566344       -0.30024181306111       -3.98216940056682
H           -0.98462171472090       -0.02863888015959       -4.25861458748198
H           -1.75111520806713       -1.29191616711189       -3.79513820982402
34
 energy: -56.643358788335 gnorm: 0.142300333703 xtb: 6.7.1 (edcfbbe)
H            1.47597826383282       -0.32222334498264       -0.57443562666808
C            0.42346091395646       -0.57249325223142       -0.67993895441559
H            0.13527364676856        0.61436181362460       -2.38210970574940
H            0.31734202990916       -1.50953020836404       -1.21640756580011
N           -0.24087005063453        0.51294313423639       -1.43537457221403
H            0.25803423001292       -1.47655848676649        1.27551090592629
C           -0.17484244789274       -0.65710748040732        0.70992426870629
O            0.46122790458110        1.65418111726796        0.92564344099730
C            0.10005489159259        0.61709957410997        1.57281654573196
H           -0.06783828824208        1.36045552583474       -0.86053792461714
O           -0.37859098778338        0.62304741828220        2.71369207763773
H           -1.24750224349951        0.34704750374232       -1.52050578610088
H           -1.25273548905335       -0.82175931423511        0.68661174118170
O           -2.27488691807400       -2.06506148193953        3.63456690959011
H           -1.46131309025413       -2.54644025932188        3.67916161628990
H           -2.02754223539395       -1.21949741611940        3.18452632459184
O            0.75372471519254       -1.97627637728225       -3.63164102957580
H            0.50982236430374       -2.81797106199953       -4.02018959225571
H            1.27205614731419       -1.54736495165409       -4.31613240833754
O            3.25096360586929       -1.97630319850399       -2.24791296517898
H            2.48988775499891       -2.62769737802176       -2.14866687591430
H            2.76082930499437       -1.15601048946456       -2.52599820516367
O           -0.53238862997860       -2.00686871125691       -6.11158016126343
H           -0.30677828088822       -1.16246057742735       -6.51628955789448
H           -0.63076511326944       -2.62007562666647       -6.84185091182857
O            0.33826492692147        1.65883682826031       -4.57718448428342
H            0.33680757374651        1.67989660315002       -5.51586563462084
H            0.76049904198699        2.43565322762515       -4.24869981795701
O           -1.33963092671177       -3.50652372423481        1.27644345445672
H           -2.28527017173671       -3.27047746382611        1.12609112368946
H           -1.13814780549465       -4.17630435034292        0.59739562986186
O           -1.85229234694428       -0.35543874786977       -4.04903092866905
H           -1.00400921361097        0.00513363209922       -4.22544332446469
H           -1.79847707651994       -1.18996647531457       -3.71158100568623
34
 energy: -56.658316136701 gnorm: 0.036473240107 xtb: 6.7.1 (edcfbbe)
H            1.47870438400933       -0.32350452583846       -0.57924361969026
C            0.42329402102680       -0.57335626467789       -0.68389400855572
H            0.14045676790166        0.62315723104370       -2.38540691898128
H            0.31479693083075       -1.51116230242289       -1.22418095691531
N           -0.23736800092499        0.51614992259450       -1.43756972795655
H            0.25948278545509       -1.47478127567093        1.27705459460518
C           -0.17937425880705       -0.65851207644019        0.70622305276985
O            0.48510630859978        1.64210029975589        0.92877121325482
C            0.02409075407080        0.65170225379333        1.53954376591314
H           -0.06364698846133        1.36060593647007       -0.85264825364747
O           -0.36003816427829        0.60839815394268        2.71854206838059
H           -1.24592109773816        0.35178899437242       -1.52417343275724
H           -1.25439451364635       -0.82920822514301        0.67614313031484
O           -2.27815149191862       -2.04564500821927        3.64098704402780
H           -1.46894551743026       -2.56190213365862        3.68098748319959
H           -2.02073372878865       -1.20370896434597        3.19205538689181
O            0.74779134728825       -1.97270182459809       -3.61898030102463
H            0.49087224203844       -2.81519217757585       -4.01460032435792
H            1.26271909718338       -1.53971250362260       -4.30829886342644
O            3.23879416235815       -1.98538342025458       -2.28045764850032
H            2.52287600819883       -2.61925905201605       -2.11741700578626
H            2.78972092148197       -1.15718249809626       -2.50532531113272
O           -0.53798572157922       -2.00362366899711       -6.11788790394170
H           -0.31386943999000       -1.15952851398174       -6.52950458348706
H           -0.64139533327238       -2.62461671545904       -6.84757940028975
O            0.36674116615892        1.62648413632113       -4.55742904064507
H            0.32605573223146        1.69006022363985       -5.51346485600256
H            0.75476176439850        2.44391319196774       -4.23844547487196
O           -1.36367569950088       -3.54149256081983        1.27600657972359
H           -2.26622482926420       -3.26444868369767        1.11370196767230
H           -1.13376601007431       -4.18062961567578        0.59758968492620
O           -1.87121348550740       -0.31828396105963       -4.00039520606674
H           -0.99883377353824        0.01462739935320       -4.24470374326421
H           -1.76038033851247       -1.23690577098304       -3.74099239037610
34
 energy: -56.651787861734 gnorm: 0.128474148101 xtb: 6.7.1 (edcfbbe)
H            1.47814651863182       -0.33358119423336       -0.59060328434353
C            0.41959210143254       -0.57655479738223       -0.69711147577609
H            0.15346342510991        0.64698022025459       -2.38785077927604
H            0.30717139964121       -1.51075989057866       -1.24613762480237
N           -0.22967410207740        0.52613001807341       -1.44259006990497
H            0.25943576342411       -1.47266059171044        1.26865271450599
C           -0.18841934885492       -0.66430177835151        0.69214678811804
O            0.42344887854010        1.66233571405102        0.88401511024022
C           -0.03251186341833        0.66950623591867        1.50512959896304
H           -0.05120743372733        1.35807783023231       -0.83317722505501
O           -0.34177396780726        0.59427429141907        2.71417123272754
H           -1.23931916148177        0.36814878515434       -1.53746820802168
H           -1.26054245551093       -0.84714788720489        0.65665112392025
O           -2.24649226607077       -1.94162091765346        3.70969809214934
H           -1.47355495371622       -2.56228177859197        3.65368090926296
H           -2.04558085498088       -1.24484955488865        3.16216158570709
O            0.74077070215343       -1.96706517802095       -3.57567343532313
H            0.44956528509273       -2.79594761737459       -3.99215974885742
H            1.23643143761158       -1.52210898262562       -4.27508917289831
O            3.27582789433512       -1.99024704076209       -2.25318293782959
H            2.56934086298041       -2.62400854001393       -2.10360407695299
H            2.84012835578438       -1.16691700141462       -2.48866735805140
O           -0.51665874540774       -2.02057078858453       -6.15447246750804
H           -0.32583049233127       -1.17090491240768       -6.57900003178620
H           -0.65125229257061       -2.63825757042780       -6.88740519915567
O            0.40952023877611        1.58257563322238       -4.51961040194464
H            0.32455507318040        1.69943917611895       -5.48164775599355
H            0.73789130015985        2.44488124515749       -4.19971179227539
O           -1.30020131677983       -3.49476701723124        1.23760686363995
H           -2.30561151880929       -3.34419411731976        1.15478934717372
H           -1.18348326012418       -4.25360087966528        0.57724571396670
O           -1.87063945246680       -0.28710273938991       -3.94835505493920
H           -1.00177541602008        0.03981027968291       -4.24665742051876
H           -1.73041433469936       -1.23446265345217       -3.75076655915820
34
 energy: -56.660462302324 gnorm: 0.059698697377 xtb: 6.7.1 (edcfbbe)
H            1.47850371562136       -0.33924401052119       -0.59656825359437
C            0.41909749024563       -0.57575976651726       -0.70368507857371
H            0.16221429002036        0.65680006269577       -2.38923315298568
H            0.30238144718156       -1.50792169920375       -1.25349381041110
N           -0.22472388347746        0.53116241110073       -1.44712662317838
H            0.25593145884807       -1.47047136267904        1.26183706632751
C           -0.19119385230649       -0.66369714648024        0.68438869528562
O            0.38576413933285        1.67449879966025        0.86623458052288
C           -0.02042336057990        0.65974666054455        1.50318976975221
H           -0.04749145946566        1.35806609301884       -0.82923280173268
O           -0.34978219473157        0.59972788888285        2.70430453888854
H           -1.23320198548128        0.37472118399714       -1.54663982381100
H           -1.26324490371285       -0.85128012267937        0.64657094960909
O           -2.26179997713486       -1.96044664513446        3.68705845819099
H           -1.48594559353735       -2.54841477317775        3.67848422137481
H           -2.01402378217176       -1.20733083400471        3.18839896316341
O            0.73018302594886       -1.96667226524162       -3.56497982142484
H            0.43639325566530       -2.78795967958769       -3.98237940625127
H            1.22137890580299       -1.51723827920335       -4.26218479218882
O            3.29420932803735       -1.99262789871210       -2.23988600521512
H            2.58341371363966       -2.62717193980594       -2.10191768158018
H            2.85718777081902       -1.17154567974001       -2.48673245663853
O           -0.51283724459827       -2.02429542952621       -6.17009771220673
H           -0.33106802897166       -1.17927454535871       -6.59765237625029
H           -0.65940322483276       -2.64448285766155       -6.89338053577424
O            0.41100459220637        1.57569329508596       -4.51015061155412
H            0.32372085777214        1.69654259635381       -5.46685818701266
H            0.73401438532483        2.43326161983128       -4.18611508521462
O           -1.37131231199236       -3.60227556297806        1.25372916662642
H           -2.26251947715413       -3.30968493038783        1.12882898319067
H           -1.14558793671825       -4.22214744736425        0.57665365846560
O           -1.86848742912981       -0.27911145199179       -3.93057304439912
H           -1.00452290902663        0.04791680019324       -4.24201089782646
H           -1.71748282144452       -1.23083708340764       -3.75377389357073
34