
                                 *****************
                                 * O   R   C   A *
                                 *****************

                                            #,                                       
                                            ###                                      
                                            ####                                     
                                            #####                                    
                                            ######                                   
                                           ########,                                 
                                     ,,################,,,,,                         
                               ,,#################################,,                 
                          ,,##########################################,,             
                       ,#########################################, ''#####,          
                    ,#############################################,,   '####,        
                  ,##################################################,,,,####,       
                ,###########''''           ''''###############################       
              ,#####''   ,,,,##########,,,,          '''####'''          '####       
            ,##' ,,,,###########################,,,                        '##       
           ' ,,###''''                  '''############,,,                           
         ,,##''                                '''############,,,,        ,,,,,,###''
      ,#''                                            '''#######################'''  
     '                                                          ''''####''''         
             ,#######,   #######,   ,#######,      ##                                
            ,#'     '#,  ##    ##  ,#'     '#,    #''#        ,####,   ,####,        
            ##       ##  ##   ,#'  ##            #'  '#       #'       #'  '#        
            ##       ##  #######   ##           ,######,      #####,   #    #        
            '#,     ,#'  ##    ##  '#,     ,#' ,#      #,     #,   #   #,  ,#        
             '#######'   ##     ##  '#######'  #'      '#     '####' # '####'        



                #########################################################
                #                        -***-                          #
                #          Department of theory and spectroscopy        #
                #                                                       #
                #                      Frank Neese                      #
                #                                                       #
                #     Directorship, Architecture, Infrastructure        #
                #                    SHARK, DRIVERS                     #
                #        Core code/Algorithms in most modules           #
                #                                                       #
                #        Max Planck Institute fuer Kohlenforschung      #
                #                Kaiser Wilhelm Platz 1                 #
                #                 D-45470 Muelheim/Ruhr                 #
                #                      Germany                          #
                #                                                       #
                #                  All rights reserved                  #
                #                        -***-                          #
                #########################################################


                         Program Version 6.0.1  -  RELEASE   -


 With contributions from (in alphabetic order):
[Max-Planck-Institut fuer Kohlenforschung]                               
  Daniel Aravena         : Magnetic Suceptibility                        
  Michael Atanasov       : Ab Initio Ligand Field Theory (pilot matlab implementation)
  Alexander A. Auer      : GIAO ZORA, VPT2 properties, NMR spectrum      
  Ute Becker             : All parallelization in ORCA, NUMFREQ, NUMCALC 
  Giovanni Bistoni       : ED, misc. LED, open-shell LED, HFLD           
  Martin Brehm           : Molecular dynamics                            
  Dmytro Bykov           : pre 5.0 version of the SCF Hessian            
  Marcos Casanova-Páez   : Triplet and SCS-CIS(D). UHF-(DLPNO)-IP/EA/STEOM-CCSD. UHF-CVS-IP/STEOM-CCSD   
  Vijay G. Chilkuri      : MRCI spin determinant printing, contributions to CSF-ICE 
  Pauline Colinet        : FMM embedding                                 
  Dipayan Datta          : RHF DLPNO-CCSD density                        
  Achintya Kumar Dutta   : EOM-CC, STEOM-CC                              
  Nicolas Foglia         : Exact transition moments, OPA infrastructure, MCD improvements    
  Dmitry Ganyushin       : Spin-Orbit,Spin-Spin,Magnetic field MRCI      
  Miquel Garcia-Rates    : C-PCM and meta-GGA Hessian, CCSD/C-PCM, Gaussian charge scheme 
  Tiago L. C. Gouveia    : GS-ROHF, GS-ROCIS                             
  Yang Guo               : DLPNO-NEVPT2, F12-NEVPT2, CIM, IAO-localization        
  Andreas Hansen         : Spin unrestricted coupled pair/coupled cluster methods 
  Ingolf Harden          : AUTO-CI MPn and infrastructure                
  Benjamin Helmich-Paris : MC-RPA, TRAH-(SCF,CASSCF), AVAS, COSX integrals, SCF dyn. polar. 
  Lee Huntington         : MR-EOM, pCC                                   
  Robert Izsak           : Overlap fitted RIJCOSX, COSX-SCS-MP3, EOM     
  Riya Kayal             : Wick's Theorem for AUTO-CI, AUTO-CI UHF-CCSDT 
  Emily Kempfer          : AUTO-CI, RHF CISDT and CCSDT                  
  Christian Kollmar      : KDIIS, OOCD, Brueckner-CCSD(T), CCSD density, CASPT2, CASPT2-K, improved NEVPT2 
  Axel Koslowski         : Symmetry handling                             
  Simone Kossmann        : meta-GGA functionals, TD-DFT gradient, OOMP2, (MP2 Hessian; deprecated post 5.0) 
  Lucas Lang             : DCDCAS                                        
  Marvin Lechner         : AUTO-CI (C++ implementation), FIC-MRCC        
  Spencer Leger          : CASSCF response                               
  Dagmar Lenk            : GEPOL surface, SMD, ORCA-2-JSON               
  Dimitrios Liakos       : Extrapolation schemes; Compound Job, initial MDCI parallelization 
  Dimitrios Manganas     : Further ROCIS development; embedding schemes. LFT, Crystal Embedding 
  Dimitrios Pantazis     : SARC Basis sets                               
  Anastasios Papadopoulos: AUTO-CI, single reference methods and gradients 
  Taras Petrenko         : pre 6.0 DFT Hessian and TD-DFT gradient, (ASA, deprecated), ECA, 1-Electron XAS/XES, NRVS 
  Peter Pinski           : DLPNO-MP2, DLPNO-MP2 Gradient                 
  Christoph Reimann      : Effective Core Potentials                     
  Marius Retegan         : Local ZFS, SOC                                
  Christoph Riplinger    : Optimizer, TS searches, QM/MM, DLPNO-CCSD(T), (RO)-DLPNO pert. Triples 
  Michael Roemelt        : Original ROCIS implementation                 
  Masaaki Saitow         : Open-shell DLPNO-CCSD energy and density      
  Barbara Sandhoefer     : DKH picture change effects                    
  Kantharuban Sivalingam : CASSCF convergence/infrastructure, NEVPT2 and variants, FIC-MRCI 
  Bernardo de Souza      : ESD, SOC TD-DFT                               
  Georgi L. Stoychev     : AutoAux, RI-MP2 NMR, DLPNO-MP2 response, X2C  
  Van Anh Tran           : RI-MP2 g-tensors                              
  Willem Van den Heuvel  : Paramagnetic NMR                              
  Zikuan Wang            : NOTCH, Electric field optimization            
  Frank Wennmohs         : Technical directorship and infrastructure     
  Hang Xu                : AUTO-CI-Response properties                   
                                                                         
[FACCTs GmbH]                                                            
  Markus Bursch, Miquel Garcia-Rates, Christoph Riplinger, Bernardo de Souza, Georgi L. Stoychev 
                                                                 
  APM, Basis sets (HGBS, AHGBS, def-TZVP (Ac-Lr), def2-XVPD (La-Lu)), CI-OPT, improved COSX, DLPNO-Multilevel,           
  DOCKER, DRACO, updates on ESD, GOAT, IRC, LR-CPCM, MBIS, meta-GGA TD-DFT gradient, ML-optimized integration grids, 
  MM, NACMEs, nearIR, NEB, NEB-TS, NL-DFT gradient (VV10), 2- and 3-layer-ONIOM, interface openCOSMO-RS, QMMM,   
  Crystal-QMMM, SF, symmetry and pop. for TD-DFT, r2SCAN hybrids, SOLVATOR                                   
                                                                         
[Other institutions]                                                     
  V. Asgeirsson          : NEB                                           
  Christoph Bannwarth    : sTDA-DFT, sTD-DFT, PBEh-3c, B97-3c, D3        
  Sebastian Ehlert       : rSCAN, r2SCAN, r2SCAN-3c, D4, dhf basis sets  
  Marvin Friede          : D4 for Fr, Ra, Ac-Lr                          
  Lars Goerigk           : TD-DFT with DH, B97 family of functionals     
  Stefan Grimme          : VdW corrections, initial TS optimization, DFT functionals, gCP, sTDA/sTD-DF 
  Waldemar Hujo          : DFT-NL                                        
  H. Jonsson             : NEB                                           
  Holger Kruse           : gCP                                           
  Marcel Mueller         : wB97X-3c, vDZP basis set                      
  Hagen Neugebauer       : wr2SCAN                                       
  Tobias Risthaus        : range-separated hybrid DFT                    
  Lukas Wittmann         : regularized MP2, r2SCAN double-hybrids, wr2SCAN        
                                                                         
We gratefully acknowledge several colleagues who have allowed us to      
interface, adapt or use parts of their codes:                            
  Ed Valeev, F. Pavosevic, A. Kumar             : LibInt (2-el integral package), F12 methods 
  Garnet Chan, S. Sharma, J. Yang, R. Olivares  : DMRG                   
  Ulf Ekstrom                                   : XCFun DFT Library      
  Mihaly Kallay                                 : mrcc  (arbitrary order and MRCC methods)
  Frank Weinhold                                : gennbo (NPA and NBO analysis)           
  Simon Mueller                                 : openCOSMO-RS                            
  Christopher J. Cramer and Donald G. Truhlar   : smd solvation model                     
  S Lehtola, MJT Oliveira, MAL Marques          : LibXC Library                           
  Liviu Ungur et al                             : ANISO software                          


 Your calculation uses the libint2 library for the computation of 2-el integrals
 For citations please refer to: http://libint.valeyev.net

 Your ORCA version has been built with support for libXC version: 6.2.2
 For citations please refer to: https://libxc.gitlab.io

 This ORCA versions uses:
   CBLAS   interface :  Fast vector & matrix operations
   LAPACKE interface :  Fast linear algebra routines
   SCALAPACK package :  Parallel linear algebra routines
   Shared memory     :  Shared parallel matrices
   BLAS/LAPACK       :  OpenBLAS 0.3.27  USE64BITINT DYNAMIC_ARCH NO_AFFINITY SkylakeX SINGLE_THREADED
        Core in use  :  SkylakeX
   Copyright (c) 2011-2014, The OpenBLAS Project


NOTE: MaxCore=5000 MB was set to SCF,MP2,MDCI,CIPSI,MRCI and CIS
      => If you want to overwrite this, your respective input block should be placed after the MaxCore statement
Your calculation utilizes the atom-pairwise dispersion correction
based on EEQ partial charges (D4)


Warning: RI is on but no J-basis has been assigned. Assigning Def2/J (nothing to worry about!)
================================================================================

----- Orbital basis set information -----
Your calculation utilizes the basis: def2-TZVP
   F. Weigend and R. Ahlrichs, Phys. Chem. Chem. Phys. 7, 3297 (2005).

----- AuxJ basis set information -----
Your calculation utilizes the auxiliary basis: def2/J
   F. Weigend, Phys. Chem. Chem. Phys. 8, 1057 (2006).

================================================================================
                                        WARNINGS
                       Please study these warnings very carefully!
================================================================================

WARNING: Old DensityContainer found on disk!
         Will remove this file - 
         If you want to keep old densities, please start your calculation with a different basename. 


WARNING: Geometry Optimization
  ===> : Switching off AutoStart
         For restart on a previous wavefunction, please use MOREAD

================================================================================
                                       INPUT FILE
================================================================================
NAME = 07_Aminobutyric-acid_zwitterion.inp
|  1> ! Opt B3LYP D4 def2-TZVP TightSCF TightOpt CPCM(water)
|  2> 
|  3> %maxcore 5000
|  4> 
|  5> %pal
|  6> nprocs 6
|  7> end
|  8> 
|  9> * xyz 0 1
| 10> N          0.18740        1.06590        0.44330
| 11> C          1.07850        1.91900       -0.34400
| 12> C          0.50280        2.31020       -1.72110
| 13> C          0.34610        1.16150       -2.73400
| 14> C         -0.73620        0.18310       -2.38020
| 15> O         -0.44210       -1.12230       -2.22650
| 16> O         -1.88990        0.56120       -2.25170
| 17> H          0.58650        0.96060        1.40410
| 18> H         -0.76020        1.50160        0.51970
| 19> H          1.24500        2.86230        0.22270
| 20> H          2.06570        1.42190       -0.46960
| 21> H          1.22470        3.02870       -2.16750
| 22> H         -0.46350        2.84580       -1.59590
| 23> H          1.31900        0.63650       -2.85030
| 24> H          0.07640        1.60370       -3.71750
| 25> H          0.12070        0.11230        0.02810
| 26> *
| 27> 
| 28>                          ****END OF INPUT****
================================================================================

                       *****************************
                       * Geometry Optimization Run *
                       *****************************

Geometry optimization settings:
Update method            Update   .... BFGS
Choice of coordinates    CoordSys .... (2022) Redundant Internals
Initial Hessian          InHess   .... Almloef's Model
Max. no of cycles        MaxIter  .... 50

Convergence Tolerances:
Energy Change            TolE     ....  1.0000e-06 Eh
Max. Gradient            TolMAXG  ....  1.0000e-04 Eh/bohr
RMS Gradient             TolRMSG  ....  3.0000e-05 Eh/bohr
Max. Displacement        TolMAXD  ....  1.0000e-03 bohr
RMS Displacement         TolRMSD  ....  6.0000e-04 bohr
Strict Convergence                .... False

------------------------------------------------------------------------------
                        ORCA OPTIMIZATION COORDINATE SETUP
------------------------------------------------------------------------------

The optimization will be done in redundant internal coordinates (2022)
Making redundant internal coordinates   ...  (2022 redundants) done
Evaluating the initial hessian          ...  (Almloef) done
Evaluating the coordinates              ...  done
Calculating the B-matrix                .... done
Calculating the G-matrix                .... done
Diagonalizing the G-matrix              .... done
Small eigenvalue found = 1.959e-02
The first mode is                       ....   23
The number of degrees of freedom        ....   42

    -----------------------------------------------------------------
                    Redundant Internal Coordinates


    -----------------------------------------------------------------
         Definition                    Initial Value    Approx d2E/dq
    -----------------------------------------------------------------
      1. B(C   1,N   0)                  1.4634         0.427262   
      2. B(C   2,C   1)                  1.5430         0.356143   
      3. B(C   3,C   2)                  1.5395         0.360774   
      4. B(C   4,C   3)                  1.5013         0.415158   
      5. B(O   5,C   4)                  1.3469         0.655557   
      6. B(O   6,C   4)                  1.2209         1.041669   
      7. B(H   7,N   0)                  1.0457         0.379511   
      8. B(H   8,N   0)                  1.0458         0.379437   
      9. B(H   9,C   1)                  1.1130         0.330969   
     10. B(H  10,C   1)                  1.1124         0.331647   
     11. B(H  11,C   2)                  1.1120         0.332081   
     12. B(H  12,C   2)                  1.1119         0.332288   
     13. B(H  13,C   3)                  1.1116         0.332613   
     14. B(H  14,C   3)                  1.1116         0.332687   
     15. B(H  15,N   0)                  1.0422         0.384426   
     16. A(H   8,N   0,H  15)          110.6297         0.291485   
     17. A(H   7,N   0,H   8)          108.7028         0.290896   
     18. A(C   1,N   0,H   8)          110.3760         0.329613   
     19. A(C   1,N   0,H  15)          110.9790         0.330325   
     20. A(C   1,N   0,H   7)          108.6994         0.329623   
     21. A(H   7,N   0,H  15)          107.3572         0.291494   
     22. A(H   9,C   1,H  10)          107.6665         0.283367   
     23. A(C   2,C   1,H  10)          110.0985         0.317491   
     24. A(N   0,C   1,H  10)          109.9143         0.325144   
     25. A(C   2,C   1,H   9)          107.1796         0.317385   
     26. A(N   0,C   1,C   2)          113.6245         0.366473   
     27. A(N   0,C   1,H   9)          108.1339         0.325034   
     28. A(C   1,C   2,H  11)          106.2520         0.317558   
     29. A(C   3,C   2,H  12)          110.1851         0.318260   
     30. A(C   1,C   2,H  12)          110.2358         0.317591   
     31. A(C   3,C   2,H  11)          106.5025         0.318228   
     32. A(C   1,C   2,C   3)          115.8492         0.358267   
     33. A(H  11,C   2,H  12)          107.3456         0.283600   
     34. A(H  13,C   3,H  14)          107.9190         0.283723   
     35. A(C   2,C   3,C   4)          113.8664         0.367775   
     36. A(C   4,C   3,H  14)          107.0295         0.325727   
     37. A(C   2,C   3,H  14)          108.0597         0.318322   
     38. A(C   4,C   3,H  13)          110.3541         0.325715   
     39. A(C   2,C   3,H  13)          109.3993         0.318311   
     40. A(O   5,C   4,O   6)          119.6356         0.475553   
     41. A(C   3,C   4,O   6)          120.2805         0.440474   
     42. A(C   3,C   4,O   5)          120.0731         0.405499   
     43. D(H   9,C   1,N   0,H   8)     65.9450         0.016676   
     44. D(H   9,C   1,N   0,H   7)    -53.1881         0.016676   
     45. D(H   9,C   1,N   0,H  15)   -171.0341         0.016676   
     46. D(C   2,C   1,N   0,H  15)     70.1180         0.016676   
     47. D(C   2,C   1,N   0,H   7)   -172.0360         0.016676   
     48. D(C   2,C   1,N   0,H   8)    -52.9029         0.016676   
     49. D(C   3,C   2,C   1,N   0)    -67.3362         0.010192   
     50. D(H  11,C   2,C   1,H  10)    -61.5961         0.010192   
     51. D(H  11,C   2,C   1,H   9)     55.2358         0.010192   
     52. D(H  11,C   2,C   1,N   0)    174.6290         0.010192   
     53. D(C   3,C   2,C   1,H  10)     56.4388         0.010192   
     54. D(C   3,C   2,C   1,H   9)    173.2706         0.010192   
     55. D(C   4,C   3,C   2,H  12)    -56.0987         0.010439   
     56. D(C   4,C   3,C   2,H  11)   -172.2157         0.010439   
     57. D(C   4,C   3,C   2,C   1)     69.8881         0.010439   
     58. D(H  13,C   3,C   2,H  12)    179.9120         0.010439   
     59. D(H  13,C   3,C   2,H  11)     63.7950         0.010439   
     60. D(H  13,C   3,C   2,C   1)    -54.1012         0.010439   
     61. D(O   6,C   4,C   3,C   2)     58.8793         0.012754   
     62. D(O   5,C   4,C   3,H  14)    118.3368         0.012754   
     63. D(O   5,C   4,C   3,H  13)      1.1534         0.012754   
     64. D(O   6,C   4,C   3,H  13)   -177.6484         0.012754   
     65. D(O   5,C   4,C   3,C   2)   -122.3189         0.012754   
    -----------------------------------------------------------------

Number of atoms                         .... 16
Number of degrees of freedom            .... 65


         *************************************************************
         *                GEOMETRY OPTIMIZATION CYCLE   1            *
         *************************************************************
---------------------------------
CARTESIAN COORDINATES (ANGSTROEM)
---------------------------------
  N      0.187400    1.065900    0.443300
  C      1.078500    1.919000   -0.344000
  C      0.502800    2.310200   -1.721100
  C      0.346100    1.161500   -2.734000
  C     -0.736200    0.183100   -2.380200
  O     -0.442100   -1.122300   -2.226500
  O     -1.889900    0.561200   -2.251700
  H      0.586500    0.960600    1.404100
  H     -0.760200    1.501600    0.519700
  H      1.245000    2.862300    0.222700
  H      2.065700    1.421900   -0.469600
  H      1.224700    3.028700   -2.167500
  H     -0.463500    2.845800   -1.595900
  H      1.319000    0.636500   -2.850300
  H      0.076400    1.603700   -3.717500
  H      0.120700    0.112300    0.028100

----------------------------
CARTESIAN COORDINATES (A.U.)
----------------------------
  NO LB      ZA    FRAG     MASS         X           Y           Z
   0 N     7.0000    0    14.007    0.354135    2.014259    0.837716
   1 C     6.0000    0    12.011    2.038070    3.626384   -0.650066
   2 C     6.0000    0    12.011    0.950154    4.365645   -3.252408
   3 C     6.0000    0    12.011    0.654034    2.194917   -5.166511
   4 C     6.0000    0    12.011   -1.391216    0.346009   -4.497926
   5 O     8.0000    0    15.999   -0.835448   -2.120840   -4.207475
   6 O     8.0000    0    15.999   -3.571393    1.060514   -4.255096
   7 H     1.0000    0     1.008    1.108324    1.815271    2.653364
   8 H     1.0000    0     1.008   -1.436570    2.837613    0.982091
   9 H     1.0000    0     1.008    2.352709    5.408963    0.420842
  10 H     1.0000    0     1.008    3.903607    2.687002   -0.887415
  11 H     1.0000    0     1.008    2.314348    5.723414   -4.095981
  12 H     1.0000    0     1.008   -0.875888    5.377783   -3.015814
  13 H     1.0000    0     1.008    2.492549    1.202811   -5.386286
  14 H     1.0000    0     1.008    0.144375    3.030554   -7.025057
  15 H     1.0000    0     1.008    0.228090    0.212216    0.053101

--------------------------------
INTERNAL COORDINATES (ANGSTROEM)
--------------------------------
 N      0   0   0     0.000000000000     0.00000000     0.00000000
 C      1   0   0     1.463448020942     0.00000000     0.00000000
 C      2   1   0     1.543007563170   113.62449556     0.00000000
 C      3   2   1     1.539491146451   115.84922859   292.66382677
 C      4   3   2     1.501270891612   113.86638021    69.88814880
 O      5   4   3     1.346917837138   120.07311062   237.68105854
 O      5   4   3     1.220858529888   120.28051102    58.87929002
 H      1   2   3     1.045708152402   108.69938844   187.96398390
 H      1   2   3     1.045761545478   110.37601966   307.09710957
 H      2   1   3     1.112962726240   108.13390950   118.84789171
 H      2   1   3     1.112406225261   109.91431195   236.12498931
 H      3   2   1     1.112049828020   106.25201180   174.62899067
 H      3   2   1     1.111880429723   110.23577894    58.62499328
 H      4   3   2     1.111613736871   109.39930839   305.89883029
 H      4   3   2     1.111553498488   108.05971302   188.64601710
 H      1   2   3     1.042205781024   110.97898743    70.11801127

---------------------------
INTERNAL COORDINATES (A.U.)
---------------------------
 N      0   0   0     0.000000000000     0.00000000     0.00000000
 C      1   0   0     2.765515970810     0.00000000     0.00000000
 C      2   1   0     2.915861716961   113.62449556     0.00000000
 C      3   2   1     2.909216652388   115.84922859   292.66382677
 C      4   3   2     2.836990837974   113.86638021    69.88814880
 O      5   4   3     2.545305837084   120.07311062   237.68105854
 O      5   4   3     2.307088269750   120.28051102    58.87929002
 H      1   2   3     1.976102024049   108.69938844   187.96398390
 H      1   2   3     1.976202922339   110.37601966   307.09710957
 H      2   1   3     2.103194749856   108.13390950   118.84789171
 H      2   1   3     2.102143115413   109.91431195   236.12498931
 H      3   2   1     2.101469622233   106.25201180   174.62899067
 H      3   2   1     2.101149505842   110.23577894    58.62499328
 H      4   3   2     2.100645529391   109.39930839   305.89883029
 H      4   3   2     2.100531695344   108.05971302   188.64601710
 H      1   2   3     1.969483501325   110.97898743    70.11801127

---------------------
BASIS SET INFORMATION
---------------------
There are 4 groups of distinct atoms

 Group   1 Type N   : 11s6p2d1f contracted to 5s3p2d1f pattern {62111/411/11/1}
 Group   2 Type C   : 11s6p2d1f contracted to 5s3p2d1f pattern {62111/411/11/1}
 Group   3 Type O   : 11s6p2d1f contracted to 5s3p2d1f pattern {62111/411/11/1}
 Group   4 Type H   : 5s1p contracted to 3s1p pattern {311/1}

Atom   0N    basis set group =>   1
Atom   1C    basis set group =>   2
Atom   2C    basis set group =>   2
Atom   3C    basis set group =>   2
Atom   4C    basis set group =>   2
Atom   5O    basis set group =>   3
Atom   6O    basis set group =>   3
Atom   7H    basis set group =>   4
Atom   8H    basis set group =>   4
Atom   9H    basis set group =>   4
Atom  10H    basis set group =>   4
Atom  11H    basis set group =>   4
Atom  12H    basis set group =>   4
Atom  13H    basis set group =>   4
Atom  14H    basis set group =>   4
Atom  15H    basis set group =>   4
---------------------------------
AUXILIARY/J BASIS SET INFORMATION
---------------------------------
There are 4 groups of distinct atoms

 Group   1 Type N   : 12s5p4d2f1g contracted to 6s4p3d1f1g pattern {711111/2111/211/2/1}
 Group   2 Type C   : 12s5p4d2f1g contracted to 6s4p3d1f1g pattern {711111/2111/211/2/1}
 Group   3 Type O   : 12s5p4d2f1g contracted to 6s4p3d1f1g pattern {711111/2111/211/2/1}
 Group   4 Type H   : 5s2p1d contracted to 3s1p1d pattern {311/2/1}

Atom   0N    basis set group =>   1
Atom   1C    basis set group =>   2
Atom   2C    basis set group =>   2
Atom   3C    basis set group =>   2
Atom   4C    basis set group =>   2
Atom   5O    basis set group =>   3
Atom   6O    basis set group =>   3
Atom   7H    basis set group =>   4
Atom   8H    basis set group =>   4
Atom   9H    basis set group =>   4
Atom  10H    basis set group =>   4
Atom  11H    basis set group =>   4
Atom  12H    basis set group =>   4
Atom  13H    basis set group =>   4
Atom  14H    basis set group =>   4
Atom  15H    basis set group =>   4
--------------------------------------------------------------------------
WARNING: There was an error initializing an OpenFabrics device.

  Local host:   ga02
  Local device: mlx5_0
--------------------------------------------------------------------------


           ************************************************************
           *        Program running with 6 parallel MPI-processes     *
           *              working on a common directory               *
           ************************************************************
------------------------------------------------------------------------------
                             ORCA STARTUP CALCULATIONS
                           -- RI-GTO INTEGRALS CHOSEN --
------------------------------------------------------------------------------
------------------------------------------------------------------------------
                   ___                                                        
                  /   \      - P O W E R E D   B Y -                         
                 /     \                                                     
                 |  |  |   _    _      __       _____    __    __             
                 |  |  |  | |  | |    /  \     |  _  \  |  |  /  |          
                  \  \/   | |  | |   /    \    | | | |  |  | /  /          
                 / \  \   | |__| |  /  /\  \   | |_| |  |  |/  /          
                |  |  |   |  __  | /  /__\  \  |    /   |      \           
                |  |  |   | |  | | |   __   |  |    \   |  |\   \          
                \     /   | |  | | |  |  |  |  | |\  \  |  | \   \       
                 \___/    |_|  |_| |__|  |__|  |_| \__\ |__|  \__/        
                                                                              
                      - O R C A' S   B I G   F R I E N D -                    
                                      &                                       
                       - I N T E G R A L  F E E D E R -                       
                                                                              
 v1 FN, 2020, v2 2021, v3 2022-2024                                           
------------------------------------------------------------------------------


----------------------
SHARK INTEGRAL PACKAGE
----------------------

Number of atoms                             ...     16
Number of basis functions                   ...    271
Number of shells                            ...    113
Maximum angular momentum                    ...      3
Integral batch strategy                     ... SHARK/LIBINT Hybrid
RI-J (if used) integral strategy            ... SPLIT-RIJ (Revised 2003 algorithm where possible)
Printlevel                                  ...      1
Contraction scheme used                     ... SEGMENTED contraction
Prescreening option                         ... SCHWARTZ
   Thresh                                   ... 2.500e-11
   Tcut                                     ... 2.500e-12
   Tpresel                                  ... 2.500e-12 
Coulomb Range Separation                    ... NOT USED
Exchange Range Separation                   ... NOT USED
Multipole approximations                    ... NOT USED
Finite Nucleus Model                        ... NOT USED
CABS basis                                  ... NOT available
Auxiliary Coulomb fitting basis             ... AVAILABLE
   # of basis functions in Aux-J            ...    442
   # of shells in Aux-J                     ...    150
   Maximum angular momentum in Aux-J        ...      4
Auxiliary J/K fitting basis                 ... NOT available
Auxiliary Correlation fitting basis         ... NOT available
Auxiliary 'external' fitting basis          ... NOT available

Checking pre-screening integrals            ... done (  0.0 sec) Dimension = 113
Check shell pair data                       ... done (  0.0 sec)
Shell pair information
Shell pair cut-off parameter TPreSel        ...   2.5e-12
Total number of shell pairs                 ...      6441
Shell pairs after pre-screening             ...      6032
Total number of primitive shell pairs       ...     19096
Primitive shell pairs kept                  ...     13594
          la=0 lb=0:   1772 shell pairs
          la=1 lb=0:   1759 shell pairs
          la=1 lb=1:    457 shell pairs
          la=2 lb=0:    810 shell pairs
          la=2 lb=1:    403 shell pairs
          la=2 lb=2:    100 shell pairs
          la=3 lb=0:    401 shell pairs
          la=3 lb=1:    204 shell pairs
          la=3 lb=2:     98 shell pairs
          la=3 lb=3:     28 shell pairs

Calculating one electron integrals          ... done (  0.0 sec)
Calculating RI/J V-Matrix + Cholesky decomp.... done (  0.0 sec)
Calculating Nuclear repulsion               ... done (  0.0 sec) ENN=    318.295490174806 Eh

Diagonalization of the overlap matrix:
Smallest eigenvalue                        ... 2.004e-04
Time for diagonalization                   ...    0.035 sec
Threshold for overlap eigenvalues          ... 1.000e-07
Number of eigenvalues below threshold      ... 0
Time for construction of square roots      ...    0.003 sec
Total time needed                          ...    0.040 sec

-------------------
DFT GRID GENERATION
-------------------

General Integration Accuracy     IntAcc      ... 4.388
Radial Grid Type                 RadialGrid  ... OptM3 with GC (2021)
Angular Grid (max. ang.)         AngularGrid ... 4 (Lebedev-302)
Angular grid pruning method      GridPruning ... 4 (adaptive)
Weight generation scheme         WeightScheme... mBecke (2022)
Basis function cutoff            BFCut       ... 1.0000e-11
Integration weight cutoff        WCut        ... 1.0000e-14
Partially contracted basis set               ... off
Rotationally invariant grid construction     ... off
Angular grids for H and He will be reduced by one unit

Total number of grid points                  ...    71127
Total number of batches                      ...     1118
Average number of points per batch           ...       63
Average number of grid points per atom       ...     4445

--------------------
COSX GRID GENERATION
--------------------

GRIDX 1
-------
General Integration Accuracy     IntAcc      ... 3.816
Radial Grid Type                 RadialGrid  ... OptM3 with GC (2021)
Angular Grid (max. ang.)         AngularGrid ... 1 (Lebedev-50)
Angular grid pruning method      GridPruning ... 4 (adaptive)
Weight generation scheme         WeightScheme... mBecke (2022)
Basis function cutoff            BFCut       ... 1.0000e-11
Integration weight cutoff        WCut        ... 1.0000e-14
Partially contracted basis set               ... on
Rotationally invariant grid construction     ... off
Angular grids for H and He will be reduced by one unit

Total number of grid points                  ...     9107
Total number of batches                      ...       84
Average number of points per batch           ...      108
Average number of grid points per atom       ...      569
UseSFitting                                  ... on

GRIDX 2
-------
General Integration Accuracy     IntAcc      ... 4.020
Radial Grid Type                 RadialGrid  ... OptM3 with GC (2021)
Angular Grid (max. ang.)         AngularGrid ... 2 (Lebedev-110)
Angular grid pruning method      GridPruning ... 4 (adaptive)
Weight generation scheme         WeightScheme... mBecke (2022)
Basis function cutoff            BFCut       ... 1.0000e-11
Integration weight cutoff        WCut        ... 1.0000e-14
Partially contracted basis set               ... on
Rotationally invariant grid construction     ... off
Angular grids for H and He will be reduced by one unit

Total number of grid points                  ...    19483
Total number of batches                      ...      160
Average number of points per batch           ...      121
Average number of grid points per atom       ...     1218
UseSFitting                                  ... on

GRIDX 3
-------
General Integration Accuracy     IntAcc      ... 4.338
Radial Grid Type                 RadialGrid  ... OptM3 with GC (2021)
Angular Grid (max. ang.)         AngularGrid ... 3 (Lebedev-194)
Angular grid pruning method      GridPruning ... 4 (adaptive)
Weight generation scheme         WeightScheme... mBecke (2022)
Basis function cutoff            BFCut       ... 1.0000e-11
Integration weight cutoff        WCut        ... 1.0000e-14
Partially contracted basis set               ... on
Rotationally invariant grid construction     ... off
Angular grids for H and He will be reduced by one unit

Total number of grid points                  ...    42674
Total number of batches                      ...      343
Average number of points per batch           ...      124
Average number of grid points per atom       ...     2667
UseSFitting                                  ... on
Initializing property integral containers    ... done (  0.0 sec)

SHARK setup successfully completed in   0.7 seconds

Maximum memory used throughout the entire STARTUP-calculation: 25.9 MB
[ga02:1506897] 5 more processes have sent help message help-mpi-btl-openib.txt / error in device init
[ga02:1506897] Set MCA parameter "orte_base_help_aggregate" to 0 to see all help / error messages
--------------------------------------------------------------------------
WARNING: There was an error initializing an OpenFabrics device.

  Local host:   ga02
  Local device: mlx5_0
--------------------------------------------------------------------------


           ************************************************************
           *        Program running with 6 parallel MPI-processes     *
           *              working on a common directory               *
           ************************************************************
-------------------------------------------------------------------------------
                                 ORCA GUESS
                   Start orbitals & Density for SCF / CASSCF
-------------------------------------------------------------------------------

------------
SCF SETTINGS
------------
Hamiltonian:
 Density Functional     Method          .... DFT(GTOs)
 Exchange Functional    Exchange        .... B88
   X-Alpha parameter    XAlpha          ....  0.666667
   Becke's b parameter  XBeta           ....  0.004200
 Correlation Functional Correlation     .... LYP
 LDA part of GGA corr.  LDAOpt          .... VWN-5
 Gradients option       PostSCFGGA      .... off
 Hybrid DFT is turned on
   Fraction HF Exchange ScalHFX         ....  0.200000
   Scaling of DF-GGA-X  ScalDFX         ....  0.720000
   Scaling of DF-GGA-C  ScalDFC         ....  0.810000
   Scaling of DF-LDA-C  ScalLDAC        ....  1.000000
   Perturbative correction              ....  0.000000
   NL short-range parameter             ....  4.800000
 RI-approximation to the Coulomb term is turned on
   Number of AuxJ basis functions       .... 442
   RIJ-COSX (HFX calculated with COS-X)).... on


General Settings:
 Integral files         IntName         .... 07_Aminobutyric-acid_zwitterion
 Hartree-Fock type      HFTyp           .... RHF
 Total Charge           Charge          ....    0
 Multiplicity           Mult            ....    1
 Number of Electrons    NEL             ....   56
 Basis Dimension        Dim             ....  271
 Nuclear Repulsion      ENuc            ....    318.2954901748 Eh

Convergence Acceleration:
 AO-DIIS                CNVDIIS         .... on
   Start iteration      DIISMaxIt       ....    12
   Startup error        DIISStart       ....  0.200000
   # of expansion vecs  DIISMaxEq       ....     5
   Bias factor          DIISBfac        ....   1.050
   Max. coefficient     DIISMaxC        ....  10.000
 MO-DIIS                CNVKDIIS        .... off
 Trust-Rad. Augm. Hess. CNVTRAH         .... auto
   Auto Start mean grad. ratio tolernc. ....  1.125000
   Auto Start start iteration           ....    50
   Auto Start num. interpolation iter.  ....    10
   Max. Number of Micro iterations      ....    24
   Max. Number of Macro iterations      .... Maxiter - #DIIS iter
   Number of Davidson start vectors     ....     2
   Converg. threshold    (grad. norm)   ....   1.000e-05
   Grad. Scal. Fac. for Micro threshold ....   0.100
   Minimum threshold for Micro iter.    ....   1.000e-02
   NR start threshold (gradient norm)   ....   1.000e-04
   Initial trust radius                 ....   0.400
   Minimum AH scaling param. (alpha)    ....   1.000
   Maximum AH scaling param. (alpha)    .... 1000.000
   Quad. conv. algorithm                .... NR
   White noise on init. David. guess    .... on
   Maximum white noise                  ....   0.010
   Pseudo random numbers                .... off
   Inactive MOs                         .... canonical
   Orbital update algorithm             .... Taylor
   Preconditioner                       .... Diag
   Full preconditioner red. dimension   ....   250
 SOSCF                  CNVSOSCF        .... on
   Start iteration      SOSCFMaxIt      ....   150
   Startup grad/error   SOSCFStart      ....  0.003300
   Hessian update       SOSCFHessUp     .... L-BFGS
 Level Shifting         CNVShift        .... on
   Level shift para.    LevelShift      ....    0.2500
   Turn off err/grad.   ShiftErr        ....    0.0010
 Zerner damping         CNVZerner       .... off
 Static damping         CNVDamp         .... on
   Fraction old density DampFac         ....    0.7000
   Max. Damping (<1)    DampMax         ....    0.9800
   Min. Damping (>=0)   DampMin         ....    0.0000
   Turn off err/grad.   DampErr         ....    0.1000

SCF Procedure:
 Maximum # iterations   MaxIter         ....   125
 SCF integral mode      SCFMode         .... Direct
   Integral package                     .... SHARK and LIBINT hybrid scheme
 Reset frequency        DirectResetFreq ....    20
 Integral Threshold     Thresh          ....  2.500e-11 Eh
 Primitive CutOff       TCut            ....  2.500e-12 Eh

Convergence Tolerance:
 Convergence Check Mode ConvCheckMode   .... Total+1el-Energy
 Convergence forced     ConvForced      .... 0
 Energy Change          TolE            ....  1.000e-08 Eh
 1-El. energy change                    ....  1.000e-05 Eh
 Orbital Gradient       TolG            ....  1.000e-05
 Orbital Rotation angle TolX            ....  1.000e-05
 DIIS Error             TolErr          ....  5.000e-07

------------------------------
INITIAL GUESS: MODEL POTENTIAL
------------------------------
Loading Hartree-Fock densities                     ... done
Calculating cut-offs                               ... done
Initializing the effective Hamiltonian             ... done
Setting up the integral package (SHARK)            ... done
Starting the Coulomb interaction                   ... done (   0.0 sec)
Making the grid                                    ... done (   0.1 sec)
Mapping shells                                     ... done
Starting the XC term evaluation                    ... done (   0.0 sec)
  promolecular density results
     # of electrons  =     55.999389373
     EX              =    -46.171180264
     EC              =     -1.889606807
     EX+EC           =    -48.060787071
Transforming the Hamiltonian                       ... done (   0.0 sec)
Diagonalizing the Hamiltonian                      ... done (   0.0 sec)
Back transforming the eigenvectors                 ... done (   0.0 sec)
Now organizing SCF variables                       ... done
                      ------------------
                      INITIAL GUESS DONE (   0.2 sec)
                      ------------------
             **** ENERGY FILE WAS UPDATED (07_Aminobutyric-acid_zwitterion.en.tmp) ****
Finished Guess after   0.4 sec
Maximum memory used throughout the entire GUESS-calculation: 17.3 MB
[ga02:1506930] 5 more processes have sent help message help-mpi-btl-openib.txt / error in device init
[ga02:1506930] Set MCA parameter "orte_base_help_aggregate" to 0 to see all help / error messages
--------------------------------------------------------------------------
WARNING: There was an error initializing an OpenFabrics device.

  Local host:   ga02
  Local device: mlx5_0
--------------------------------------------------------------------------


           ************************************************************
           *        Program running with 6 parallel MPI-processes     *
           *              working on a common directory               *
           ************************************************************

-------------------------------------------------------------------------------------------
                                      ORCA LEAN-SCF
                              memory conserving SCF solver
-------------------------------------------------------------------------------------------

--------------------
CPCM SOLVATION MODEL
--------------------
CPCM parameters:
  Epsilon                                         ...      80.1510
  Refrac                                          ...       1.3328
  Rsolv                                           ...       1.3000
  Surface type                                    ... GAUSSIAN VDW
  Discretization scheme                           ... Constant charge density
    Threshold for H atoms                         ...       5.0000 (charges/Ang^2)
    Threshold for non-H atoms                     ...       5.0000 (charges/Ang^2)
  Epsilon function type                           ...         CPCM
Solvent:                                          ... WATER
Radii:
  Scheme                                          ... Element-dependent radii
  Radius for N  used is    3.5149 Bohr (=   1.8600 Ang.)
  Radius for C  used is    3.8550 Bohr (=   2.0400 Ang.)
  Radius for O  used is    3.4469 Bohr (=   1.8240 Ang.)
  Radius for H  used is    2.4944 Bohr (=   1.3200 Ang.)
Calculating surface                               ...        done! (  0.0s)
Cavity surface points                             ...         1374
Cavity Volume                                     ...     900.8262
Cavity Surface-area                               ...     538.0682
Calculating surface distance matrix               ...        done! (  0.0s)
Performing Cholesky decomposition & store         ...        done! (  0.0s)
Overall time for CPCM initialization              ...                 0.1s

----------------------------------------D-I-I-S--------------------------------------------
Iteration    Energy (Eh)           Delta-E    RMSDP     MaxDP     DIISErr   Damp  Time(sec)
-------------------------------------------------------------------------------------------
               ***  Starting incremental Fock matrix formation  ***
    1    -362.6833690655608962     0.00e+00  3.66e-03  3.57e-01  3.70e-01  0.700   1.4
    2    -362.8406843467164435    -1.57e-01  3.34e-03  3.65e-01  1.46e-01  0.700   0.8
                               ***Turning on AO-DIIS***
    3    -362.8945820195162923    -5.39e-02  1.10e-03  1.02e-01  3.58e-02  0.700   0.8
    4    -362.9286418085910100    -3.41e-02  1.02e-03  5.07e-02  1.45e-02  0.000   0.8
    5    -363.0062359198203694    -7.76e-02  8.38e-04  9.91e-02  7.37e-03  0.000   0.8
[ga02:1506958] 5 more processes have sent help message help-mpi-btl-openib.txt / error in device init
[ga02:1506958] Set MCA parameter "orte_base_help_aggregate" to 0 to see all help / error messages
                              *** Initializing SOSCF ***
---------------------------------------S-O-S-C-F--------------------------------------
Iteration    Energy (Eh)           Delta-E    RMSDP     MaxDP     MaxGrad    Time(sec)
--------------------------------------------------------------------------------------
    6    -363.0066649840359787    -4.29e-04  3.06e-04  3.58e-02  2.44e-03     0.8
               *** Restarting incremental Fock matrix formation ***
    7    -363.0067024894328824    -3.75e-05  2.29e-04  2.68e-02  3.58e-04     1.3
    8    -363.0066972337928064     5.26e-06  3.55e-05  1.49e-03  8.55e-04     1.0
    9    -363.0067082501163895    -1.10e-05  4.13e-05  4.73e-03  9.34e-05     1.0
   10    -363.0067080747194268     1.75e-07  1.07e-05  1.14e-03  9.39e-05     1.0
   11    -363.0067086181086324    -5.43e-07  7.77e-06  8.95e-04  1.57e-05     0.9
   12    -363.0067086000231029     1.81e-08  4.00e-06  4.58e-04  2.21e-05     0.8
   13    -363.0067086272936194    -2.73e-08  5.06e-07  5.87e-05  7.46e-07     0.8
                  *** Gradient check signals convergence ***

               *****************************************************
               *                     SUCCESS                       *
               *           SCF CONVERGED AFTER  13 CYCLES          *
               *****************************************************

Recomputing exchange energy using gridx3       ... done (    1.852 sec)
Old exchange energy                            :     -9.387668924 Eh
New exchange energy                            :     -9.387669424 Eh
Exchange energy change after final integration :     -0.000000500 Eh
Total energy after final integration           :   -363.006709127 Eh
             **** ENERGY FILE WAS UPDATED (07_Aminobutyric-acid_zwitterion.en.tmp) ****

----------------
TOTAL SCF ENERGY
----------------

Total Energy       :       -363.00670912732710 Eh           -9877.91474 eV

Components:
Nuclear Repulsion  :        318.29549017480576 Eh            8661.26062 eV
Electronic Energy  :       -681.20834866522080 Eh          -18536.62155 eV
One Electron Energy:      -1125.42090738535990 Eh          -30624.25980 eV
Two Electron Energy:        444.21255872013910 Eh           12087.63825 eV
CPCM Dielectric    :         -0.09385013687862 Eh              -2.55379 eV

Virial components:
Potential Energy   :       -724.08343762177105 Eh          -19703.31203 eV
Kinetic Energy     :        361.07672849444396 Eh            9825.39730 eV
Virial Ratio       :          2.00534507067495

DFT components:
N(Alpha)           :       28.000007137343 electrons
N(Beta)            :       28.000007137343 electrons
N(Total)           :       56.000014274685 electrons
E(X)               :      -37.336497052298 Eh       
E(C)               :       -2.234860539513 Eh       
E(XC)              :      -39.571357591811 Eh       

CPCM Solvation Model Properties:
Surface-charge          :         -0.02189049330446
Corrected charge        :         -0.00000000000000
Outlying charge corr.   :          0.00003765536539 Eh               0.00102 eV
Free-energy (cav+disp)  :  This term is not implemented in the current solvation scheme

---------------
SCF CONVERGENCE
---------------

  Last Energy change         ...    2.7271e-08  Tolerance :   1.0000e-08
  Last MAX-Density change    ...    5.8745e-05  Tolerance :   1.0000e-07
  Last RMS-Density change    ...    5.0628e-07  Tolerance :   5.0000e-09
  Last DIIS Error            ...    2.4388e-03  Tolerance :   5.0000e-07
  Last Orbital Gradient      ...    7.4597e-07  Tolerance :   1.0000e-05
  Last Orbital Rotation      ...    1.3766e-06  Tolerance :   1.0000e-05


----------------
ORBITAL ENERGIES
----------------

  NO   OCC          E(Eh)            E(eV) 
   0   2.0000     -19.063209      -518.7363 
   1   2.0000     -19.045887      -518.2649 
   2   2.0000     -14.432857      -392.7380 
   3   2.0000     -10.246016      -278.8083 
   4   2.0000     -10.229576      -278.3609 
   5   2.0000     -10.183307      -277.1019 
   6   2.0000     -10.166763      -276.6517 
   7   2.0000      -1.019789       -27.7499 
   8   2.0000      -0.996510       -27.1164 
   9   2.0000      -0.897584       -24.4245 
  10   2.0000      -0.789731       -21.4897 
  11   2.0000      -0.707177       -19.2433 
  12   2.0000      -0.618381       -16.8270 
  13   2.0000      -0.579586       -15.7713 
  14   2.0000      -0.568921       -15.4811 
  15   2.0000      -0.497384       -13.5345 
  16   2.0000      -0.495832       -13.4923 
  17   2.0000      -0.448452       -12.2030 
  18   2.0000      -0.433835       -11.8052 
  19   2.0000      -0.418275       -11.3818 
  20   2.0000      -0.393970       -10.7205 
  21   2.0000      -0.383651       -10.4397 
  22   2.0000      -0.370948       -10.0940 
  23   2.0000      -0.342208        -9.3120 
  24   2.0000      -0.333335        -9.0705 
  25   2.0000      -0.243504        -6.6261 
  26   2.0000      -0.241734        -6.5779 
  27   2.0000      -0.216597        -5.8939 
  28   0.0000       0.012782         0.3478 
  29   0.0000       0.034578         0.9409 
  30   0.0000       0.064031         1.7424 
  31   0.0000       0.064325         1.7504 
  32   0.0000       0.069730         1.8974 
  33   0.0000       0.089229         2.4280 
  34   0.0000       0.106482         2.8975 
  35   0.0000       0.117560         3.1990 
  36   0.0000       0.121952         3.3185 
  37   0.0000       0.127206         3.4615 
  38   0.0000       0.135909         3.6983 
*Only the first 10 virtual orbitals were printed.

                    ********************************
                    * MULLIKEN POPULATION ANALYSIS *
                    ********************************

-----------------------
MULLIKEN ATOMIC CHARGES
-----------------------
   0 N :   -0.250614
   1 C :   -0.168555
   2 C :   -0.202050
   3 C :   -0.128523
   4 C :    0.146911
   5 O :   -0.675006
   6 O :   -0.481255
   7 H :    0.339968
   8 H :    0.335217
   9 H :    0.165399
  10 H :    0.165457
  11 H :    0.127300
  12 H :    0.116810
  13 H :    0.080629
  14 H :    0.113363
  15 H :    0.314950
Sum of atomic charges:   -0.0000000

--------------------------------
MULLIKEN REDUCED ORBITAL CHARGES
--------------------------------
  0 N s       :     3.445411  s :     3.445411
      pz      :     1.262641  p :     3.757380
      px      :     1.246049
      py      :     1.248689
      dz2     :     0.013114  d :     0.045537
      dxz     :     0.005725
      dyz     :     0.006248
      dx2y2   :     0.014053
      dxy     :     0.006397
      f0      :     0.000260  f :     0.002286
      f+1     :     0.000547
      f-1     :     0.000194
      f+2     :     0.000392
      f-2     :     0.000177
      f+3     :     0.000161
      f-3     :     0.000554

  1 C s       :     3.263545  s :     3.263545
      pz      :     0.914762  p :     2.795568
      px      :     0.921439
      py      :     0.959367
      dz2     :     0.021701  d :     0.101276
      dxz     :     0.017481
      dyz     :     0.027611
      dx2y2   :     0.016379
      dxy     :     0.018103
      f0      :     0.001242  f :     0.008167
      f+1     :     0.001279
      f-1     :     0.001118
      f+2     :     0.001308
      f-2     :     0.001482
      f+3     :     0.000658
      f-3     :     0.001080

  2 C s       :     3.235213  s :     3.235213
      pz      :     0.884664  p :     2.871365
      px      :     1.019076
      py      :     0.967624
      dz2     :     0.028734  d :     0.089708
      dxz     :     0.014269
      dyz     :     0.019152
      dx2y2   :     0.006448
      dxy     :     0.021106
      f0      :     0.001112  f :     0.005765
      f+1     :     0.000544
      f-1     :     0.001379
      f+2     :     0.000579
      f-2     :     0.001208
      f+3     :     0.000285
      f-3     :     0.000657

  3 C s       :     3.175428  s :     3.175428
      pz      :     0.981625  p :     2.872537
      px      :     0.963657
      py      :     0.927255
      dz2     :     0.016960  d :     0.074921
      dxz     :     0.008338
      dyz     :     0.011033
      dx2y2   :     0.014986
      dxy     :     0.023604
      f0      :     0.000480  f :     0.005637
      f+1     :     0.000324
      f-1     :     0.001314
      f+2     :     0.000453
      f-2     :     0.001018
      f+3     :     0.000882
      f-3     :     0.001167

  4 C s       :     3.068969  s :     3.068969
      pz      :     0.777917  p :     2.545685
      px      :     0.915937
      py      :     0.851831
      dz2     :     0.013606  d :     0.214090
      dxz     :     0.040332
      dyz     :     0.042466
      dx2y2   :     0.059862
      dxy     :     0.057824
      f0      :     0.001927  f :     0.024345
      f+1     :     0.001480
      f-1     :     0.001311
      f+2     :     0.003702
      f-2     :     0.001621
      f+3     :     0.007999
      f-3     :     0.006305

  5 O s       :     3.805372  s :     3.805372
      pz      :     1.609522  p :     4.845354
      px      :     1.839998
      py      :     1.395835
      dz2     :     0.002726  d :     0.022921
      dxz     :     0.000421
      dyz     :     0.005951
      dx2y2   :     0.008455
      dxy     :     0.005369
      f0      :     0.000110  f :     0.001358
      f+1     :     0.000027
      f-1     :     0.000190
      f+2     :     0.000209
      f-2     :     0.000062
      f+3     :     0.000347
      f-3     :     0.000414

  6 O s       :     3.744934  s :     3.744934
      pz      :     1.523702  p :     4.706905
      px      :     1.415638
      py      :     1.767565
      dz2     :     0.002592  d :     0.027622
      dxz     :     0.008345
      dyz     :     0.001102
      dx2y2   :     0.007901
      dxy     :     0.007683
      f0      :     0.000175  f :     0.001793
      f+1     :     0.000179
      f-1     :     0.000047
      f+2     :     0.000272
      f-2     :     0.000161
      f+3     :     0.000515
      f-3     :     0.000444

  7 H s       :     0.628468  s :     0.628468
      pz      :     0.018347  p :     0.031564
      px      :     0.007465
      py      :     0.005753

  8 H s       :     0.632947  s :     0.632947
      pz      :     0.005696  p :     0.031836
      px      :     0.018321
      py      :     0.007819

  9 H s       :     0.813663  s :     0.813663
      pz      :     0.005998  p :     0.020938
      px      :     0.003999
      py      :     0.010941

 10 H s       :     0.813732  s :     0.813732
      pz      :     0.003897  p :     0.020811
      px      :     0.012002
      py      :     0.004912

 11 H s       :     0.851462  s :     0.851462
      pz      :     0.005428  p :     0.021238
      px      :     0.007422
      py      :     0.008388

 12 H s       :     0.862036  s :     0.862036
      pz      :     0.003749  p :     0.021154
      px      :     0.010954
      py      :     0.006451

 13 H s       :     0.898122  s :     0.898122
      pz      :     0.004203  p :     0.021249
      px      :     0.011029
      py      :     0.006017

 14 H s       :     0.865339  s :     0.865339
      pz      :     0.011524  p :     0.021299
      px      :     0.004392
      py      :     0.005383

 15 H s       :     0.651804  s :     0.651804
      pz      :     0.008430  p :     0.033246
      px      :     0.005594
      py      :     0.019221



                     *******************************
                     * LOEWDIN POPULATION ANALYSIS *
                     *******************************

----------------------
LOEWDIN ATOMIC CHARGES
----------------------
   0 N :    0.179048
   1 C :   -0.264813
   2 C :   -0.257769
   3 C :   -0.252575
   4 C :   -0.663243
   5 O :   -0.287810
   6 O :   -0.061805
   7 H :    0.241010
   8 H :    0.238537
   9 H :    0.155209
  10 H :    0.153943
  11 H :    0.155383
  12 H :    0.143430
  13 H :    0.142505
  14 H :    0.155613
  15 H :    0.223337

-------------------------------
LOEWDIN REDUCED ORBITAL CHARGES
-------------------------------
  0 N s       :     2.983037  s :     2.983037
      pz      :     1.219352  p :     3.668887
      px      :     1.225885
      py      :     1.223651
      dz2     :     0.042247  d :     0.158830
      dxz     :     0.022011
      dyz     :     0.023804
      dx2y2   :     0.045036
      dxy     :     0.025731
      f0      :     0.000911  f :     0.010198
      f+1     :     0.002273
      f-1     :     0.001042
      f+2     :     0.002035
      f-2     :     0.001019
      f+3     :     0.000922
      f-3     :     0.001996

  1 C s       :     2.804254  s :     2.804254
      pz      :     1.002439  p :     2.977189
      px      :     0.983060
      py      :     0.991690
      dz2     :     0.091370  d :     0.432621
      dxz     :     0.081426
      dyz     :     0.110798
      dx2y2   :     0.069882
      dxy     :     0.079145
      f0      :     0.008043  f :     0.050749
      f+1     :     0.008162
      f-1     :     0.006555
      f+2     :     0.008818
      f-2     :     0.008125
      f+3     :     0.004482
      f-3     :     0.006563

  2 C s       :     2.794014  s :     2.794014
      pz      :     0.998867  p :     3.046070
      px      :     1.031438
      py      :     1.015765
      dz2     :     0.105599  d :     0.381215
      dxz     :     0.064532
      dyz     :     0.088393
      dx2y2   :     0.033971
      dxy     :     0.088720
      f0      :     0.007226  f :     0.036470
      f+1     :     0.004965
      f-1     :     0.006851
      f+2     :     0.004709
      f-2     :     0.006355
      f+3     :     0.002245
      f-3     :     0.004119

  3 C s       :     2.792897  s :     2.792897
      pz      :     1.010072  p :     3.059429
      px      :     1.023231
      py      :     1.026126
      dz2     :     0.082283  d :     0.363106
      dxz     :     0.039832
      dyz     :     0.072674
      dx2y2   :     0.067843
      dxy     :     0.100474
      f0      :     0.003577  f :     0.037143
      f+1     :     0.004090
      f-1     :     0.006695
      f+2     :     0.004593
      f-2     :     0.006062
      f+3     :     0.004996
      f-3     :     0.007130

  4 C s       :     2.787374  s :     2.787374
      pz      :     0.755718  p :     2.744798
      px      :     1.022810
      py      :     0.966269
      dz2     :     0.070208  d :     0.975772
      dxz     :     0.145022
      dyz     :     0.141147
      dx2y2   :     0.293904
      dxy     :     0.325491
      f0      :     0.008327  f :     0.155299
      f+1     :     0.010245
      f-1     :     0.010054
      f+2     :     0.026951
      f-2     :     0.010073
      f+3     :     0.050172
      f-3     :     0.039477

  5 O s       :     3.499591  s :     3.499591
      pz      :     1.532372  p :     4.736330
      px      :     1.743599
      py      :     1.460359
      dz2     :     0.006364  d :     0.048134
      dxz     :     0.000844
      dyz     :     0.008976
      dx2y2   :     0.018823
      dxy     :     0.013126
      f0      :     0.000266  f :     0.003755
      f+1     :     0.000107
      f-1     :     0.000593
      f+2     :     0.000372
      f-2     :     0.000159
      f+3     :     0.001085
      f-3     :     0.001174

  6 O s       :     3.404353  s :     3.404353
      pz      :     1.428121  p :     4.585689
      px      :     1.512760
      py      :     1.644808
      dz2     :     0.007432  d :     0.065734
      dxz     :     0.012711
      dyz     :     0.001998
      dx2y2   :     0.022666
      dxy     :     0.020926
      f0      :     0.000459  f :     0.006030
      f+1     :     0.000809
      f-1     :     0.000216
      f+2     :     0.000534
      f-2     :     0.000387
      f+3     :     0.001830
      f-3     :     0.001795

  7 H s       :     0.664867  s :     0.664867
      pz      :     0.054431  p :     0.094123
      px      :     0.023325
      py      :     0.016367

  8 H s       :     0.666906  s :     0.666906
      pz      :     0.015842  p :     0.094557
      px      :     0.054095
      py      :     0.024621

  9 H s       :     0.787442  s :     0.787442
      pz      :     0.016521  p :     0.057350
      px      :     0.011254
      py      :     0.029574

 10 H s       :     0.788204  s :     0.788204
      pz      :     0.011541  p :     0.057852
      px      :     0.031165
      py      :     0.015146

 11 H s       :     0.788382  s :     0.788382
      pz      :     0.014668  p :     0.056235
      px      :     0.021133
      py      :     0.020433

 12 H s       :     0.799176  s :     0.799176
      pz      :     0.011320  p :     0.057394
      px      :     0.029436
      py      :     0.016638

 13 H s       :     0.801656  s :     0.801656
      pz      :     0.011728  p :     0.055838
      px      :     0.027763
      py      :     0.016348

 14 H s       :     0.787922  s :     0.787922
      pz      :     0.027737  p :     0.056465
      px      :     0.013100
      py      :     0.015628

 15 H s       :     0.678111  s :     0.678111
      pz      :     0.025514  p :     0.098553
      px      :     0.016060
      py      :     0.056979



                      *****************************
                      * MAYER POPULATION ANALYSIS *
                      *****************************

  NA   - Mulliken gross atomic population
  ZA   - Total nuclear charge
  QA   - Mulliken gross atomic charge
  VA   - Mayer's total valence
  BVA  - Mayer's bonded valence
  FA   - Mayer's free valence

  ATOM       NA         ZA         QA         VA         BVA        FA
  0 N      7.2506     7.0000    -0.2506     3.5013     3.5013     0.0000
  1 C      6.1686     6.0000    -0.1686     3.8580     3.8580    -0.0000
  2 C      6.2021     6.0000    -0.2021     3.8693     3.8693    -0.0000
  3 C      6.1285     6.0000    -0.1285     3.6014     3.6014     0.0000
  4 C      5.8531     6.0000     0.1469     4.6315     4.6315     0.0000
  5 O      8.6750     8.0000    -0.6750     1.7231     1.7231    -0.0000
  6 O      8.4813     8.0000    -0.4813     1.9057     1.9057    -0.0000
  7 H      0.6600     1.0000     0.3400     0.8801     0.8801     0.0000
  8 H      0.6648     1.0000     0.3352     0.8909     0.8909    -0.0000
  9 H      0.8346     1.0000     0.1654     0.9576     0.9576    -0.0000
 10 H      0.8345     1.0000     0.1655     0.9604     0.9604    -0.0000
 11 H      0.8727     1.0000     0.1273     0.9645     0.9645    -0.0000
 12 H      0.8832     1.0000     0.1168     0.9914     0.9914    -0.0000
 13 H      0.9194     1.0000     0.0806     1.0038     1.0038     0.0000
 14 H      0.8866     1.0000     0.1134     0.9751     0.9751    -0.0000
 15 H      0.6850     1.0000     0.3150     0.9278     0.9278     0.0000

  Mayer bond orders larger than 0.100000
B(  0-N ,  1-C ) :   0.9161 B(  0-N ,  7-H ) :   0.8676 B(  0-N ,  8-H ) :   0.8631 
B(  0-N , 15-H ) :   0.8538 B(  1-C ,  2-C ) :   0.9857 B(  1-C ,  9-H ) :   0.9601 
B(  1-C , 10-H ) :   0.9565 B(  2-C ,  3-C ) :   0.9551 B(  2-C , 11-H ) :   0.9575 
B(  2-C , 12-H ) :   0.9588 B(  3-C ,  4-C ) :   0.9351 B(  3-C ,  5-O ) :  -0.1048 
B(  3-C , 13-H ) :   0.9521 B(  3-C , 14-H ) :   0.9345 B(  4-C ,  5-O ) :   1.7349 
B(  4-C ,  6-O ) :   1.9182 

-------
TIMINGS
-------

Total SCF time: 0 days 0 hours 0 min 14 sec 

Total time                  ....      14.548 sec
Sum of individual times     ....      14.491 sec  ( 99.6%)

SCF preparation             ....       0.330 sec  (  2.3%)
Fock matrix formation       ....      13.762 sec  ( 94.6%)
  Startup                   ....       0.023 sec  (  0.2% of F)
  Split-RI-J                ....       0.975 sec  (  7.1% of F)
  Chain of spheres X        ....       9.358 sec  ( 68.0% of F)
  XC integration            ....       2.011 sec  ( 14.6% of F)
    XC Preparation          ....       0.000 sec  (  0.0% of XC)
    Basis function eval.    ....       0.574 sec  ( 28.5% of XC)
    Density eval.           ....       0.458 sec  ( 22.7% of XC)
    XC-Functional eval.     ....       0.090 sec  (  4.5% of XC)
    XC-Potential eval.      ....       0.767 sec  ( 38.1% of XC)
  CPCM terms                ....       1.311 sec  (  9.5% of F)
Diagonalization             ....       0.000 sec  (  0.0%)
Density matrix formation    ....       0.051 sec  (  0.4%)
Total Energy calculation    ....       0.035 sec  (  0.2%)
Population analysis         ....       0.018 sec  (  0.1%)
Orbital Transformation      ....       0.033 sec  (  0.2%)
Orbital Orthonormalization  ....       0.000 sec  (  0.0%)
DIIS solution               ....       0.157 sec  (  1.1%)
SOSCF solution              ....       0.105 sec  (  0.7%)
Finished LeanSCF after  14.6 sec

Maximum memory used throughout the entire LEANSCF-calculation: 28.0 MB


-------------------------------------------------------------------------------
                          DFT DISPERSION CORRECTION                            
                                                                               
                                DFTD4 V3.4.0                                   
-------------------------------------------------------------------------------
The B3LYP functional is recognized
Active option DFTDOPT                   ...         5   

-------------------------   ----------------
Dispersion correction           -0.019561043
-------------------------   ----------------


-------------------------   --------------------
FINAL SINGLE POINT ENERGY      -363.026270170812
-------------------------   --------------------

--------------------------------------------------------------------------
WARNING: There was an error initializing an OpenFabrics device.

  Local host:   ga02
  Local device: mlx5_0
--------------------------------------------------------------------------


           ************************************************************
           *        Program running with 6 parallel MPI-processes     *
           *              working on a common directory               *
           ************************************************************
------------------------------------------------------------------------------
                         ORCA SCF GRADIENT CALCULATION
------------------------------------------------------------------------------

Nuc. rep. gradient        (SHARK) ... done (  0.0 sec)
HCore & Overlap gradient  (SHARK) ... done (  0.1 sec)
Split-RIJ-J gradient      (SHARK) ... done (  0.4 sec)
COSX-gradient                     ... [ga02:1507001] 5 more processes have sent help message help-mpi-btl-openib.txt / error in device init
[ga02:1507001] Set MCA parameter "orte_base_help_aggregate" to 0 to see all help / error messages
done (  5.8 sec)
XC gradient                       ... done (  0.8 sec)
CPCM gradient                     ... done (  0.4 sec)
Dispersion correction             ... done (  0.0 sec)

-------------------
DISPERSION GRADIENT
-------------------

   1   N   :    0.000191855    0.000105391    0.000891620
   2   C   :    0.000384395    0.000332622    0.000381047
   3   C   :    0.000212666    0.000490633   -0.000127144
   4   C   :    0.000094354    0.000044714   -0.000545814
   5   C   :   -0.000303349   -0.000357249   -0.000397368
   6   O   :   -0.000148736   -0.000669830   -0.000271346
   7   O   :   -0.000669942   -0.000199264   -0.000327811
   8   H   :    0.000064266   -0.000044482    0.000287138
   9   H   :   -0.000143966    0.000065390    0.000198775
  10   H   :    0.000048689    0.000058561    0.000092795
  11   H   :    0.000115163    0.000033305    0.000114346
  12   H   :    0.000081406    0.000148110   -0.000068020
  13   H   :   -0.000023855    0.000150463   -0.000031892
  14   H   :    0.000095370   -0.000054082   -0.000160595
  15   H   :    0.000001038    0.000040258   -0.000158920
  16   H   :    0.000000645   -0.000144539    0.000123188

Difference to translation invariance:
           :   -0.0000000000   -0.0000000000   -0.0000000000

Difference to rotation invariance:
           :   -0.0000000000    0.0000000000    0.0000000000

Norm of the Dispersion gradient    ...    0.0019309281
RMS gradient                       ...    0.0002787055
MAX gradient                       ...    0.0008916201

------------------
CARTESIAN GRADIENT
------------------

   1   N   :    0.007648065    0.012657790   -0.018752376
   2   C   :   -0.022404694   -0.029394820    0.021294142
   3   C   :   -0.002319491   -0.006323333    0.003618114
   4   C   :   -0.017115856   -0.003137661    0.007169781
   5   C   :   -0.013081501    0.090303345   -0.006217941
   6   O   :   -0.006482661   -0.060017307    0.005358905
   7   O   :    0.029399894   -0.026989696   -0.002824256
   8   H   :    0.011573585    0.000566752    0.015055956
   9   H   :   -0.014791725    0.012263175   -0.000307282
  10   H   :    0.002535760    0.014582284    0.003565490
  11   H   :    0.014508610   -0.002283282   -0.004396885
  12   H   :    0.008493904    0.005404627   -0.008108355
  13   H   :   -0.010181452    0.005757074    0.000273277
  14   H   :    0.010867561   -0.005710514   -0.000629784
  15   H   :   -0.003519213    0.004051311   -0.009627125
  16   H   :    0.004869216   -0.011729744   -0.005471661

Difference to translation invariance:
           :   -0.0000000000   -0.0000000000    0.0000000000

Difference to rotation invariance:
           :    0.0008047531    0.0004089398    0.0010603715

Norm of the Cartesian gradient     ...    0.1356666144
RMS gradient                       ...    0.0195817891
MAX gradient                       ...    0.0903033447

-------
TIMINGS
-------

Total SCF gradient time     ....        7.462 sec

Densities                   ....       0.001 sec  (  0.0%)
One electron gradient       ....       0.056 sec  (  0.8%)
RI-J Coulomb gradient       ....       0.364 sec  (  4.9%)
COSX gradient               ....       5.801 sec  ( 77.7%)
XC gradient                 ....       0.799 sec  ( 10.7%)
CPCM gradient               ....       0.415 sec  (  5.6%)
   A-Matrix (El+Nuc)        ....       0.054 sec  (  0.7%)
   Potential                ....       0.361 sec  (  4.8%)

Maximum memory used throughout the entire SCFGRAD-calculation: 35.6 MB
------------------------------------------------------------------------------
                         ORCA GEOMETRY RELAXATION STEP
------------------------------------------------------------------------------

Reading the OPT-File                    .... done
Getting information on internals        .... done
Copying old internal coords+grads       .... done
Making the new internal coordinates     .... (2022 redundants) done
Validating the new internal coordinates .... (2022 redundants) done
Calculating the B-matrix                .... done
Calculating the G,G- and P matrices     .... done
Transforming gradient to internals      .... done
Projecting the internal gradient        .... done
Number of atoms                         ....  16
Number of internal coordinates          ....  65
Current Energy                          ....  -363.026270171 Eh
Current gradient norm                   ....     0.135666614 Eh/bohr
Maximum allowed component of the step   ....  0.300
Current trust radius                    ....  0.300
Evaluating the initial hessian          ....  (Almloef) done
Projecting the Hessian                  .... done
Forming the augmented Hessian           .... done
Diagonalizing the augmented Hessian     .... done
Last element of RFO vector              ....  0.954683276
Lowest eigenvalues of augmented Hessian:
 -0.019543954  0.010249881  0.010451581  0.012760368  0.014261201
Length of the computed step             ....  0.311751204
Warning: the length of the step is outside the trust region - taking restricted step instead
The input lambda is                     ....     0.009192
   iter:   5  x=   -0.005144  g=   59.614391 f(x)=     0.323643
   iter:  10  x=   -0.021725  g=    3.012461 f(x)=     0.000037
The output lambda is                    ....    -0.021725 (12 iterations)
The final length of the internal step   ....  0.300000000
Converting the step to Cartesian space:
 Initial RMS(Int)=    0.0372104204
Transforming coordinates:
 Iter   0:  RMS(Cart)=    0.1162162900 RMS(Int)=    1.0948506662
 Iter   5:  RMS(Cart)=    0.0000011088 RMS(Int)=    0.0000009416
done
Storing new coordinates                 .... done

                                .--------------------.
          ----------------------|Geometry convergence|-------------------------
          Item                value                   Tolerance       Converged
          ---------------------------------------------------------------------
          RMS gradient        0.0118122360            0.0000300000      NO
          MAX gradient        0.0573544787            0.0001000000      NO
          RMS step            0.0372104204            0.0006000000      NO
          MAX step            0.1148527600            0.0010000000      NO
          ........................................................
          Max(Bonds)      0.0448      Max(Angles)    3.48
          Max(Dihed)        6.58      Max(Improp)    0.00
          ---------------------------------------------------------------------

The optimization has not yet converged - more geometry cycles are needed


    ---------------------------------------------------------------------------
                         Redundant Internal Coordinates
                            (Angstroem and degrees)

        Definition                    Value    dE/dq     Step     New-Value
    ----------------------------------------------------------------------------
     1. B(C   1,N   0)                1.4634 -0.018780  0.0221    1.4856   
     2. B(C   2,C   1)                1.5430  0.012093 -0.0169    1.5261   
     3. B(C   3,C   2)                1.5395  0.005577 -0.0077    1.5318   
     4. B(C   4,C   3)                1.5013 -0.010087  0.0122    1.5135   
     5. B(O   5,C   4)                1.3469  0.057354 -0.0448    1.3021   
     6. B(O   6,C   4)                1.2209 -0.036424  0.0181    1.2390   
     7. B(H   7,N   0)                1.0457  0.018187 -0.0240    1.0217   
     8. B(H   8,N   0)                1.0458  0.018513 -0.0244    1.0213   
     9. B(H   9,C   1)                1.1130  0.014550 -0.0218    1.0911   
    10. B(H  10,C   1)                1.1124  0.014399 -0.0216    1.0908   
    11. B(H  11,C   2)                1.1120  0.012272 -0.0184    1.0937   
    12. B(H  12,C   2)                1.1119  0.011628 -0.0174    1.0945   
    13. B(H  13,C   3)                1.1116  0.012289 -0.0184    1.0933   
    14. B(H  14,C   3)                1.1116  0.010973 -0.0164    1.0952   
    15. B(H  15,N   0)                1.0422  0.012583 -0.0164    1.0258   
    16. A(H   8,N   0,H  15)          110.63  0.006342   -1.48    109.15   
    17. A(H   7,N   0,H   8)          108.70  0.004854   -0.74    107.97   
    18. A(C   1,N   0,H   8)          110.38 -0.004227    0.60    110.98   
    19. A(C   1,N   0,H  15)          110.98 -0.002753    0.44    111.42   
    20. A(C   1,N   0,H   7)          108.70 -0.006831    1.33    110.03   
    21. A(H   7,N   0,H  15)          107.36  0.002741   -0.16    107.20   
    22. A(H   9,C   1,H  10)          107.67 -0.000003    0.44    108.11   
    23. A(C   2,C   1,H  10)          110.10 -0.004356    0.43    110.52   
    24. A(N   0,C   1,H  10)          109.91  0.003510   -1.39    108.52   
    25. A(C   2,C   1,H   9)          107.18 -0.005557    1.69    108.87   
    26. A(N   0,C   1,C   2)          113.62  0.005559   -1.04    112.59   
    27. A(N   0,C   1,H   9)          108.13  0.000444    0.03    108.16   
    28. A(C   1,C   2,H  11)          106.25 -0.002052    0.47    106.73   
    29. A(C   3,C   2,H  12)          110.19 -0.002695    0.13    110.32   
    30. A(C   1,C   2,H  12)          110.24 -0.003002   -0.18    110.05   
    31. A(C   3,C   2,H  11)          106.50 -0.007305    1.89    108.39   
    32. A(C   1,C   2,C   3)          115.85  0.013075   -2.15    113.69   
    33. A(H  11,C   2,H  12)          107.35  0.001133    0.08    107.43   
    34. A(H  13,C   3,H  14)          107.92  0.001629   -0.08    107.84   
    35. A(C   2,C   3,C   4)          113.87  0.007741   -1.26    112.60   
    36. A(C   4,C   3,H  14)          107.03 -0.002784    0.68    107.71   
    37. A(C   2,C   3,H  14)          108.06 -0.003167    0.76    108.82   
    38. A(C   4,C   3,H  13)          110.35 -0.001897   -0.02    110.33   
    39. A(C   2,C   3,H  13)          109.40 -0.001796    0.01    109.41   
    40. A(O   5,C   4,O   6)          119.64 -0.028596    3.48    123.12   
    41. A(C   3,C   4,O   6)          120.28  0.009024   -0.92    119.36   
    42. A(C   3,C   4,O   5)          120.07  0.019471   -2.39    117.68   
    43. D(H   9,C   1,N   0,H   8)     65.95 -0.002361    0.34     66.28   
    44. D(H   9,C   1,N   0,H   7)    -53.19 -0.001582    0.06    -53.13   
[...]
      py      :     1.251202
      dz2     :     0.017520  d :     0.149289
      dxz     :     0.040080
      dyz     :     0.038914
      dx2y2   :     0.017201
      dxy     :     0.035574
      f0      :     0.001476  f :     0.009907
      f+1     :     0.001455
      f-1     :     0.001339
      f+2     :     0.000985
      f-2     :     0.001870
      f+3     :     0.001415
      f-3     :     0.001367

  1 C s       :     2.799262  s :     2.799262
      pz      :     0.986169  p :     2.972246
      px      :     0.985503
      py      :     1.000574
      dz2     :     0.086881  d :     0.431960
      dxz     :     0.089520
      dyz     :     0.107921
      dx2y2   :     0.051607
      dxy     :     0.096030
      f0      :     0.008896  f :     0.050297
      f+1     :     0.007767
      f-1     :     0.006073
      f+2     :     0.008993
      f-2     :     0.007954
      f+3     :     0.004729
      f-3     :     0.005886

  2 C s       :     2.781536  s :     2.781536
      pz      :     1.009509  p :     3.054406
      px      :     1.027213
      py      :     1.017685
      dz2     :     0.094643  d :     0.385314
      dxz     :     0.078135
      dyz     :     0.090805
      dx2y2   :     0.041764
      dxy     :     0.079968
      f0      :     0.008339  f :     0.038228
      f+1     :     0.004885
      f-1     :     0.005767
      f+2     :     0.005096
      f-2     :     0.007351
      f+3     :     0.003142
      f-3     :     0.003648

  3 C s       :     2.792125  s :     2.792125
      pz      :     1.019057  p :     3.063254
      px      :     1.029335
      py      :     1.014862
      dz2     :     0.082170  d :     0.355610
      dxz     :     0.039208
      dyz     :     0.083584
      dx2y2   :     0.054431
      dxy     :     0.096217
      f0      :     0.003926  f :     0.035341
      f+1     :     0.004536
      f-1     :     0.006215
      f+2     :     0.004108
      f-2     :     0.005994
      f+3     :     0.004198
      f-3     :     0.006363

  4 C s       :     2.779472  s :     2.779472
      pz      :     0.962100  p :     2.703402
      px      :     0.861206
      py      :     0.880096
      dz2     :     0.318459  d :     0.993716
      dxz     :     0.246409
      dyz     :     0.251758
      dx2y2   :     0.080333
      dxy     :     0.096757
      f0      :     0.046554  f :     0.159022
      f+1     :     0.025811
      f-1     :     0.023777
      f+2     :     0.025667
      f-2     :     0.027273
      f+3     :     0.005010
      f-3     :     0.004931

  5 O s       :     3.417654  s :     3.417654
      pz      :     1.449656  p :     4.611959
      px      :     1.577367
      py      :     1.584936
      dz2     :     0.022991  d :     0.061974
      dxz     :     0.015920
      dyz     :     0.018202
      dx2y2   :     0.001604
      dxy     :     0.003257
      f0      :     0.001859  f :     0.005199
      f+1     :     0.001138
      f-1     :     0.001448
      f+2     :     0.000211
      f-2     :     0.000490
      f+3     :     0.000030
      f-3     :     0.000023

  6 O s       :     3.423787  s :     3.423787
      pz      :     1.561190  p :     4.606477
      px      :     1.502645
      py      :     1.542641
      dz2     :     0.018953  d :     0.060601
      dxz     :     0.016054
      dyz     :     0.014946
      dx2y2   :     0.003817
      dxy     :     0.006831
      f0      :     0.001281  f :     0.005418
      f+1     :     0.001233
      f-1     :     0.001049
      f+2     :     0.000569
      f-2     :     0.001032
      f+3     :     0.000124
      f-3     :     0.000130

  7 H s       :     0.692993  s :     0.692993
      pz      :     0.039076  p :     0.103771
      px      :     0.032279
      py      :     0.032416

  8 H s       :     0.691822  s :     0.691822
      pz      :     0.030405  p :     0.103132
      px      :     0.037808
      py      :     0.034918

  9 H s       :     0.798690  s :     0.798690
      pz      :     0.018115  p :     0.060697
      px      :     0.014340
      py      :     0.028242

 10 H s       :     0.795772  s :     0.795772
      pz      :     0.013289  p :     0.060266
      px      :     0.027732
      py      :     0.019245

 11 H s       :     0.790514  s :     0.790514
      pz      :     0.015708  p :     0.059003
      px      :     0.019297
      py      :     0.023998

 12 H s       :     0.796589  s :     0.796589
      pz      :     0.013571  p :     0.059131
      px      :     0.029490
      py      :     0.016069

 13 H s       :     0.788822  s :     0.788822
      pz      :     0.013382  p :     0.059771
      px      :     0.028846
      py      :     0.017544

 14 H s       :     0.797051  s :     0.797051
      pz      :     0.029049  p :     0.059397
      px      :     0.014317
      py      :     0.016031

 15 H s       :     0.640604  s :     0.640604
      pz      :     0.082614  p :     0.187728
      px      :     0.051497
      py      :     0.053617



                      *****************************
                      * MAYER POPULATION ANALYSIS *
                      *****************************

  NA   - Mulliken gross atomic population
  ZA   - Total nuclear charge
  QA   - Mulliken gross atomic charge
  VA   - Mayer's total valence
  BVA  - Mayer's bonded valence
  FA   - Mayer's free valence

  ATOM       NA         ZA         QA         VA         BVA        FA
  0 N      7.3031     7.0000    -0.3031     3.3700     3.3700    -0.0000
  1 C      6.1410     6.0000    -0.1410     3.8564     3.8564    -0.0000
  2 C      6.1900     6.0000    -0.1900     3.8482     3.8482    -0.0000
  3 C      6.2287     6.0000    -0.2287     3.6817     3.6817    -0.0000
  4 C      5.7318     6.0000     0.2682     4.4810     4.4810    -0.0000
  5 O      8.5596     8.0000    -0.5596     1.7887     1.7887    -0.0000
  6 O      8.5299     8.0000    -0.5299     1.9131     1.9131     0.0000
  7 H      0.6957     1.0000     0.3043     0.9067     0.9067    -0.0000
  8 H      0.6985     1.0000     0.3015     0.9095     0.9095     0.0000
  9 H      0.8483     1.0000     0.1517     0.9626     0.9626    -0.0000
 10 H      0.8506     1.0000     0.1494     0.9652     0.9652    -0.0000
 11 H      0.8774     1.0000     0.1226     0.9647     0.9647    -0.0000
 12 H      0.8799     1.0000     0.1201     0.9686     0.9686    -0.0000
 13 H      0.8861     1.0000     0.1139     0.9745     0.9745    -0.0000
 14 H      0.8945     1.0000     0.1055     0.9933     0.9933    -0.0000
 15 H      0.6850     1.0000     0.3150     0.9800     0.9800    -0.0000

  Mayer bond orders larger than 0.100000
B(  0-N ,  1-C ) :   0.9041 B(  0-N ,  7-H ) :   0.8892 B(  0-N ,  8-H ) :   0.8913 
B(  0-N , 15-H ) :   0.7121 B(  1-C ,  2-C ) :   0.9737 B(  1-C ,  9-H ) :   0.9688 
B(  1-C , 10-H ) :   0.9653 B(  2-C ,  3-C ) :   0.9331 B(  2-C , 11-H ) :   0.9562 
B(  2-C , 12-H ) :   0.9678 B(  3-C ,  4-C ) :   0.9591 B(  3-C , 13-H ) :   0.9390 
B(  3-C , 14-H ) :   0.9595 B(  4-C ,  5-O ) :   1.5665 B(  4-C ,  6-O ) :   1.9043 
B(  5-O , 15-H ) :   0.2525 

-------
TIMINGS
-------

Total SCF time: 0 days 0 hours 0 min 6 sec 

Total time                  ....       6.664 sec
Sum of individual times     ....       6.626 sec  ( 99.4%)

SCF preparation             ....       0.364 sec  (  5.5%)
Fock matrix formation       ....       6.066 sec  ( 91.0%)
  Startup                   ....       0.011 sec  (  0.2% of F)
  Split-RI-J                ....       0.297 sec  (  4.9% of F)
  Chain of spheres X        ....       4.690 sec  ( 77.3% of F)
  XC integration            ....       0.645 sec  ( 10.6% of F)
    Basis function eval.    ....       0.175 sec  ( 27.1% of XC)
    Density eval.           ....       0.154 sec  ( 23.8% of XC)
    XC-Functional eval.     ....       0.028 sec  (  4.3% of XC)
    XC-Potential eval.      ....       0.233 sec  ( 36.1% of XC)
  CPCM terms                ....       0.400 sec  (  6.6% of F)
Diagonalization             ....       0.000 sec  (  0.0%)
Density matrix formation    ....       0.016 sec  (  0.2%)
Total Energy calculation    ....       0.014 sec  (  0.2%)
Population analysis         ....       0.073 sec  (  1.1%)
Orbital Transformation      ....       0.016 sec  (  0.2%)
Orbital Orthonormalization  ....       0.000 sec  (  0.0%)
DIIS solution               ....       0.023 sec  (  0.3%)
SOSCF solution              ....       0.055 sec  (  0.8%)
Finished LeanSCF after   6.8 sec

Maximum memory used throughout the entire LEANSCF-calculation: 31.0 MB


-------------------------------------------------------------------------------
                          DFT DISPERSION CORRECTION                            
                                                                               
                                DFTD4 V3.4.0                                   
-------------------------------------------------------------------------------
The B3LYP functional is recognized
Active option DFTDOPT                   ...         5   

-------------------------   ----------------
Dispersion correction           -0.019628497
-------------------------   ----------------


-------------------------   --------------------
FINAL SINGLE POINT ENERGY      -363.052686857653
-------------------------   --------------------

                                *** OPTIMIZATION RUN DONE ***

--------------------------------------------------------------------------
WARNING: There was an error initializing an OpenFabrics device.

  Local host:   ga02
  Local device: mlx5_0
--------------------------------------------------------------------------


           ************************************************************
           *        Program running with 6 parallel MPI-processes     *
           *              working on a common directory               *
           ************************************************************

------------------------------------------------------------------------------
                              ORCA PROPERTY CALCULATIONS
------------------------------------------------------------------------------

GBWName                                 ... 07_Aminobutyric-acid_zwitterion.gbw
Number of atoms                         ...     16
Number of basis functions               ...    271
Max core memory                         ...   5000 MB

Electric properties:
Dipole moment                           ... YES
Quadrupole moment                       ...  NO
Static polarizability (Dipole/Dipole)   ...  NO
Static polarizability (Dipole/Quad.)    ...  NO
Static polarizability (Quad./Quad.)     ...  NO
Static polarizability (Velocity)        ...  NO

Atomic electric properties:
Dipole moment                           ...  NO
Quadrupole moment                       ...  NO
Static polarizability                   ...  NO

Choice of electric origin               ... Center of mass
Position of electric origin             ...    -0.277396     1.609065    -3.009334

General magnetic properties:
Magnetizability                         ...  NO

EPR properties:
g-Tensor (aka g-matrix)                 ...  NO
Zero-Field splitting spin-orbit         ...  NO
Zero-field splitting spin-spin          ...  NO
Hyperfine couplings                     ...  NO (   0 nuclei)
Quadrupole couplings                    ...  NO (   0 nuclei)
Contact density                         ...  NO (   0 nuclei)

NMR properties:
Chemical shifts                         ...  NO (   0 nuclei)
Spin-rotation constants                 ...  NO (   0 nuclei)
Spin-spin couplings                     ...  NO (   0 nuclei,    0 pairs)

Choice of magnetic origin               ... GIAO
Position of magnetic origin             ...     0.000000     0.000000     0.000000

Properties with geometric perturbations:
SCF Hessian                             ...  NO
IR spectrum                             ...  NO
VCD spectrum                            ...  NO
X-ray spectroscopy properties:
SCF XES/XAS/RIXS spectra                ...  NO


-------------
DIPOLE MOMENT
-------------

Method             : SCF
Type of density    : Electron Density
Multiplicity       :   1
Irrep              :   0
Energy             :  -363.0330583604783783 Eh
Relativity type    : 
Basis              : AO
                                X                 Y                 Z
Electronic contribution:     -3.387064319      -3.955078163      -1.378433422
Nuclear contribution   :      6.319809813       6.828670773       5.580386716
                        -----------------------------------------
Total Dipole Moment    :      2.932745494       2.873592610       4.201953294
                        -----------------------------------------
Magnitude (a.u.)       :      5.874941881
Magnitude (Debye)      :     14.932915523



--------------------
Rotational spectrum 
--------------------
 
Rotational constants in cm-1:             0.159529             0.060089             0.046251 
Rotational constants in MHz :          4782.572530          1801.433040          1386.563595 

Dipole components along the rotational axes: 
x,y,z [a.u.] :     5.870912     0.195374    -0.095721 
x,y,z [Debye]:    14.922673     0.496601    -0.243304 

 

Dipole moment calculation done in   0.0 sec 

Maximum memory used throughout the entire PROP-calculation: 17.2 MB
[ga02:1515351] 5 more processes have sent help message help-mpi-btl-openib.txt / error in device init
[ga02:1515351] Set MCA parameter "orte_base_help_aggregate" to 0 to see all help / error messages
--------------------------------------------------------------------------
WARNING: There was an error initializing an OpenFabrics device.

  Local host:   ga02
  Local device: mlx5_0
--------------------------------------------------------------------------
[ga02:1515379] 5 more processes have sent help message help-mpi-btl-openib.txt / error in device init
[ga02:1515379] Set MCA parameter "orte_base_help_aggregate" to 0 to see all help / error messages

--------------------------------
SUGGESTED CITATIONS FOR THIS RUN
--------------------------------

Below you find a list of papers that are relevant to this ORCA run
We neither can nor want to force you to cite these papers, but we appreciate if you do
You receive ORCA, which is the product of decades of hard work by many enthusiastic individuals, for free
The only thing we kindly ask in return is that you cite our papers,
We deeply appreciate it, if you show your appreciation for ORCA by not just citing the generic ORCA reference.

Please note that relegating all ORCA citations to the supporting information does *not* help us.
SI sections are not indexed - citations you put there will not count into any citation statistics
But we need these citations in order to attract the funding resources that allow us to do what we are doing

Therefore, if you are a happy ORCA user, please consider citing a few of the papers listed below in the main body of your paper

In addition to the list printed below, the program has created the file 07_Aminobutyric-acid_zwitterion.bibtex that contains the list in bibtex format
You can import this file easily into all common literature databanks and citation aid programs


List of essential papers. We consider these as the minimum necessary citations

  1. Neese,F.
     Software update: the ORCA program system, version 5.0
     WIRES Comput. Molec. Sci., 2022 12(1)e1606
     doi.org/10.1002/wcms.1606

List of papers to cite with high priority. The work reported in these papers was absolutely
necessary for this run to complete.
Our perspective: the developers of density functionals and basis sets usually get cited in chemistry papers
Good! But without the algorithms to do something with them, the functionals or basis sets would not do anything.
Hence, in our opinion, the algorithm design and method developments papers are equally worthy of getting cited

  1. Neese,F.
     An improvement of the resolution of the identity approximation for the formation of the Coulomb matrix
     J. Comp. Chem., 2003 24(14)1740-1747
     doi.org/10.1002/jcc.10318
  2. Neese,F.; Wennmohs,F.; Hansen,A.; Becker,U.
     Efficient, approximate and parallel Hartree-Fock and hybrid DFT calculations. A 'chain-of-spheres' algorithm for the Hartree-Fock exchange
     Chem. Phys., 2009 356(1-3)98-109
     doi.org/10.1016/j.chemphys.2008.10.036
  3. Garcia-Rates,M.; Neese,F.
     Effect of the Solute Cavity on the Solvation Energy and its Derivatives within the Framework of the Gaussian Charge Scheme
     J. Comput. Chem., 2020 41 922-939
     doi.org/10.1002/jcc.26139
  4. Helmich-Paris,B.; de Souza,B.; Neese,F.; Izsák,R.
     An improved chain of spheres for exchange algorithm
     J. Chem. Phys., 2021 155 104109
     doi.org/doi: 10.1063/5.0058766.
  5. Neese,F.
     The SHARK Integral Generation and Digestion System
     J. Comp. Chem., 2022  1-16
     doi.org/10.1002/jcc.26942
  6. Caldeweyher,E.; Bannwarth,C.; Grimme,S.
     Extension of the D3 dispersion coefficient model
     J. Chem. Phys., 2017 147 034112
     doi.org/10.1063/1.4993215
  7. Caldeweyher,E.; Ehlert,S.; Hansen,A.; Neugebauer,H.; Spicher,S.; Bannwarth,C.; Grimme,S.
     A generally applicable atomic-charge dependent London dispersion correction
     J. Chem. Phys., 2019 150 154122
     doi.org/10.1063/1.5090222
  8. Caldeweyher,E.; Mewes,J.; Ehlert,S.; Grimme,S.
     Extension and evaluation of the D4 London-dispersion model for periodic systems
     Phys. Chem. Chem. Phys., 2020 22(16)8499-8512
     doi.org/10.1039/D0CP00502A
  9. Wittmann,L.; Gordiy,I.; Friede,M.; Helmich-Paris,B.; Grimme,S.; Hansen,A.; Bursch,M.
     Extension of the D3 and D4 London Dispersion Corrections to the full Actinides Series
     Phys. Chem. Chem. Phys., 2024 26(32)21379-21394
     doi.org/https://doi.org/10.1039/D4CP01514B 

List of suggested additional citations. These are papers that are important in the 'surrounding' of 
of this run, or papers that preceded the highly important papers. If you like your results we are grateful for a citation.

  1. Izsak,R.; Neese,F.
     An overlap fitted chain of spheres exchange method
     J. Chem. Phys., 2011 135 144105
     doi.org/10.1063/1.3646921
  2. Izsak,R.; Hansen,A.; Neese,F.
     The resolution of identity and chain of spheres approximations for the LPNO-CCSD singles Fock term
     Molec. Phys., 2012 110 2413-2417
     doi.org/10.1080/00268976.2012.687466
  3. Neese,F.
     The ORCA program system
     WIRES Comput. Molec. Sci., 2012 2(1)73-78
     doi.org/10.1002/wcms.81
  4. Izsak,R.; Neese,F.; Klopper,W.
     Robust fitting techniques in the chain of spheres approximation to the Fock exchange: The role of the complementary space
     J. Chem. Phys., 2013 139 
     doi.org/10.1063/1.4819264
  5. Neese,F.
     Software update: the ORCA program system, version 4.0
     WIRES Comput. Molec. Sci., 2018 8(1)1-6
     doi.org/10.1002/wcms.1327
  6. Neese,F.; Wennmohs,F.; Becker,U.; Riplinger,C.
     The ORCA quantum chemistry program package
     J. Chem. Phys., 2020 152 Art. No. L224108
     doi.org/10.1063/5.0004608

List of optional additional citations

  1. Neese,F.
     Approximate second-order SCF convergence for spin unrestricted wavefunctions
     Chem. Phys. Lett., 2000 325(1-3)93-98
     doi.org/10.1016/s0009-2614(00)00662-x

Timings for individual modules:

Sum of individual times          ...      491.972 sec (=   8.200 min)
Startup calculation              ...       25.233 sec (=   0.421 min)   5.1 %
SCF iterations                   ...      281.068 sec (=   4.684 min)  57.1 %
Property calculations            ...        0.432 sec (=   0.007 min)   0.1 %
SCF Gradient evaluation          ...      185.113 sec (=   3.085 min)  37.6 %
Geometry relaxation              ...        0.125 sec (=   0.002 min)   0.0 %
                             ****ORCA TERMINATED NORMALLY****
TOTAL RUN TIME: 0 days 0 hours 8 minutes 21 seconds 640 msec
