34
 energy: -56.608782443570 gnorm: 0.176539372476 xtb: 6.7.1 (edcfbbe)
C            0.00071700000000       -0.52255800000000        0.67804400000000
C            0.00015500000000        0.09392700000000        2.05036800000000
O           -0.00019500000000       -0.63013100000000        3.03226200000000
O           -0.00079700000000        1.43155900000000        2.21643300000000
C            0.00098900000000        0.52531100000000       -0.44326000000000
N           -0.00030100000000       -0.11659100000000       -1.75665200000000
H            0.90259300000000       -1.16292800000000        0.57888800000000
H           -0.90264000000000       -1.16023800000000        0.57901700000000
H           -0.90200200000000        1.16741300000000       -0.35103700000000
H            0.90366600000000        1.16894900000000       -0.35172000000000
H           -0.85706900000000       -0.70553200000000       -1.86752300000000
H            0.85322800000000       -0.71006900000000       -1.86779500000000
H            0.00165600000000        0.62088700000000       -2.49702600000000
O            2.77627200000000       -2.92768700000000       -0.92822700000000
H            2.49770800000000       -3.85997500000000       -1.11221200000000
H            3.23579500000000       -2.63806200000000       -1.75621800000000
O            0.89386800000000       -3.43908300000000       -3.84020900000000
H            0.80239800000000       -4.08056200000000       -4.58904100000000
H            1.86776500000000       -3.27261100000000       -3.77369000000000
O            1.86657000000000       -3.42447400000000        2.22462700000000
H            0.97312400000000       -3.25657700000000        1.83197600000000
H            2.36747100000000       -3.89288800000000        1.51027500000000
O           -3.04691000000000        0.18323900000000       -3.17883600000000
H           -3.42701700000000        0.78522500000000       -3.86712500000000
H           -3.50527500000000       -0.68218300000000       -3.32566600000000
O           -0.04848300000000       -5.05042000000000        0.21718400000000
H           -0.68297300000000       -4.52370100000000        0.76545500000000
H            0.66744800000000       -4.40840400000000       -0.01918400000000
O           -1.11033300000000        0.37712700000000       -5.29526400000000
H           -1.95911000000000        0.57750500000000       -5.76434600000000
H           -0.46281200000000        0.19345700000000       -6.02162100000000
O           -0.30237800000000       -1.94261500000000       -6.78317300000000
H            0.28110200000000       -1.84873800000000       -5.98859900000000
H           -1.22116600000000       -1.83196800000000       -6.43075200000000
34
 energy: -56.629358444983 gnorm: 0.085689877112 xtb: 6.7.1 (edcfbbe)
C            0.00399168253549       -0.50649156459620        0.66793403982241
C            0.00440354269076        0.10281982695685        2.06165273700683
O           -0.01225424745447       -0.64349988348121        3.04981193133916
O           -0.00033953556408        1.39160546039422        2.16954281479340
C            0.00025684019453        0.53367899527420       -0.44696693041828
N           -0.00321309465722       -0.11389253127680       -1.76921965197432
H            0.89369979990678       -1.14736659689827        0.59500607286644
H           -0.88735217041627       -1.14371504919070        0.59613991163705
H           -0.88476703553345        1.16986913007375       -0.33955229367526
H            0.88494244274823        1.17034527885067       -0.33777557340313
H           -0.84980054482210       -0.69265346841419       -1.88248923966595
H            0.83156524883670       -0.71131377738633       -1.87516412312523
H           -0.00494153599027        0.60182492893468       -2.51209392820229
O            2.71440967637218       -2.92779356811748       -0.95520135875859
H            2.51495535333224       -3.86414133333849       -1.13425908270537
H            3.25468763728470       -2.64549604063490       -1.71833835182013
O            0.90948271039774       -3.41279145102720       -3.86512179591726
H            0.79474446109721       -4.08014605639475       -4.56287734806828
H            1.86981564426577       -3.28977602767934       -3.79313983895369
O            1.87456114068213       -3.43464122800636        2.22257310283066
H            0.99293856309325       -3.25368780927293        1.85587021685357
H            2.36425466469137       -3.88353767944351        1.51129749774717
O           -3.04490975140159        0.16544636199998       -3.17532852381694
H           -3.41911208833275        0.78156937529206       -3.82532611392896
H           -3.51795781973085       -0.66981381704784       -3.31874387738099
O           -0.04754481661650       -5.03823128028769        0.20935821454871
H           -0.68196654666128       -4.54788921050741        0.75748154609259
H            0.64691998931740       -4.39479962074491       -0.01218027791577
O           -1.10633467801387        0.37964420151195       -5.30885241692137
H           -1.93405704027853        0.59398454274356       -5.76508235353750
H           -0.46723476653657        0.20923018176755       -6.02185176512877
O           -0.29489252706894       -1.92871768995927       -6.77842425839604
H            0.26722248995872       -1.87620165105948       -5.98609602329141
H           -1.20310968832650       -1.85681694903437       -6.43722995853233
34
 energy: -56.636253619001 gnorm: 0.023616385635 xtb: 6.7.1 (edcfbbe)
C            0.00321465075972       -0.50372768466258        0.65411598587936
C           -0.01190015375130        0.12442284549393        2.06623543903383
O           -0.02819612643745       -0.65980345615165        3.04069273433725
O            0.02000945740074        1.36315612514372        2.14285506273872
C           -0.00190399065562        0.54109467476339       -0.44602011764603
N           -0.01044228559016       -0.10781170473366       -1.77746592125453
H            0.89114853199438       -1.13697601403628        0.60218341218846
H           -0.88073052421909       -1.13981576827009        0.60166750300209
H           -0.87921737062068        1.17166924907743       -0.33359084650631
H            0.87591089703534        1.17103628671882       -0.33412051361447
H           -0.85598590784074       -0.67334586140048       -1.89232019619387
H            0.80689774483815       -0.71650397177356       -1.87648920555299
H           -0.01239988735132        0.59177757308048       -2.52493144266844
O            2.67480919202219       -2.94840731658826       -0.97027253478123
H            2.50806850323950       -3.87331251503459       -1.17097851728860
H            3.25635458668959       -2.63879667107966       -1.67813576793579
O            0.92718356099542       -3.37623312788421       -3.89808460700029
H            0.77729329261195       -4.08068990170257       -4.53973160249592
H            1.88072248417532       -3.29574614971261       -3.82480085807269
O            1.89678626549719       -3.45227310246292        2.22952891416131
H            1.01783156157113       -3.23981001034713        1.90331890647341
H            2.36791010130030       -3.87484393204760        1.50397349886424
O           -3.03920823272755        0.13838035707477       -3.15360197714848
H           -3.40268177845914        0.78500894045316       -3.76284184247580
H           -3.53798758065504       -0.66801234723822       -3.29778616501573
O           -0.04271565969114       -5.02538040124534        0.19877469435251
H           -0.69235963478584       -4.58238113793450        0.75043810740222
H            0.62119428242083       -4.36361942940178       -0.01581513522813
O           -1.09247003133711        0.40154297097870       -5.32500347005581
H           -1.90959119232562        0.62426690279658       -5.76817252216312
H           -0.46134186323029        0.22169378151269       -6.02704018792707
O           -0.27900510981455       -1.93102532792917       -6.77254923004522
H            0.26168794172882       -1.91647039815033       -5.97565054056691
H           -1.18582172478797       -1.89245947730677       -6.45302805679586
34
 energy: -56.638145466498 gnorm: 0.071714877078 xtb: 6.7.1 (edcfbbe)
C            0.00608684706342       -0.50902072667716        0.64665832863949
C            0.00981977390538        0.14073622150961        2.06686637901867
O           -0.06247910187587       -0.66090634281264        3.03155338906220
O            0.01560534577430        1.37286262394501        2.12698981868373
C           -0.00375456387735        0.53925371048715       -0.44816254461917
N           -0.02341405536254       -0.10298225061963       -1.78695470611866
H            0.89399012398415       -1.13865716199107        0.60024269611722
H           -0.88042454257951       -1.14030392459737        0.60851262768604
H           -0.87834390591697        1.17276791664785       -0.32931332234354
H            0.87720776388161        1.16530477113442       -0.34011975571501
H           -0.87838747410018       -0.65426129254047       -1.90184354378179
H            0.78166748367829       -0.72754648346528       -1.88379493956445
H           -0.01829329005104        0.59285551124949       -2.53746282236582
O            2.55037485975528       -2.94991720409191       -1.00769121174008
H            2.52642962894425       -3.91222684232263       -1.21465599582773
H            3.29260605232137       -2.63229656255564       -1.61170871656919
O            0.94496656139696       -3.30105210808720       -3.95588791998374
H            0.74558190998528       -4.09512354635922       -4.50497616730717
H            1.91088950832184       -3.31851137998249       -3.86270771271585
O            1.92648033423182       -3.49509920676309        2.25202332937950
H            1.04604285183134       -3.20969162759260        1.96852663699025
H            2.37116778396377       -3.85925318419017        1.47239008526432
O           -3.00516741111148        0.09134180489598       -3.13091430881151
H           -3.37838389272628        0.80443847533388       -3.67181361924928
H           -3.58480238872429       -0.67060774626994       -3.26961751773127
O           -0.03572637558040       -5.01449902651813        0.17282361654310
H           -0.71272417989545       -4.63729390772529        0.75029119161803
H            0.59175267362303       -4.30597569073788       -0.01675201166352
O           -1.07363815140238        0.41734612350623       -5.33810957310058
H           -1.88467399327516        0.67694766097213       -5.77545845965573
H           -0.44605776871239        0.22529341167775       -6.03943310211218
O           -0.24951336843651       -1.89976810238322       -6.77265698663474
H            0.26063260134942       -1.97947069160646       -5.94585203454944
H           -1.17245364038380       -1.94807922147061       -6.47563812684183
34
 energy: -56.640956869036 gnorm: 0.060592633360 xtb: 6.7.1 (edcfbbe)
C            0.00510096571665       -0.51625719211352        0.64114420707498
C            0.01646284459743        0.15200355469815        2.06881701624629
O           -0.08630490197483       -0.66124219782282        3.02438859547769
O            0.02389609184640        1.38986772191830        2.11516407049845
C           -0.00827094837425        0.53397970283507       -0.45136473030775
N           -0.03846820854167       -0.09954810583785       -1.79710739429253
H            0.89616954661932       -1.13980604547871        0.59968919987952
H           -0.88221961144945       -1.14575214783361        0.61252958049016
H           -0.88084956322555        1.17231083591312       -0.32555631333568
H            0.87711625225836        1.15760838836637       -0.34607892175277
H           -0.90626959487147       -0.63429051732496       -1.91403282617194
H            0.75413954102932       -0.74296624037411       -1.89153054373697
H           -0.02156951704735        0.59519065192441       -2.55023558931320
O            2.61669214490308       -3.00049915687168       -0.98164319643721
H            2.47759485300000       -3.90999802510284       -1.23833077079289
H            3.21478958867490       -2.61633440545299       -1.61639152169398
O            0.95710246678679       -3.27844400980618       -3.97742602076212
H            0.72763813096862       -4.06529238899138       -4.50990556155506
H            1.92073754094243       -3.30315235575941       -3.89972145326795
O            1.95694279743924       -3.53409022712702        2.27509055095929
H            1.07694343253870       -3.17783339878412        2.03182943244300
H            2.37391497086504       -3.84386086909372        1.44365241818870
O           -2.98486354765673        0.05259996963512       -3.09607938646137
H           -3.35003357964371        0.81117984389685       -3.59381890657891
H           -3.61438002220982       -0.67851930957177       -3.23993654749675
O           -0.02658153927912       -5.00527831385708        0.14802717792978
H           -0.72836596530844       -4.68863897483297        0.74790343357835
H            0.56379960722288       -4.25000490966056       -0.02066805616697
O           -1.05454801304475        0.44071796321417       -5.35281302485162
H           -1.86243604947617        0.72855767699760       -5.78748890600166
H           -0.43283067616679        0.21774179134502       -6.05425634510345
O           -0.22394419025813       -1.90306140424150       -6.76684229433566
H            0.26374820626894       -2.02850308735194       -5.92426688991893
H           -1.15778905315003       -1.99178081745392       -6.49738748243094
34
 energy: -56.641038909432 gnorm: 0.061789779735 xtb: 6.7.1 (edcfbbe)
C           -0.00490982236038       -0.51933059749948        0.63550432079047
C           -0.03923650326094        0.15356037334930        2.06688015560165
O           -0.06556063158879       -0.65781105309606        3.01434894516899
O            0.06963129381008        1.40549566663269        2.11621387093466
C           -0.01624215783801        0.52920853765180       -0.45973727832971
N           -0.05432825869384       -0.09726458175230       -1.80774266591319
H            0.89741565868567       -1.13129144092566        0.60117538346299
H           -0.88501245299503       -1.15786942394936        0.60125319759332
H           -0.88836816388703        1.17254082280887       -0.32963158055063
H            0.87474332180720        1.15204521859721       -0.35709112272766
H           -0.93782176983762       -0.61341475232200       -1.93057110944690
H            0.72736944015686       -0.75890217975059       -1.90147665554014
H           -0.01920400081782        0.60137710619170       -2.56066273042052
O            2.58468184482251       -3.02702592188386       -0.97599124362594
H            2.46292141234238       -3.93057202673113       -1.27012306367898
H            3.19957629560054       -2.60114177669246       -1.56947184167676
O            0.96258575600587       -3.31455469042567       -3.97138206986257
H            0.73387306796408       -4.00927687960554       -4.55351408221527
H            1.90911177747688       -3.26020079022776       -3.93194521435182
O            1.98057125543648       -3.50493771499357        2.27735050889667
H            1.10045485856932       -3.18302223981580        2.05414920388607
H            2.38324442387356       -3.83909962151671        1.46456386630750
O           -3.02996022077442        0.06469546120638       -3.01600828799609
H           -3.31978902252555        0.76896689186301       -3.58208242374686
H           -3.56895564169080       -0.69676197613464       -3.20117766366052
O           -0.03714133752990       -4.99821763329635        0.13808181313600
H           -0.72618047873243       -4.68544699438407        0.73610113051651
H            0.54899371832427       -4.24446598102236       -0.02496231226472
O           -1.03535914988176        0.48287791717507       -5.36040237009445
H           -1.84419031857901        0.76199753747439       -5.80107185135709
H           -0.42483735659507        0.19086224479525       -6.05959718586186
O           -0.21578609162701       -2.02174907142688       -6.73418938898244
H            0.27871744321278       -2.01455116533174       -5.92692711208720
H           -1.13794418887322       -1.98011526496232       -6.50451014190375
34
 energy: -56.645864031787 gnorm: 0.034074952143 xtb: 6.7.1 (edcfbbe)
C           -0.00388841442316       -0.51538581589904        0.62826929216566
C           -0.02002696149851        0.15091906272112        2.06185610531818
O           -0.07429649798142       -0.66132635395764        3.00631811242059
O            0.05081792793645        1.39263642655559        2.11802005948661
C           -0.02050228502079        0.52992740504809       -0.46824181302932
N           -0.06980339078382       -0.09774721644728       -1.81511735723370
H            0.89589975269841       -1.12917498394113        0.59082372641346
H           -0.88358507415997       -1.15526860828846        0.60073205321906
H           -0.88841479266973        1.17576200608297       -0.33235928107328
H            0.87293269203163        1.14773795078291       -0.37118464635235
H           -0.96227532518168       -0.59786904999210       -1.93956385714439
H            0.70058402134142       -0.77183868098864       -1.91080338162411
H           -0.02173330016352        0.60118651047467       -2.56625985823878
O            2.54381143946168       -3.04800759383795       -0.96984986904234
H            2.45047273771223       -3.95002810243242       -1.30287717322191
H            3.19741223099218       -2.59196305528922       -1.52742238113942
O            0.97679324868603       -3.22800544474371       -4.02527578793733
H            0.69262513537477       -4.03165274530850       -4.51319704414637
H            1.94099199775746       -3.27523592412893       -3.97870157131806
O            1.99821794075961       -3.51651428323786        2.28941969006329
H            1.12284733049647       -3.16700343259254        2.08433015775773
H            2.38617876338367       -3.82391830201433        1.45637334348947
O           -3.01009601723201        0.03363373933015       -2.98117287489135
H           -3.28494524096295        0.77139316645114       -3.52516079618457
H           -3.58836577171226       -0.70370532110394       -3.17975906877669
O           -0.04171036709784       -4.98965943118830        0.12414315530280
H           -0.72551049896604       -4.69175467967165        0.73028622711999
H            0.53745021716735       -4.23195856503265       -0.02709724717548
O           -1.02424039086112        0.49449450663581       -5.36842521188338
H           -1.82259751408330        0.79284411718830       -5.81414994537398
H           -0.41799437230920        0.18830890567725       -6.06232242594636
O           -0.18742723962432       -2.00836084518094       -6.72431921523962
H            0.27126376431960       -2.05060073833512       -5.88232319888996
H           -1.12782174538757       -2.00526062333638       -6.52963491689440
34
 energy: -56.642592835337 gnorm: 0.101630979944 xtb: 6.7.1 (edcfbbe)
C           -0.00042394985264       -0.50743454565466        0.61743339531708
C            0.02358140051176        0.14645213884454        2.05380412869438
O           -0.09575129942905       -0.66795068022940        2.99487798093659
O            0.02894894292046        1.37389355898434        2.12152344418848
C           -0.02567985002466        0.53521756703581       -0.47931649889524
N           -0.09520336486924       -0.09425640405558       -1.82400592930053
H            0.89304979914767       -1.12729122131702        0.57282858600926
H           -0.88193998649847       -1.14650081509969        0.59939108859021
H           -0.88663522686555        1.18497665626601       -0.33352730228773
H            0.87163423219793        1.14507158520147       -0.39327696030539
H           -1.00266394157988       -0.56568623449591       -1.95160868424321
H            0.65508122026474       -0.78862175039558       -1.92457783995416
H           -0.02409640638467        0.60526063240954       -2.57134598112491
O            2.44074338077164       -3.03583981741704       -0.98535122799676
H            2.44630647233090       -3.96640039779822       -1.29225651184430
H            3.20124816294695       -2.62540463662115       -1.48456258751389
O            0.97608387142749       -3.24796871049065       -4.03672414139113
H            0.70719382028538       -3.97487591835503       -4.57434851274450
H            1.92744894060532       -3.23354059409817       -4.01275613216732
O            2.02286737557103       -3.55108147225349        2.30664156873228
H            1.15943394249813       -3.13008867326883        2.13175602576835
H            2.38520048489773       -3.79820265089493        1.42936663802164
O           -2.94061885062798       -0.03419797540905       -2.95281533259803
H           -3.23261500431334        0.77979064491124       -3.42189746438745
H           -3.63288988957298       -0.71208813692545       -3.14264191448140
O           -0.04931361079452       -4.97420629557483        0.08673073459850
H           -0.72936263293542       -4.72463663581851        0.72948497721367
H            0.51623227907507       -4.19781880521664       -0.02396429334954
O           -1.00899342543893        0.49646993147192       -5.38267200086636
H           -1.78614168867022        0.83378724960080       -5.84020190223825
H           -0.40693309643109        0.18047268006596       -6.06547902435799
O           -0.13736057908478       -1.91356118475032       -6.71787475552179
H            0.25621527580746       -2.15059852836551       -5.79935314168760
H           -1.11158279788643       -2.07653656028689       -6.55792742881324
34
 energy: -56.650032540798 gnorm: 0.035724927328 xtb: 6.7.1 (edcfbbe)
C           -0.00324319851805       -0.50997081736924        0.61189497063343
C            0.00940745697288        0.14204598618150        2.04953699320040
O           -0.09606819352695       -0.67343855386452        2.98842370446836
O            0.03868036672754        1.37682581564698        2.11956790851749
C           -0.02901617874410        0.53407181488550       -0.48444603112044
N           -0.10576968311105       -0.09385488702624       -1.82918739488615
H            0.89206413197934       -1.12837121471479        0.56614665298075
H           -0.88412050240941       -1.14946292857698        0.59152572126781
H           -0.88831674927517        1.18690359499357       -0.33550612104511
H            0.87094079366104        1.14261684477746       -0.40249157911279
H           -1.02103041879405       -0.55304417897315       -1.95928521829783
H            0.63639025462175       -0.79820458560110       -1.93008881701606
H           -0.02366742455035        0.60600942841014       -2.57634073584333
O            2.45817146203004       -3.03954457128541       -0.97919690252735
H            2.42690459920503       -3.95834231297125       -1.26669295328393
H            3.17047760518977       -2.64934656052043       -1.49566205537589
O            0.97677141740237       -3.18793515351973       -4.08699082141748
H            0.69371898893999       -3.99162555777380       -4.55173162706913
H            1.93809816547082       -3.24230933240874       -4.03307099870207
O            2.03457592309708       -3.54020115116941        2.30763368996582
H            1.17202880962981       -3.12524639798760        2.14533689518361
H            2.38789107332605       -3.79307003130848        1.43541581795266
O           -2.94197049456196       -0.03368287914816       -2.92279634218349
H           -3.22479738022503        0.75883351423145       -3.40616749035460
H           -3.60547984912126       -0.71978383596231       -3.11588343636464
O           -0.04789015555585       -4.96830903440768        0.07607866291284
H           -0.72863744332796       -4.73388164051489        0.72616287617613
H            0.51081107689495       -4.18344026981435       -0.02500486783797
O           -1.00348844249567        0.51075157143559       -5.38534817659810
H           -1.77440822912685        0.85109552756638       -5.85188982288825
H           -0.40165270820578        0.17400384258669       -6.06238824042910
O           -0.15018553910351       -2.01882268076998       -6.68865168063803
H            0.27497622811681       -2.10412662950370       -5.82297205452634
H           -1.09910176261245       -2.05053873552432       -6.53057752574163
34
 energy: -56.648106779775 gnorm: 0.087739544741 xtb: 6.7.1 (edcfbbe)
C           -0.01435293078511       -0.51555112108519        0.60026980543229
C           -0.04777263035052        0.13323731420040        2.04027407652822
O           -0.07835221365094       -0.68512449957827        2.97423926580936
O            0.08833032621826        1.37931301006546        2.11497373108650
C           -0.03740927228580        0.53186843043806       -0.49405605287583
N           -0.12824137874935       -0.09112424591623       -1.84004440981728
H            0.88812745138849       -1.12705586069465        0.55565790546519
H           -0.89004767398770       -1.15969752370800        0.57005449900543
H           -0.89227879647615        1.19122194086273       -0.33795315872764
H            0.86816574807818        1.13622498027872       -0.41775794079447
H           -1.05999943205834       -0.52259429796776       -1.97763147573941
H            0.59524927279392       -0.81770323846342       -1.94026629252915
H           -0.02147234771924        0.60875936379513       -2.58635422824222
O            2.44047333892687       -3.07777338398629       -0.95943226404516
H            2.37374753865750       -3.97028651835042       -1.29586587669644
H            3.15314055409849       -2.64119083604622       -1.43918837633206
O            0.98333230639361       -3.10888178898485       -4.16260283286331
H            0.67277717641051       -4.00328112699978       -4.52999502470093
H            1.95180949283864       -3.23074829087839       -4.08810591919354
O            2.05554512959203       -3.51857546456914        2.30873298445557
H            1.19738988042400       -3.11586373306792        2.17124304421869
H            2.39168428320302       -3.78216922077501        1.44825022187030
O           -2.95471963700668       -0.02114529314823       -2.84504055576560
H           -3.21017445362738        0.70499104398702       -3.38007511089564
H           -3.51844266763063       -0.74240203913959       -3.05058476657102
O           -0.04819428673763       -4.96572628028969        0.08273166634346
H           -0.72891650257965       -4.72199917388083        0.69900380434400
H            0.49509916172371       -4.18227164583061       -0.04139083796937
O           -0.98876352303735        0.54714630848980       -5.39493392672746
H           -1.74559237046339        0.88754746669262       -5.88186918621829
H           -0.39164729623223        0.13853319413607       -6.05641969228703
O           -0.12238535305837       -1.96046317155845       -6.66802491199874
H            0.27055066451867       -2.15898441966201       -5.77480822593916
H           -1.08359555882976       -2.10162587836595       -6.52767693762988
34
 energy: -56.653882392647 gnorm: 0.040078667535 xtb: 6.7.1 (edcfbbe)
C           -0.01386119148673       -0.51364495781677        0.59127880642951
C           -0.02048688010630        0.12793047191379        2.03159455431365
O           -0.09164420551948       -0.69277464300442        2.96487077083153
O            0.06947060445118        1.37005765772222        2.11219088286674
C           -0.04107970787804        0.53472694003305       -0.50190431980215
N           -0.14267109633170       -0.08748510398088       -1.84736769998564
H            0.88503821695280       -1.12856879745456        0.53951421504108
H           -0.89181866755105       -1.15601584591289        0.56382214925295
H           -0.89172024212168        1.19717185921832       -0.33936557909005
H            0.86698204629559        1.13468483431866       -0.43062972414658
H           -1.08225800437131       -0.50141207497083       -1.98837203761746
H            0.56865634875907       -0.82502127030605       -1.94835776777105
H           -0.02156112883203        0.61092881648907       -2.59227035155760
O            2.40012594657732       -3.09040439618841       -0.95289215777265
H            2.36096121138626       -3.98513883460607       -1.31324350799044
H            3.15431605538470       -2.63424690987237       -1.39458411719886
O            0.98494824709800       -3.14941177074929       -4.14972702922192
H            0.67694793234166       -3.96045170790165       -4.57711851610163
H            1.94095214484515       -3.19103562600975       -4.12349959379499
O            2.06934665095188       -3.53622755891709        2.31948385177644
H            1.21642497357499       -3.08748093558680        2.20559806679280
H            2.38738870243222       -3.76189021874231        1.42847808544547
O           -2.92411970229279       -0.05896881963756       -2.81560128326862
H           -3.17453700330528        0.70699835769563       -3.32358945706607
H           -3.52751252975026       -0.75814058823861       -3.03587680896267
O           -0.04367775213597       -4.95585563660979        0.06743940187867
H           -0.73093197841922       -4.74081026769061        0.69681010388360
H            0.48453539179894       -4.15555757813786       -0.04168219156497
O           -0.98416327057819        0.54616920039439       -5.39987244446619
H           -1.72589589124276        0.90575446302393       -5.89952712969889
H           -0.38486525333491        0.13921508535803       -6.05084017266964
O           -0.12671711908777       -2.01922965404735       -6.64312409428288
H            0.28839749498919       -2.14710013720628       -5.78000243666042
H           -1.07190634349369       -2.10016035257995       -6.49627946782178
34