37
 energy: -59.760795457104 gnorm: 0.187710545055 xtb: 6.7.1 (edcfbbe)
N            0.00260500000000        0.26833900000000        2.34949800000000
C            0.00561000000000       -0.53426800000000        1.12782400000000
C           -0.01360500000000        0.36044200000000       -0.11757000000000
C           -0.00658000000000       -0.48411400000000       -1.39958300000000
C            0.00530900000000        0.34606300000000       -2.65559300000000
O            0.01598000000000        1.56658800000000       -2.61114500000000
O            0.01013600000000       -0.27058000000000       -3.85192000000000
H            0.84383000000000        0.88923800000000        2.37341700000000
H           -0.86762500000000        0.84621600000000        2.39703300000000
H           -0.88589600000000       -1.19861800000000        1.12403900000000
H            0.91775600000000       -1.17084600000000        1.11100500000000
H            0.88289000000000        1.01613200000000       -0.10393900000000
H           -0.92488100000000        0.99783100000000       -0.09978000000000
H           -0.91002800000000       -1.12912700000000       -1.41351300000000
H            0.89428700000000       -1.13411000000000       -1.40682800000000
H            0.03021100000000       -0.36918600000000        3.17705500000000
O           -1.18556300000000        3.61856500000000        3.03451000000000
H           -2.04636600000000        3.64321500000000        3.52340900000000
H           -1.41536000000000        3.24621400000000        2.14616200000000
O           -1.86551800000000       -3.34564700000000        3.08488700000000
H           -2.44678600000000       -2.60787400000000        2.77115300000000
H           -1.77507300000000       -3.94152000000000        2.29916000000000
O            0.28763500000000       -3.20094800000000        3.73817100000000
H            0.11115200000000       -4.17530800000000        3.72880800000000
H            0.91074000000000       -3.06894900000000        4.49641300000000
O            2.84198000000000        2.65780100000000        3.31201900000000
H            2.85341200000000        3.64372600000000        3.22019500000000
H            3.78441800000000        2.38515700000000        3.17752200000000
O            1.77567400000000       -3.05814100000000       -3.06467600000000
H            1.63009000000000       -4.03226200000000       -3.16717100000000
H            2.10206300000000       -2.76142600000000       -3.95126600000000
O           -0.54786600000000       -3.17664200000000       -4.05432900000000
H           -1.24592800000000       -3.82635600000000       -4.32114900000000
H            0.11590700000000       -3.21019800000000       -4.78842200000000
O            1.27498400000000        3.51283400000000        1.65897000000000
H            0.51442700000000        3.94408100000000        1.19400800000000
H            0.86908400000000        3.08492600000000        2.45442800000000
37
 energy: -59.791215317360 gnorm: 0.090978088006 xtb: 6.7.1 (edcfbbe)
N            0.00852928646559        0.26535553213226        2.35392496115047
C            0.00865431865011       -0.53881119403390        1.12208963817624
C           -0.01061581421755        0.35525110588968       -0.11731314278179
C           -0.00620602054786       -0.48244012184717       -1.39901301325510
C            0.00793023560422        0.35891831153535       -2.66676466623879
O            0.01143623547835        1.59732897733774       -2.60131041930004
O            0.01121316421314       -0.25546167795406       -3.80376472955540
H            0.83669703189405        0.88515476681387        2.37811712349424
H           -0.84424292912162        0.84379666357651        2.40356698311909
H           -0.86792591975315       -1.19609866709506        1.11887783043903
H            0.90289245494982       -1.17160599509819        1.10294972378519
H            0.86605101729637        1.01512514882082       -0.12040285696841
H           -0.90579698789096        0.99065313335702       -0.11861559151353
H           -0.89117754963078       -1.13075391557304       -1.43619046310370
H            0.87508057149425       -1.13623401825840       -1.42843125812809
H            0.03432653344555       -0.36228070310767        3.17367071750306
O           -1.20497574137555        3.56748603487513        3.04539550719231
H           -2.04636663404407        3.65165564624118        3.52619413789708
H           -1.44991012848745        3.26376993098214        2.15335137616870
O           -1.94716918587397       -3.36135789370218        3.05913090178240
H           -2.48367533553000       -2.61833594184133        2.74386714995775
H           -1.79826181952718       -3.92608403351904        2.28243569130432
O            0.37523050022230       -3.19741419706371        3.75000789461224
H            0.13966125785706       -4.14066885923729        3.74726739981862
H            0.94890140913769       -3.08073556294474        4.52297398278745
O            2.88273555728511        2.64777287945363        3.38383500814257
H            2.85804840658689        3.60969173908749        3.22792294754515
H            3.79565093238146        2.38675083933722        3.18215689891514
O            1.87870233323978       -3.07695187766970       -3.03524130095583
H            1.63410365627212       -4.01582234757976       -3.16688012639061
H            2.09693326770980       -2.75375593852044       -3.93013717599389
O           -0.57991999833052       -3.21336975009107       -4.06801957614766
H           -1.26801578381728       -3.83766128248787       -4.35041491998609
H            0.06671309296989       -3.19102181500669       -4.79399416296684
O            1.23908944032323        3.48104886964049        1.61292770078515
H            0.50911276309142        3.96115558504518        1.19037580283518
H            0.85967138157977        3.13719862850580        2.44825602587411
37
 energy: -59.802857859217 gnorm: 0.030028843118 xtb: 6.7.1 (edcfbbe)
N            0.02010330637824        0.26255825376673        2.35830734751360
C            0.01401922539629       -0.54298326988731        1.11613485560716
C           -0.00850150044366        0.35038818479179       -0.11829500061810
C           -0.00403652860527       -0.48085748553538       -1.39934305924632
C            0.00341254905244        0.37426619949349       -2.68237664245245
O            0.00233653703181        1.62499225427307       -2.57358566862754
O            0.02280492885527       -0.22807776118742       -3.76681339924937
H            0.83900794272177        0.88227682579171        2.37819567304715
H           -0.81846417775347        0.84594621312886        2.41082519616519
H           -0.85844962736755       -1.19024431190497        1.11669068217347
H            0.89965364518623       -1.17165488422195        1.09475929430916
H            0.85748651011927        1.01131830042244       -0.13649022036068
H           -0.89684600710377        0.98054576862192       -0.13430678355261
H           -0.88137309226012       -1.12628426111287       -1.46120884240553
H            0.86952383138550       -1.13187923818091       -1.45454749354130
H            0.04739574587319       -0.35952964032774        3.17210497039669
O           -1.23010379050206        3.50963488881819        3.04579719799721
H           -2.04339056084733        3.65113300594244        3.54179739252324
H           -1.50219148708758        3.27159043344447        2.15077542306308
O           -1.99544054398370       -3.37367482351858        3.03275844664135
H           -2.52524298087916       -2.63590652028756        2.73531598737641
H           -1.82772869283731       -3.92421986745170        2.26739097720855
O            0.44828114968265       -3.17806954683486        3.75776478916511
H            0.16014836845161       -4.09534318083175        3.74743466236727
H            0.98319013502382       -3.08082660161042        4.54752799866818
O            2.91002768163451        2.63522973125453        3.42889553174559
H            2.86358790280577        3.57923672279522        3.25356775796800
H            3.80286602373428        2.37489179083023        3.20244235894876
O            1.92018613437388       -3.08482448551329       -3.02210060063435
H            1.66153908913129       -4.00240239510841       -3.15142681262333
H            2.12835514319601       -2.74153981919766       -3.89054453732187
O           -0.59753339544731       -3.27959187785155       -4.06752813174437
H           -1.30317072577702       -3.85160660675495       -4.38546130245648
H            0.00692755875608       -3.15833543498473       -4.81467839302409
O            1.21279882451211        3.45514635680052        1.58311715654245
H            0.52219269299115        3.97732345853132        1.16985930579342
H            0.83973318460225        3.18262162359728        2.44004588263666
37
 energy: -59.807313394159 gnorm: 0.084568989781 xtb: 6.7.1 (edcfbbe)
N            0.03707207224592        0.26068353670159        2.35847299973909
C            0.02042436578068       -0.54423487703950        1.11092892219516
C           -0.00623290242273        0.34912288249768       -0.12151019167514
C            0.00044199446067       -0.47471067134637       -1.40384209817027
C            0.01214312258786        0.39501253046335       -2.69412471813144
O           -0.01605031326916        1.64773641783172       -2.55085033444452
O            0.02592836028823       -0.20423368561585       -3.77243940551198
H            0.85566386120774        0.88026314081484        2.37166012175911
H           -0.79589133703025        0.85179175758192        2.41660785692367
H           -0.85631922197039       -1.18614399186721        1.11697232963117
H            0.90544410623550       -1.17432794753220        1.08535479858888
H            0.85807915318857        1.01184340946592       -0.14624942303066
H           -0.89660915278644        0.97568121332342       -0.14266669716881
H           -0.87823971958252       -1.11739265515709       -1.48302557857014
H            0.87475757151589       -1.12317305972429       -1.47417051413222
H            0.06853886278228       -0.36312586333539        3.17027778385790
O           -1.25050479259296        3.40249490876561        3.06184976595376
H           -2.04712652412331        3.66161273093719        3.56844677602903
H           -1.58027274561992        3.29155282264316        2.13753987868933
O           -2.03470587937740       -3.39520163691445        3.01000136005694
H           -2.56813523606496       -2.65376349986090        2.72348284678488
H           -1.83836423703433       -3.92409669400046        2.23384131073098
O            0.52318801568799       -3.14425829395399        3.75704903489482
H            0.16283862871119       -4.04234226909057        3.74136672269398
H            1.01837974029202       -3.07957965991449        4.58286525968223
O            2.93928694829098        2.62091136995623        3.52483150957775
H            2.85726893742546        3.55320503146941        3.26484280625540
H            3.81670716708460        2.35841321984815        3.20768933434415
O            2.07451445835463       -3.10872502570165       -2.96457711976258
H            1.64085297257526       -3.98851385003468       -3.15489433045415
H            2.11473556678250       -2.70523144974920       -3.87070268696429
O           -0.61244316461284       -3.35911706749832       -4.05520093201296
H           -1.35448124852765       -3.86161140310199       -4.43590982300387
H           -0.05705112947345       -3.11830807592568       -4.83494499787087
O            1.18516619546566        3.39924854564721        1.55709446191937
H            0.54707114422565        4.00927429140124        1.14861726047076
H            0.79702935929939        3.23049186801638        2.44811771012428
37
 energy: -59.812902303033 gnorm: 0.046868512345 xtb: 6.7.1 (edcfbbe)
N            0.05441449814114        0.26043829801195        2.36155522458359
C            0.02641601915851       -0.54388498697265        1.11085499639099
C           -0.00455219913670        0.34873549867435       -0.12087551193505
C            0.00311383776454       -0.46807024747373       -1.40435792539003
C            0.01309715570564        0.41658664625665       -2.69883884523388
O           -0.03249475829064        1.66740910833474       -2.53056703679886
O            0.03618561479794       -0.18686097497720       -3.78351640502119
H            0.87371491734507        0.88070171749884        2.36715036874354
H           -0.77473540602237        0.85955323898364        2.42742829621021
H           -0.85432625110789       -1.18302287265042        1.12332259193800
H            0.91106091538211       -1.17735421989561        1.08078069137371
H            0.85782335299160        1.01543544619966       -0.14918569454863
H           -0.89787709453464        0.97240696755733       -0.14365221104537
H           -0.87629949973512       -1.11024940659794       -1.49484105280491
H            0.87952025119549       -1.11378524359249       -1.48606650609830
H            0.09197795463320       -0.36605729057808        3.17234692036360
O           -1.28691269513154        3.39737650266897        3.03273364102828
H           -2.04206809245599        3.62775722559122        3.58763770075239
H           -1.62159574603849        3.25159912727196        2.14296449138200
O           -2.08909167228877       -3.42067323170177        2.99382745945261
H           -2.61880918358464       -2.66708234716461        2.71672680442088
H           -1.85718254240743       -3.91800342370676        2.19775091353626
O            0.59330770322525       -3.10754355808031        3.76245139841830
H            0.16981077180107       -3.98606734456584        3.73126936976601
H            1.05926364047858       -3.07988814697735        4.61510331833841
O            2.96801391048469        2.59886594473850        3.58992584582666
H            2.85873964346293        3.52034968071755        3.27755642516619
H            3.83244847677779        2.33206850723177        3.22111972615910
O            2.05704088744955       -3.09274254041368       -2.96399496006274
H            1.70097073621843       -3.97356928345891       -3.11099782960532
H            2.18661477144110       -2.69444185991012       -3.82430007650604
O           -0.66606323077422       -3.37428052998496       -4.09869558727765
H           -1.39763751180331       -3.88391981688005       -4.46364494972884
H           -0.09803818004625       -3.14318233694053       -4.83547648250214
O            1.16641316935662        3.40870797146987        1.56216578912163
H            0.56946209464696        4.01880921325117        1.10546886119350
H            0.75137874090054        3.24512656806544        2.42167224039166
37
 energy: -59.815049542601 gnorm: 0.061828245543 xtb: 6.7.1 (edcfbbe)
N            0.07509569239369        0.26202937344581        2.36081135115903
C            0.03388494312881       -0.54153178699662        1.11036503420825
C           -0.00275002576209        0.35051935710922       -0.12195386755810
C            0.00266748681365       -0.46158608188879       -1.40743552090763
C           -0.00819325888654        0.43632447604136       -2.69817207583088
O           -0.03692747278582        1.67885769316270       -2.52311548302615
O            0.06107063360160       -0.16914932351942       -3.79321783478343
H            0.89569219593628        0.88268596984398        2.35813373613205
H           -0.75200802651227        0.86660451014341        2.43797259501474
H           -0.84956437223571       -1.17941880126979        1.13094464686908
H            0.91664099260801       -1.18016538083389        1.07536124694282
H            0.85728091949020        1.02218321236308       -0.14735297254870
H           -0.89896154398688        0.97222944151086       -0.13717675226044
H           -0.87591027013106       -1.10475358172096       -1.49601353893295
H            0.88238786142021       -1.10357966681229       -1.49539519956386
H            0.12219922918882       -0.36707527594122        3.17107647659637
O           -1.30686206840464        3.33693638931350        3.01605082357672
H           -2.02714800083251        3.59953430800291        3.60161458729671
H           -1.67557042923391        3.24725138438589        2.12872446400114
O           -2.13815319354340       -3.44706131205418        2.97500020973452
H           -2.67433932425402       -2.68873043997583        2.71416109974701
H           -1.89848607201325       -3.91975214148340        2.16658866346600
O            0.61412531288841       -3.06046497156255        3.80036380308123
H            0.22433258338519       -3.92764710698005        3.71378039450060
H            1.11335399548176       -3.05413692412298        4.61662027959248
O            2.97303813587513        2.56402272134110        3.50897911946716
H            2.87815021286203        3.48484958007750        3.36296883725681
H            3.84928220847714        2.30369108644572        3.31457143127252
O            2.09842917784842       -3.09243071798170       -2.93905501670644
H            1.71901707263195       -3.95609534934887       -3.08695319417538
H            2.21333080894150       -2.67081811879350       -3.78475650473030
O           -0.68424503748479       -3.44141629871720       -4.10018718093876
H           -1.43662927043022       -3.90319356831575       -4.50169042175869
H           -0.15713342690834       -3.10971845982712       -4.85334562254340
O            1.14611404085791        3.42510699069177        1.56634885302379
H            0.58741435598657        4.00155768876761        1.04669137446688
H            0.70247893358924        3.27558912549980        2.40149415885691
37
 energy: -59.817415413616 gnorm: 0.074547993855 xtb: 6.7.1 (edcfbbe)
N            0.09861388493051        0.26491449606845        2.35476550315926
C            0.04253938649733       -0.53804400374908        1.10562493526305
C            0.00016106965978        0.35397233281763       -0.12729984705512
C            0.00749062470168       -0.45458140347501       -1.41585698792384
C           -0.00082712105493        0.45398044958842       -2.69851354718949
O           -0.05029356293526        1.68894310572731       -2.52278527466901
O            0.05957825723932       -0.14412097784012       -3.79668438878979
H            0.92075008360352        0.88439519718040        2.34443343752519
H           -0.72552948046997        0.87339595407076        2.44428680566125
H           -0.84273467065125       -1.17353888934715        1.13403844392204
H            0.92203019731060       -1.18128932500848        1.06474564809467
H            0.85829195505676        1.02852261326463       -0.14692196126753
H           -0.89767513516366        0.97435844399661       -0.13425496642447
H           -0.87145903299067       -1.09676945402801       -1.50461282250531
H            0.88796635651642       -1.09456837698629       -1.50245305946543
H            0.15503628566908       -0.36564417259071        3.16398813208205
O           -1.33626256497207        3.27641535334068        3.01402207742822
H           -2.02916034532937        3.56402106238922        3.61928523961007
H           -1.72877839686464        3.23391555730407        2.12917284494239
O           -2.14422334556163       -3.46115333784425        2.94296410499816
H           -2.71945991344546       -2.72249200401548        2.71118443662519
H           -1.94099636033216       -3.93407178822681        2.13962008329444
O            0.66284327191255       -3.00184070565255        3.81444616455909
H            0.22731118806913       -3.85039268138697        3.69385510243298
H            1.15717584416910       -3.04689617537805        4.63578980687954
O            2.98634585008447        2.53305602753481        3.54036691265367
H            2.85595331030130        3.45432661725012        3.38543775787235
H            3.87209986794039        2.29308631140350        3.35024267307719
O            2.18257486434207       -3.09882126335189       -2.89713508484176
H            1.69280402526965       -3.93357940632053       -3.08243795307604
H            2.21075858163377       -2.63665293767157       -3.75395829544998
O           -0.72358300230973       -3.43341750168514       -4.15058386326637
H           -1.45768798516981       -3.92193655191515       -4.50383964501186
H           -0.17623919877573       -3.15075289561447       -4.85280939845360
O            1.12682174038764        3.36575135321912        1.56812857898677
H            0.63920600999454        3.99189671639526        0.99855802127311
H            0.62166246073804        3.33686026053693        2.42799238504605
37
 energy: -59.819179164757 gnorm: 0.089534290771 xtb: 6.7.1 (edcfbbe)
N            0.11809844265734        0.26945273474006        2.34959837466951
C            0.04951959632269       -0.53385106853963        1.10465286265404
C            0.00185416539601        0.35780035331725       -0.13002437251212
C            0.01356438187309       -0.44939048131644       -1.42254933748535
C            0.02838004872821        0.46297909354415       -2.69181611451912
O           -0.07075413435398        1.69188032575129       -2.52856323512206
O            0.04170468304832       -0.12263150153213       -3.79005701388875
H            0.94113115810601        0.88775368367610        2.33390913166112
H           -0.70392341281348        0.87801357531179        2.45013242264747
H           -0.83522634198870       -1.16796199376686        1.13909780358410
H            0.92526967631543       -1.18009683474639        1.05810307884004
H            0.85837084241448        1.03382088140755       -0.14224348032819
H           -0.89628847627418        0.97774780270847       -0.12927712239597
H           -0.86558215988133       -1.09110323993535       -1.51003966386776
H            0.89284436079919       -1.08882720453721       -1.49885499212531
H            0.18270717352640       -0.36060662508178        3.15823148590670
O           -1.34958092398295        3.20883940543874        3.01608923397217
H           -2.02796808641223        3.54969797700707        3.62183559581021
H           -1.76653357796436        3.22840396971143        2.12629204506872
O           -2.13643180676486       -3.46760934065336        2.91806662700512
H           -2.75408587616558       -2.75396610718945        2.71744954869463
H           -1.97440483453267       -3.93945565695416        2.11502650688479
O            0.71073114828407       -2.94998393353643        3.81029872558420
H            0.19807973394668       -3.78062434855224        3.67886735260963
H            1.18257179415733       -3.05368395503601        4.65733003435341
O            3.00231553016809        2.50020030813132        3.64338875011967
H            2.80808707718058        3.42833256433572        3.34265878842138
H            3.90236172693098        2.29077086745987        3.32113969915148
O            2.21599231046278       -3.09896488729995       -2.87272430837021
H            1.70442508044101       -3.92034473828975       -3.06729488391189
H            2.20984062166925       -2.61418795727817       -3.72869025721002
O           -0.70851126519445       -3.52904557772378       -4.11575842825611
H           -1.48683175090167       -3.93156080285580       -4.55119217578165
H           -0.23029040713957       -3.07439042078502       -4.87701137239973
O            1.12565549045590        3.38659040751048        1.59931662487819
H            0.65704330232442        3.96856471435308        0.98172889541550
H            0.57896970916359        3.31868601120618        2.40568517023914
37
 energy: -59.823531521339 gnorm: 0.041934387573 xtb: 6.7.1 (edcfbbe)
N            0.13211566636272        0.27268064807947        2.35123193065255
C            0.05603676893179       -0.53176582428475        1.10786769834504
C            0.00399868795869        0.36089771827184       -0.12588260962972
C            0.01312226551053       -0.44366623822174       -1.42007242069845
C            0.00473443684140        0.46887992981982       -2.68769141762445
O           -0.07526854546958        1.69960366053850       -2.52045613610847
O            0.06513563802193       -0.11555807732942       -3.79015865143783
H            0.95515300894721        0.89082889071723        2.33060889176374
H           -0.68881848470780        0.88187944654969        2.45676392866143
H           -0.83015134996067       -1.16397358549013        1.14645720188012
H            0.93097565502788       -1.17901713296612        1.05603445974325
H            0.85969338772660        1.03827708201474       -0.14263433004572
H           -0.89588798767729        0.97827799778734       -0.12528824772456
H           -0.86319795535711       -1.08929261733896       -1.50557044758870
H            0.89535037191867       -1.08041562952994       -1.50196133087807
H            0.20185962657961       -0.35681619560379        3.15986932982108
O           -1.35354120072259        3.17524285668775        3.00894948403374
H           -2.02764847328510        3.54258171079453        3.61342501295122
H           -1.77376114039719        3.20620299486563        2.12281519983074
O           -2.16337040699918       -3.48757572916507        2.91472972736515
H           -2.78308373173413       -2.77097037384568        2.72922796227089
H           -1.98157182573450       -3.93229393937017        2.08299870452254
O            0.68993450745995       -2.92947568580995        3.82075490905851
H            0.23992578848968       -3.76072061266903        3.68742672102588
H            1.19394494233722       -3.01047799355840        4.63092638202965
O            2.99254023166090        2.48222557857399        3.61785364285675
H            2.83053116325431        3.40746775300962        3.36919101305739
H            3.89506735299280        2.26384474811445        3.33434814035226
O            2.18881114782685       -3.08263048854008       -2.87458907295981
H            1.72850509414737       -3.90802522135731       -3.04065338673166
H            2.22248320538109       -2.61319974123627       -3.71536277640253
O           -0.73915944497241       -3.49576439634502       -4.15280904356279
H           -1.49696860208788       -3.93736031449141       -4.54504692532082
H           -0.22278598836079       -3.12200827139518       -4.86622066406752
O            1.11910863125782        3.40528157126122        1.59914493403309
H            0.64449615989147        3.96666714283212        0.98964994382520
H            0.57479639894174        3.30141633863098        2.37692424269798
37
 energy: -59.810179813085 gnorm: 0.179759385446 xtb: 6.7.1 (edcfbbe)
N            0.15530899721930        0.27795818959494        2.35207417823197
C            0.06590164043422       -0.52747066963484        1.10955276805425
C            0.00835698166143        0.36624118791079       -0.12238494896225
C            0.01461561500875       -0.43404194961839       -1.41815397759138
C           -0.03147576961055        0.47905512391490       -2.68698598744065
O           -0.08681947187015        1.71372967539046       -2.50891172684397
O            0.10200380926520       -0.10765819171423       -3.79470758744994
H            0.97849784996011        0.89494236816943        2.32372064959832
H           -0.66182853563135        0.89164849400976        2.46711419320761
H           -0.82352482862134       -1.15516689329940        1.15553370523624
H            0.93861108079253       -1.17759600190867        1.04928923844292
H            0.86206869501037        1.04610026957288       -0.14701390082465
H           -0.89425646278883        0.97901927961384       -0.12416176346925
H           -0.85782786859477       -1.08462420836002       -1.50357102650568
H            0.90077677989606       -1.06722461959144       -1.51047743410557
H            0.23298108017823       -0.35189807753488        3.15963188914125
O           -1.41804157788720        3.29087294393569        2.95472758826739
H           -2.04796329981222        3.43103455430797        3.60825005038171
H           -1.73471267666259        3.08343692290287        2.16818718786105
O           -2.17948507535523       -3.50695975134532        2.89662445033606
H           -2.82099686794958       -2.80147024833268        2.73660106471700
H           -2.00313673762626       -3.93543019765174        2.04178203150104
O            0.71580024054292       -2.87598124818739        3.82676198838677
H            0.23082455221943       -3.68660348720338        3.67935801025147
H            1.22363080947823       -2.99663431897075        4.63061776518083
O            2.98262638554037        2.45996760137623        3.58132509626037
H            2.86341197232829        3.36830532158792        3.40745411656145
H            3.87818359264304        2.23065652877915        3.38240010803469
O            2.21875668496489       -3.07528473365374       -2.85794182699706
H            1.71199263075290       -3.88288026335424       -3.02072553014383
H            2.24295618803917       -2.60392456291751       -3.68655328703448
O           -0.74263012990904       -3.53674338082283       -4.15408627143627
H           -1.52262731543196       -3.93878751029702       -4.57046440013644
H           -0.25725565209006       -3.10391321120700       -4.87530376935592
O            1.10497901456824        3.32683656875429        1.58965541632103
H            0.70763275406976        3.97766602780822        0.95857475430749
H            0.48576991527022        3.36407046797667        2.39500918801357
37
 energy: -59.825218164805 gnorm: 0.049056941574 xtb: 6.7.1 (edcfbbe)
N            0.16219765602505        0.27920128770768        2.35118386251431
C            0.06868350137857       -0.52528943395240        1.10866519774126
C            0.00853755214265        0.36810991190612       -0.12387782132920
C            0.01668528566117       -0.43256196490038       -1.42002023372100