34
 energy: -56.578037122982 gnorm: 0.189447796906 xtb: 6.7.1 (edcfbbe)
H            1.42053100000000       -0.69343900000000       -0.45759400000000
C            0.31562500000000       -0.64091500000000       -0.57275600000000
H            0.37944700000000        0.34125600000000       -2.37510200000000
H           -0.02020400000000       -1.57726700000000       -1.06978300000000
N           -0.04283300000000        0.48932200000000       -1.43082700000000
H           -0.10434400000000       -1.52577500000000        1.34227500000000
C           -0.35607200000000       -0.58177200000000        0.80987700000000
O           -0.15503900000000        1.84564400000000        1.27779400000000
C            0.09900500000000        0.57829600000000        1.65429800000000
H            0.33459400000000        1.38391400000000       -1.05046800000000
O            0.66999200000000        0.37333800000000        2.71201200000000
H           -1.08151800000000        0.54834700000000       -1.53303300000000
H           -1.45918500000000       -0.54094800000000        0.69330800000000
O           -0.65976500000000        3.07938100000000       -3.97598700000000
H           -1.61314300000000        2.84813300000000       -3.84106000000000
H           -0.43071400000000        2.68469400000000       -4.85483400000000
O           -1.70174800000000        1.33857700000000        4.40760100000000
H           -2.65603500000000        1.58136400000000        4.30271900000000
H           -1.26261600000000        2.17766700000000        4.69692000000000
O           -0.69244100000000       -2.34696400000000        4.48655800000000
H           -1.41691700000000       -2.97197200000000        4.74172600000000
H           -0.28368600000000       -2.75590100000000        3.68262800000000
O           -0.62294400000000        4.26680000000000        1.49142500000000
H           -1.11469400000000        5.11359900000000        1.63881700000000
H           -1.14166900000000        3.79743000000000        0.79054800000000
O           -2.75931400000000       -0.21012200000000        5.56961300000000
H           -2.24716900000000       -0.99711000000000        5.25502200000000
H           -2.16369700000000        0.22575800000000        6.22981200000000
O            1.30247100000000        3.89541500000000       -2.53425500000000
H            2.16437700000000        3.54138500000000       -2.86950400000000
H            0.94069300000000        4.42384400000000       -3.28956500000000
O           -2.46676000000000       -3.88113200000000        3.03441600000000
H           -1.61627800000000       -4.38820400000000        3.04738700000000
H           -2.26114500000000       -3.06510600000000        2.51246100000000
34
 energy: -56.612111438256 gnorm: 0.095965057625 xtb: 6.7.1 (edcfbbe)
H            1.40406177573295       -0.68994557472412       -0.44922347490523
C            0.31426077388467       -0.65279294565256       -0.57722822423224
H            0.37760767151852        0.36528158956945       -2.36872530897360
H           -0.01229814970412       -1.57680994091914       -1.07222160017250
N           -0.04013801577337        0.49028434064087       -1.43287249731209
H           -0.10662343051648       -1.50688189908710        1.34665681340205
C           -0.35698746387716       -0.59057638115997        0.79797247052126
O           -0.13620838653622        1.76909133614933        1.21310767969213
C            0.08991471707909        0.57825823980342        1.66420053232234
H            0.31188302784439        1.37734788389684       -1.03017525558498
O            0.70797922100371        0.36860168912087        2.71479918591578
H           -1.06513568536076        0.55536213272341       -1.52770690234231
H           -1.44791827229602       -0.53949900122251        0.68897593009289
O           -0.67626581629091        3.04883225651708       -3.99156766658714
H           -1.61873086937751        2.85827588891143       -3.85965460718540
H           -0.45387796404734        2.68592420813236       -4.86445307513198
O           -1.67807803977237        1.41088200915283        4.35026040618398
H           -2.63117449852890        1.61116716764597        4.29678692541870
H           -1.25330135952355        2.22068778824816        4.66924515443667
O           -0.69419177975041       -2.35475403175890        4.50694950697839
H           -1.41175648346705       -2.97778699421936        4.72939742163150
H           -0.27532847053054       -2.73003588878181        3.71334916560798
O           -0.62623584297316        4.31537774865427        1.48405746489877
H           -1.13385488505494        5.13142423307307        1.62951609585754
H           -1.12879802046856        3.80698329223414        0.82315395816621
O           -2.82089759822080       -0.32473903140998        5.68194637117402
H           -2.23396624722042       -0.98860848806065        5.24491698793143
H           -2.18368918967813        0.19482035040252        6.22152785674052
O            1.33626587277048        3.90728770924482       -2.52138518140599
H            2.17117271603963        3.55682527643025       -2.87068260658751
H            0.94306210124018        4.40881883138998       -3.25774445834077
O           -2.46597022630342       -3.89275908145137        3.02204355543346
H           -1.63465042322676       -4.39773296317475        3.02531551472032
H           -2.27332575861494       -3.08107475031890        2.52191086163585
34
 energy: -56.623428032628 gnorm: 0.037383635956 xtb: 6.7.1 (edcfbbe)
H            1.39522546474184       -0.69190210764450       -0.44493106711734
C            0.31665123549776       -0.67069215193648       -0.58393926594348
H            0.38168300471526        0.40479002779526       -2.35676493575361
H           -0.00552932803053       -1.58014002686071       -1.08499636694178
N           -0.03791292293066        0.49246732553575       -1.42710140007023
H           -0.11023925277954       -1.50776255410806        1.34722423571040
C           -0.35100417402968       -0.61084603720658        0.78409748311092
O           -0.16123129696135        1.70167795877737        1.16399215819166
C            0.15860916304085        0.59059235780810        1.61481298736305
H            0.28310427551324        1.36829500771158       -0.98182535211880
O            0.73285961921509        0.36196815322931        2.69783107733550
H           -1.05298816158358        0.56144779652758       -1.51591334121464
H           -1.43341138874136       -0.52765309053731        0.68933273924927
O           -0.69313660344536        3.00107390031337       -4.01154850996714
H           -1.63588127591525        2.87636189101556       -3.88418535758698
H           -0.48736104294560        2.68358803003903       -4.89225868093613
O           -1.66240966885208        1.46060451165721        4.31808972723508
H           -2.61344277601925        1.62270370907009        4.29654854329034
H           -1.24658099616690        2.25353056412175        4.64541673977478
O           -0.70920778768645       -2.35356163032921        4.54163168186286
H           -1.41201850573017       -2.99279575312761        4.72176243798582
H           -0.25026855081747       -2.68600018853620        3.76438833413620
O           -0.63590950976484        4.37931719119818        1.48748243059643
H           -1.17126046794598        5.16621337488235        1.61263177050138
H           -1.10521179758739        3.81267187532072        0.86361953939170
O           -2.82213512092824       -0.36074131647780        5.70253329138291
H           -2.24626770924716       -0.99689877273166        5.27261588354366
H           -2.22133622954707        0.15326878269118        6.24024130316917
O            1.37723463110941        3.91035819409307       -2.50065801807475
H            2.19763872117031        3.58263890601759       -2.86796726041327
H            0.93850399732815        4.39056131156595       -3.21111518454843
O           -2.46722919302135       -3.91135078557823        3.01095472330287
H           -1.65678138340180       -4.42540366365198        2.98355404114155
H           -2.29594996825353       -3.10084579064478        2.52689261241135
34
 energy: -56.631240784395 gnorm: 0.047957469126 xtb: 6.7.1 (edcfbbe)
H            1.39738137184163       -0.69404948433688       -0.44068627295894
C            0.32025100028574       -0.68599356788748       -0.58556161747827
H            0.39336676720579        0.45056802872817       -2.33617508034687
H            0.00887613898438       -1.58616997125122       -1.10953762138387
N           -0.03968485727853        0.49602945950390       -1.40882027703292
H           -0.10778329026631       -1.52921431353644        1.34872689236105
C           -0.35162384900355       -0.63910218167274        0.78020711315564
O           -0.10211633998640        1.68969464028951        1.06274399437632
C            0.12967806217846        0.60265962118514        1.60472690038405
H            0.25301351446082        1.36169979599528       -0.91737874842756
O            0.79676700778379        0.37524829858931        2.63945503475787
H           -1.05370389289218        0.55951005704588       -1.50252317632354
H           -1.43041069335652       -0.54537440486308        0.68548980126496
O           -0.69592690925354        2.92758720898190       -4.01749603661249
H           -1.66380561281506        2.91205443188811       -3.91363026919514
H           -0.52851969979616        2.68805248464005       -4.93984409890326
O           -1.67165787920210        1.48301385439105        4.31432811543229
H           -2.61951320576474        1.63690075459812        4.30284778489717
H           -1.24438719003431        2.27585126756663        4.62682884714294
O           -0.73596403552378       -2.35327629145666        4.59432596281639
H           -1.42888979759155       -3.02753580910167        4.70373308335068
H           -0.21518250868843       -2.62361520182882        3.82246124624391
O           -0.62774219083110        4.46026630887739        1.48598409270955
H           -1.23409164358341        5.20572290191498        1.59377446309458
H           -1.07440796814958        3.80209693048901        0.91765808330741
O           -2.83423245829520       -0.41362446763565        5.74926536687704
H           -2.22180143603000       -0.98546721726113        5.25015413093516
H           -2.23140568514474        0.14500599925954        6.24577712989316
O            1.42370637340940        3.90901505211730       -2.46714364841123
H            2.24139326367296        3.61515412586540       -2.87307210903151
H            0.91657336720359        4.36499481745389       -3.15532910744994
O           -2.47093068919451       -3.93465694546882        3.01053127845936
H           -1.67376731093886       -4.46773429384941        2.92104707350983
H           -2.32665272340733       -3.11777488923078        2.52958066858667
34
 energy: -56.636415522674 gnorm: 0.049047477495 xtb: 6.7.1 (edcfbbe)
H            1.40563852396436       -0.70807684907080       -0.44734208525094
C            0.32581354892118       -0.70586884995457       -0.59296289775206
H            0.41154699151060        0.50297176126152       -2.31141177207418
H            0.02053180058447       -1.59927610413270       -1.13891068593904
N           -0.04233250299539        0.49590807087888       -1.38718542012568
H           -0.10308395081152       -1.54694862845217        1.35516819422558
C           -0.34363803235108       -0.66170629944297        0.77447337431928
O           -0.06610135782892        1.69576860798001        0.96862265075017
C            0.16784769125501        0.61484842595859        1.55559863903355
H            0.22013905168731        1.34807101151999       -0.83873370909270
O            0.81571415082888        0.40467457374220        2.59701959895419
H           -1.05886282324887        0.54673862003746       -1.49451900209801
H           -1.42376410103644       -0.55537257942094        0.68254226586244
O           -0.72576577236507        2.92062675580878       -4.06050764790394
H           -1.67520065338407        2.89786759999331       -3.92858595865491
H           -0.55841375243101        2.67052248037257       -4.97151129439827
O           -1.67564371403648        1.51314695696555        4.28985444361780
H           -2.63099457931707        1.65634885191299        4.32358070269108
H           -1.24102676745319        2.30918535826485        4.60562271710927
O           -0.77185457949641       -2.34776881833915        4.64703805014993
H           -1.45356844168607       -3.05663609106918        4.68259634127825
H           -0.19165893782824       -2.56097434957063        3.88694524654057
O           -0.64158671811958        4.52115919260409        1.51420131993206
H           -1.29092868575178        5.24340300780489        1.58194086788102
H           -1.02706181308787        3.82757988153342        0.94737622372053
O           -2.83574041938390       -0.47016337947193        5.78125229156155
H           -2.20276173412962       -1.00449552500266        5.25883908900832
H           -2.24249377031254        0.14143298788855        6.25043782443731
O            1.46427716693146        3.89556501586716       -2.43322380862095
H            2.29047186811089        3.65473337150572       -2.87748983327568
H            0.89756785609193        4.33469385924726       -3.09540096642085
O           -2.46797805548025       -3.95920582094128        3.03104264996125
H           -1.68639969655760       -4.51786032617600        2.83894222035835
H           -2.36588279079510       -3.14335577010291        2.52713937021553
34
 energy: -56.639681870305 gnorm: 0.057937113041 xtb: 6.7.1 (edcfbbe)
H            1.41191972605345       -0.72714568894899       -0.46725188196109
C            0.32834824148965       -0.72512410936514       -0.61003045220944
H            0.43415075960043        0.55700894620419       -2.28752879732013
H            0.02846907691037       -1.61490908730504       -1.17123261074378
N           -0.04933565087644        0.49019139888101       -1.37485039919252
H           -0.09383536519439       -1.55101818800157        1.35308564282972
C           -0.33576479292720       -0.67159623733254        0.76038247828890
O           -0.01558813574671        1.70723134002148        0.90066758193869
C            0.21297352128428        0.62203676926273        1.50696022517396
H            0.17256878173926        1.32426007147358       -0.75413054273800
O            0.84038642791501        0.42590964022751        2.55066744775389
H           -1.06791652439110        0.51986357056468       -1.50546106410435
H           -1.41855372947011       -0.56574855517184        0.67591790373170
O           -0.72844904254548        2.83384239545560       -4.07009085018618
H           -1.70537494569952        2.94567295947059       -3.96707664587083
H           -0.61161235291268        2.67638860141334       -5.03224585114987
O           -1.66620346958069        1.55842673453813        4.24842410353915
H           -2.63020454832259        1.68230848784998        4.33368792995483
H           -1.23739939686945        2.36024059126435        4.57803275840255
O           -0.78567441924128       -2.33283617421027        4.68747981218212
H           -1.46168262164807       -3.03525541935838        4.69843376664401
H           -0.20285375267518       -2.53422361515435        3.94933060159082
O           -0.66623353101758        4.57489327420532        1.55091871986655
H           -1.33596724294526        5.28107522706912        1.56664228348546
H           -0.98830255315669        3.86579999287194        0.98184008550473
O           -2.81709485330175       -0.50702368955911        5.78705418371974
H           -2.20541433809377       -1.04906488506412        5.30274225356623
H           -2.27475239859047        0.10671582822574        6.29125205355020
O            1.48306151973067        3.87399153975640       -2.40418117112814
H            2.32975190212198        3.69089075219182       -2.84632465622660
H            0.91143221428968        4.30811443498968       -3.04677574280859
O           -2.47242182356214       -4.00996863833802        3.00963132501653
H           -1.69154811185726       -4.54349662691075        2.80986938274201
H           -2.39407357051211       -3.17991464121710        2.51660912615893
34
 energy: -56.642277103516 gnorm: 0.059951784484 xtb: 6.7.1 (edcfbbe)
H            1.41316914746429       -0.74166493773166       -0.49679048374475
C            0.32732031903411       -0.73256552171410       -0.63198897738927
H            0.44987058563314        0.59558587959576       -2.27264724705964
H            0.02790624780227       -1.62392407332557       -1.19002264187295
N           -0.05879480926529        0.48227454929167       -1.38039742519806
H           -0.07800026026442       -1.53251185018132        1.34209634100136
C           -0.32671020577169       -0.65902271638583        0.74247462407568
O            0.03343288996362        1.71881179956301        0.89728632333055
C            0.24715731348130        0.62544894842186        1.48213015300943
H            0.12220017986977        1.29780373051930       -0.69477138905582
O            0.87549701310722        0.42932519775727        2.51546735805481
H           -1.07557402475095        0.48957950321009       -1.53592595128229
H           -1.41134492429922       -0.56747292308298        0.67020734195640
O           -0.78155285127736        2.89751377548981       -4.14661205921437
H           -1.70617805724982        2.90295992319527       -3.97404751673128
H           -0.61934968546072        2.62456099395639       -5.03519450506790
O           -1.67252774454167        1.58495663607191        4.24753621413513
H           -2.62505667730157        1.71213240629203        4.31810490508820
H           -1.24269444106288        2.39417760391243        4.55726301044897
O           -0.81084034577040       -2.32327901896366        4.71852800997334
H           -1.47003462055263       -3.02724881061539        4.70063631204689
H           -0.21057242477146       -2.50765683842572        4.00927686434877
O           -0.69011695778538        4.62371155452124        1.58199809275869
H           -1.37618243331855        5.30970077933895        1.54389744136629
H           -0.96117303368106        3.88859015811395        1.02559168260899
O           -2.80978540550660       -0.55110009483315        5.82001237629762
H           -2.17209741874088       -1.04996683362826        5.29778539912563
H           -2.30466309392299        0.07445892078425        6.33568176670207
O            1.49631802850745        3.86097786778504       -2.38507130721217
H            2.34970715274752        3.71019974143055       -2.81226123314111
H            0.93288180076535        4.27679048349999       -3.02201130537211
O           -2.46669048735333       -4.04159289824543        3.00562026994559
H           -1.70043209839166       -4.56314722999840        2.79160709283924
H           -2.40828367733934       -3.22086970561889        2.49698946322971
34
 energy: -56.643249364812 gnorm: 0.080595332359 xtb: 6.7.1 (edcfbbe)
H            1.41218833511561       -0.74727203958548       -0.52628686358179
C            0.32696476122436       -0.72717295925351       -0.64770830291914
H            0.45043362388793        0.60948122251696       -2.26428512883317
H            0.01800650905887       -1.62315364473632       -1.18539005941948
N           -0.06552440168356        0.48011416577969       -1.39332821764205
H           -0.05685560418561       -1.50716913759238        1.33640944500328
C           -0.30998864330644       -0.63961967334109        0.73274781288446
O            0.05797481662304        1.71665128326299        0.91904136437301
C            0.27918705251610        0.62290872937675        1.47372014372463
H            0.09230410965091        1.28366950410332       -0.68430473530833
O            0.89891159356414        0.42927112034443        2.51268127752860
H           -1.07529133952017        0.47326915001086       -1.56685553689237
H           -1.39451907250279       -0.55709592675323        0.66984065991455
O           -0.77003425434782        2.86021300189290       -4.15290362039111
H           -1.71274226247597        2.94953854026563       -3.98279550547828
H           -0.64858324197442        2.61734300229973       -5.06622707624196
O           -1.68839078083169        1.58951488505961        4.26484999356623
H           -2.62653999410440        1.73076395778162        4.30817247422529
H           -1.25308490797177        2.40099277070608        4.54120262738164
O           -0.87900136284277       -2.32889761034205        4.74955460945301
H           -1.50614671249211       -3.09234367912605        4.63461084129796
H           -0.16880862396934       -2.43842433570821        4.06477847217927
O           -0.71043619313352        4.65473623004081        1.61225806500673
H           -1.40998770314162        5.32209710131324        1.52339807624476
H           -0.93701861038477        3.89134518164850        1.06022825409695
O           -2.81759142936168       -0.59336886390070        5.85906315145232
H           -2.12176975573501       -1.03018564097614        5.28231722190993
H           -2.31914961776438        0.07577007321550        6.34545363868271
O            1.54004983015437        3.87239356515990       -2.35351225321821
H            2.37111577784565        3.73487426218428       -2.81599379326766
H            0.89515388081815        4.21710642980882       -3.00006688597383
O           -2.43542071473916       -4.02061254451066        3.08226563357004
H           -1.71466410829097       -4.60998972490048        2.71430070258925
H           -2.42393595570345       -3.25921139604494        2.47521251408463
34
 energy: -56.646655279005 gnorm: 0.049986350118 xtb: 6.7.1 (edcfbbe)
H            1.41195513245911       -0.74443603564744       -0.54186756973592
C            0.32648460198266       -0.72330850071358       -0.65075436453136
H            0.44633805710045        0.62386615599969       -2.25726069474273
H            0.00940573689997       -1.62105475840532       -1.18117541342867
N           -0.07271477022940        0.48625947182086       -1.39287501401382
H           -0.04279195044456       -1.51132397152911        1.34137615085287
C           -0.29655476561860       -0.64527484364603        0.73726961860984
O            0.08570464339702        1.71150146922520        0.87607582427543
C            0.27763506715881        0.61753387857027        1.47447281369555
H            0.07686446036710        1.28778675806752       -0.69099970782824
O            0.91786736825794        0.44085193180632        2.51284580277646
H           -1.07788968502762        0.47139889108015       -1.57977193010732
H           -1.38035924188790       -0.55434004950852        0.67320813009218
O           -0.76793115812586        2.84809447159538       -4.15804232380118
H           -1.71270906695483        2.95587961052276       -3.98629093613518
H           -0.66558619708587        2.62055364229285       -5.08735476034080
O           -1.68621153824911        1.59988738748623        4.24699228860680
H           -2.63603119827420        1.73050348132648        4.32262374855432
H           -1.25706880468939        2.41227942926142        4.52398079209403
O           -0.86818303215561       -2.33828779965153        4.75961206926449
H           -1.51183309713803       -3.07526932439561        4.64288112077220
H           -0.18817376859540       -2.44354776869902        4.06305285370944
O           -0.71792092967991        4.67102113541908        1.62910180066590
H           -1.43146183696380        5.32705681807940        1.51582536751117
H           -0.92256916294588        3.89181013376505        1.07698813385235
O           -2.81090653810549       -0.58456366045357        5.85384279770420
H           -2.14266924961546       -1.05870657622688        5.34481434820908
H           -2.31281417588214        0.09264951619270        6.33881612835329
O            1.55405907225934        3.85926472917682       -2.33991347702337
H            2.38857900433643        3.75226424218690       -2.82089582974376
H            0.87655918642279        4.19563610775368       -2.97966209282124
O           -2.45361505574853       -4.06690601576479        3.00553232108401
H           -1.71107630689895       -4.60772875598194        2.76162344735207
H           -2.40757580033008       -3.26381420100477        2.48837755621996
34
 energy: -56.641957767015 gnorm: 0.111233912117 xtb: 6.7.1 (edcfbbe)
H            1.41256957130801       -0.74155391019421       -0.56886993440869
C            0.32471248433406       -0.72304100910073       -0.66006550331105
H            0.45431982973485        0.66247207796378       -2.24751413516315
H           -0.00384770330965       -1.62236466730688       -1.18602776105437
N           -0.08459091562446        0.49283525422323       -1.39268086013345
H           -0.02378812453597       -1.52314334976998        1.34134014858536
C           -0.27752220095781       -0.65493919997711        0.74092563235329
O            0.11560946373274        1.70805722211228        0.82893418933958
C            0.28376628698928        0.60926399967914        1.46780894554439
H            0.04423179722147        1.28725455364233       -0.68015132856605
O            0.94002866672846        0.45020495294996        2.50706832631750
H           -1.08471241974997        0.46123241944388       -1.60868874931301
H           -1.36179942511820       -0.54832467829004        0.68193880802858
O           -0.77675624770347        2.82235479173574       -4.16343610787255
H           -1.72261415929301        2.95992093441430       -4.01151612927744
H           -0.68697399227764        2.63075524098462       -5.11468638106450
O           -1.68777607278596        1.61761905116875        4.22416816698259
H           -2.65223978449681        1.73740705386538        4.34002218615820
H           -1.26298245987548        2.43412658837888        4.50076989583878
O           -0.82764328713081       -2.35279548804989        4.74976509552844
H           -1.49957656371256       -3.01313549460948        4.68058733196119
H           -0.24931421831978       -2.49672407530614        4.04804442731078
O           -0.73047674834132        4.66711037469530        1.64582633222305
H           -1.40548790640065        5.32706396974589        1.53835984444482
H           -0.93851088209938        3.94253977344222        1.08449851941136
O           -2.80654665219533       -0.57626434659038        5.86569672569906
H           -2.16092527672716       -1.06826540070119        5.38391711959955
H           -2.31294382241241        0.08076089914111        6.36291052950498
O            1.50019677046962        3.80061470900962       -2.35834861560525
H            2.37885045934584        3.74018292908485       -2.75893405983968
H            0.97060597337547        4.24267641793800       -2.97265670874634
O           -2.42616371248351       -4.06301889666118        3.06337335246896
H           -1.71043136511689       -4.65130718682613        2.69813762142341
H           -2.43446236257778       -3.28203851023503        2.49193207563407
34
 energy: -56.648707759367 gnorm: 0.049285554406 xtb: 6.7.1 (edcfbbe)
H            1.41421004382568       -0.74120317735112       -0.58115076935834
C            0.32540204261272       -0.72261275194346       -0.66825456767045
H            0.46071862493196        0.67112430487179       -2.25039774339300
H           -0.00638442354945       -1.62257282835848       -1.19027881432062
N           -0.08623980923806        0.49059741793186       -1.40032138807230
H           -0.01441421042071       -1.51424792969224        1.33385091191170
C           -0.27000534545392       -0.64391453837742        0.73564286105785
O            0.10561309723180        1.71463554765412        0.86560598432018
C            0.31439376803711        0.61479973896874        1.45437811468752
H            0.03521931842082        1.28187804367082       -0.67179501482144
O            0.93917369222431        0.44705924368584        2.50438830771306
H           -1.08583604259528        0.45433002119739       -1.62248719410657
H           -1.35565395216206       -0.54103656632411        0.68879070080737
O           -0.78069375353279        2.81783712799331       -4.16582090713232
H           -1.72811600909951        2.96594436538192       -4.02391611649588
H           -0.68492128798784        2.62826703227430       -5.11240554902151
O           -1.69858086688571        1.61572284402397        4.23707115142382
H           -2.65128092298220        1.74823011962136        4.32709654680634
H           -1.26585334316002        2.43558629442839        4.49538062150399
O           -0.84862119124030       -2.36732527996763        4.78513310786235
H           -1.52706874053894       -3.05625140319354        4.63156849095748
H           -0.21499071282427       -2.44445523280026        4.06763032426427
O           -0.74241594057066        4.69082095579707        1.66915406908494
H           -1.45696670641003        5.33617031509226        1.50898587532563
H           -0.90209526285881        3.91632642632031        1.10252444506422
O           -2.81558928403894       -0.59003037999574        5.89275158453343
H           -2.13861822300653       -1.05018528603289        5.36175550318740
H           -2.32007750212827        0.07390541154030        6.37842659018474
O            1.51286921133748        3.79293650643114       -2.35182903506577
H            2.38493585491330        3.73893275790006       -2.76265011898475
H            0.96129178779674        4.23707484017139       -2.96195077300231
O           -2.43069713407927       -4.09087843874445        3.02581830592520
H           -1.70179628336658       -4.63779063517679        2.73399427075974
H           -2.43010549320825       -3.29213786699728        2.48575922406653
34