37
 energy: -59.887244051745 gnorm: 0.000341106489 xtb: 6.7.1 (edcfbbe)
N           -0.17835886366708       -1.24249769691792        1.21618320659143
C           -0.12291032043112        0.22356323657774        1.12028307846443
C           -0.30776338319668        0.68201453323034       -0.32481806613983
C            0.91998062919152        0.46148469663339       -1.22359020627307
C            1.05152806955637       -0.94792019682764       -1.81288665291915
O            0.99769404693722       -1.08779882861078       -3.04650025882361
O            1.23085881490518       -1.91141472783554       -1.01072009796495
H            0.05469798762285       -1.59020130541854        2.17677883668039
H           -1.12320575721544       -1.56890178338308        0.93597172023772
H           -0.91787166057485        0.64648166175397        1.73461372616226
H            0.83789886585282        0.57270124915073        1.50106220291553
H           -0.51952438647954        1.75131475113163       -0.31953483408261
H           -1.17311911440299        0.17532954979815       -0.75601873057893
H            1.83443595173280        0.66969847099511       -0.66245910708970
H            0.87811867939098        1.14105991497495       -2.07666072419909
H            0.49154137759972       -1.63800693725774        0.52427597141537
O            0.48274748215425       -2.25003149998896        3.66026628475409
H            1.39434072052784       -2.52519702378950        3.79152448025824
H           -0.05097996959810       -3.07101394706407        3.65868843181894
O           -0.94918867842107       -4.54667611103473        3.37208773150538
H           -1.85383618833010       -4.70359396410298        3.65474156211936
H           -0.87799887658035       -4.91077700572622        2.46744781393078
O            2.55249184364808       -4.14027593327591       -2.02247236134061
H            2.15551007155690       -3.34232566415832       -1.61832744320226
H            3.48703619013138       -3.95026771832185       -2.14044868958113
O            0.34233803970952       -3.72797736076831       -3.74824660390489
H            0.52878211949850       -2.77082022988384       -3.68181787045462
H            1.13479740313599       -4.14918843573814       -3.37337383838208
O           -2.54218652753596       -1.97314468432961       -0.05264314829621
H           -2.09807088428182       -2.66369180856783       -0.57961170744063
H           -3.40776425970099       -2.31455929625156        0.18561451693718
O           -0.82189384253108       -3.75526071285021       -1.25179641367336
H           -0.73165968894659       -3.96477721626711       -2.19871475499944
H           -0.04864176979513       -3.18465414456903       -1.07808919111615
O           -0.78980089781966       -5.57651250376418        0.82619390545934
H           -0.07232246103112       -6.18168910384396        0.62156549803172
H           -0.84573076261797       -4.96017822362355        0.07019773317474
