34
 energy: -56.707429561330 gnorm: 0.000296619759 xtb: 6.7.1 (edcfbbe)
H            1.50401858547890       -0.83018836705331       -0.95903335532812
C            0.43673782565838       -1.05367643734934       -0.92120169598516
H           -0.00013662847353        0.43188055109030       -2.32224719849314
H            0.22846409097195       -1.92081150287989       -1.54924104472748
N           -0.31909130276652        0.11935444851205       -1.40638249380115
H            0.55178402872681       -2.19644282067377        0.91378196151856
C            0.03157466272253       -1.32548632141161        0.51977619500375
O            0.45682058725745        1.00165404841948        0.96630784897590
C            0.30929507598084       -0.13687231286781        1.46812637240877
H           -0.14426267757637        0.84611487496672       -0.67377171551454
O            0.33949921259074       -0.38364986030428        2.69554511014410
H           -1.34389991149724       -0.10310122321401       -1.43394695951227
H           -1.03851566528405       -1.52856709577358        0.57830379507059
O           -3.58267640813192       -2.61647581584141        0.37601335654661
H           -2.82360076587480       -3.17761604638968        0.65416171664958
H           -4.30086186586122       -3.22688554392035        0.17960336337219
O            0.10092632015269       -3.49661907541474       -3.15251083045091
H            0.19891872007881       -4.41388119469137       -2.88328570453899
H            0.05543595393904       -3.48532241908661       -4.11345398840065
O           -1.20044694167583       -2.43994291722502        3.52310397351100
H           -0.58545667855447       -1.71163679867323        3.27701215361723
H           -2.09662915932297       -2.05013951172010        3.46645362848041
O           -1.57712378737501       -4.11123483396327        1.40478787547257
H           -1.35800211114784       -3.55727151532251        2.18433737164321
H           -1.69578512655347       -5.00409752719717        1.74037387658356
O           -2.96519690196802       -0.59431153211005       -1.45707626590111
H           -3.38109056948539       -0.84716789545692       -2.28678773135235
H           -3.18101548029578       -1.28828820068322       -0.80880638478950
O           -0.67377840061699       -3.40001216007917        6.10637539857230
H           -0.84607701714535       -3.13498715367572        5.18311837420357
H           -0.35545944711211       -2.60739646091297        6.54816959591279
O           -3.69387337518689       -1.41870729001249        2.88546981905351
H           -3.74302009304487       -1.77721159679639        1.97610508850334
H           -3.92819674859164       -0.48876849222931        2.82830949354207
