37
 energy: -59.877548647451 gnorm: 0.001868466067 xtb: 6.7.1 (edcfbbe)
N            0.77242653541803       -0.90978484257499        1.81117260927986
C            1.27563395107557       -0.37781766096916        0.53256395175460
C            0.50654871550933        0.86954108233917        0.10625239717933
C           -0.78036438770855        0.53234561397439       -0.64056983471297
C           -0.53425812947327       -0.03040640925677       -2.05611686663338
O            0.40685248194378        0.43646200585090       -2.73561382178076
O           -1.32301857651226       -0.91712961038094       -2.46657196423955
H            1.33501926280457       -1.72813682673479        2.11251376990112
H            0.82612938069522       -0.16821721124420        2.54411781445288
H            2.33015077121662       -0.12668649456220        0.64031668185960
H            1.18768220936795       -1.13384990445956       -0.24850885358989
H            1.13402927516330        1.46192468474539       -0.56055324980894
H            0.27409877688311        1.47252713108718        0.98455959870684
H           -1.39332753110520       -0.18364681132093       -0.09697862762068
H           -1.37377078510404        1.43804999052354       -0.79368036290595
H           -0.21800943653078       -1.21934067710688        1.73582957310506
O            0.34480546476158       -0.27261544257607        6.13210858199996
H           -0.51329994965964       -0.69152215820150        6.25075263281183
H            1.01160926757736       -0.89909571826167        6.43124890046287
O            2.22251848067902       -3.20264926570172        2.49784252274578
H            1.66354027256039       -3.98452351628837        2.46663031509466
H            3.04234243091368       -3.41070740598172        2.04284759640261
O           -2.80348776792582       -2.36153219386651       -0.71236414775487
H           -3.08535072357301       -3.16598064250120       -1.17805775760254
H           -2.29968419443795       -1.83657868767392       -1.37276840351228
O           -1.82646574337935       -1.92104844771972        1.79428351001715
H           -2.56088962343480       -1.48135690364118        2.23313391833067
H           -2.15860823178454       -2.19517539492080        0.91893611796295
O            0.91918670456570        1.05858054239663        3.75087074368893
H            1.74150074798277        1.52623900161981        3.91939701511499
H            0.64381658924947        0.67395598180661        4.60235853696161
O            3.10546867488150        0.47670370533043       -2.15097747173836
H            2.15981873818686        0.44960646669616       -2.38535615480087
H            3.56326948483063        0.74971795317017       -2.95209905658534
O           -3.57307833608149       -4.50589637769212       -2.42488799262013
H           -4.19213852907868       -4.17670924581854       -3.08488870997118
H           -2.85663327062542       -4.93836331013536       -2.90158051190677
