37
 energy: -59.771297418941 gnorm: 0.184941520453 xtb: 6.7.1 (edcfbbe)
N           -0.44376700000000       -0.47181200000000        1.74520500000000
C            0.69351000000000        0.10436000000000        1.02689900000000
C            0.25232500000000        0.99958500000000       -0.14624500000000
C           -0.57382300000000        0.30680200000000       -1.24485700000000
C            0.17276200000000       -0.78812900000000       -1.95771100000000
O            0.40822200000000       -0.68794500000000       -3.15102700000000
O            0.54634400000000       -1.90328400000000       -1.30373900000000
H           -0.08747200000000       -1.00411400000000        2.57127000000000
H           -1.08118400000000        0.28586300000000        2.08138600000000
H            1.28097900000000        0.73286000000000        1.73117400000000
H            1.36804500000000       -0.70373400000000        0.67713900000000
H            1.15866700000000        1.44313000000000       -0.61117500000000
H           -0.35578800000000        1.83434200000000        0.26527400000000
H           -1.51736400000000       -0.10080200000000       -0.82923500000000
H           -0.85273400000000        1.08677100000000       -1.98587200000000
H           -0.96872000000000       -1.13389300000000        1.13151600000000
O            0.77252100000000       -0.61796400000000        7.11475500000000
H            0.48602500000000       -1.44932900000000        6.65938300000000
H            1.40270700000000       -0.19223000000000        6.48053900000000
O            2.34997100000000       -3.23673100000000        2.15999500000000
H            1.84330800000000       -4.08650100000000        2.11763300000000
H            3.02820300000000       -3.31625100000000        1.44285400000000
O           -0.91294500000000       -3.26573900000000       -3.27268000000000
H           -1.61692100000000       -2.84966200000000       -3.83116800000000
H           -0.11526600000000       -3.29334700000000       -3.85881900000000
O           -2.73423700000000       -1.93605500000000        3.92984500000000
H           -3.29923400000000       -1.12385200000000        3.88842200000000
H           -3.08469900000000       -2.51904100000000        3.21018100000000
O           -0.51037700000000        0.46907900000000        4.26158600000000
H            0.38215800000000        0.83119000000000        4.03165500000000
H           -0.32044400000000       -0.39473500000000        4.70696700000000
O            3.74862300000000        0.68357400000000       -2.76461200000000
H            2.83236600000000        0.31811200000000       -2.85133900000000
H            4.28242200000000        0.17427300000000       -3.42513000000000
O           -2.88668600000000       -2.84892600000000       -1.99701600000000
H           -3.66119900000000       -3.42686800000000       -2.21316900000000
H           -3.01223500000000       -2.61211400000000       -1.04372100000000
37
 energy: -59.796233031375 gnorm: 0.092110967933 xtb: 6.7.1 (edcfbbe)
N           -0.44091858646812       -0.47728984179879        1.73321757491299
C            0.70193896829177        0.10937102575009        1.02126292372278
C            0.25185954300427        1.00295643792357       -0.13568458496291
C           -0.57195600402304        0.30634621291818       -1.22929980579750
C            0.16597992009592       -0.80574764877071       -1.95612771355702
O            0.45697792497984       -0.67027642053260       -3.15659453621031
O            0.56513607069501       -1.82327568174951       -1.26635398743901
H           -0.10467661973262       -1.01398547930946        2.54806077977807
H           -1.07454334469926        0.26296793094561        2.08089222857237
H            1.28279251443638        0.72469211626276        1.71924855517746
H            1.34613927640565       -0.69770343557053        0.65237949379130
H            1.14664683301534        1.43427587104691       -0.60129772942623
H           -0.34729648109471        1.83286549476848        0.26197216999474
H           -1.50614626319982       -0.10436457634388       -0.82821266736517
H           -0.84468039859701        1.05732004104657       -1.98498187237980
H           -0.95190757332984       -1.12185485766831        1.11337146705350
O            0.75940630053814       -0.61315574111362        7.09674026862544
H            0.50376166436235       -1.45126235209847        6.67483930279384
H            1.40951051376295       -0.20859856900722        6.49688231552197
O            2.34512092174025       -3.24075656716087        2.14985501493793
H            1.85472598556961       -4.07809610046973        2.11317480742355
H            3.01622581691841       -3.31199836927824        1.45329895962430
O           -0.91299810958069       -3.34164393215211       -3.33537761172021
H           -1.58094498456158       -2.84212556084058       -3.84302895114370
H           -0.09666918789655       -3.27386081474590       -3.86531514669210
O           -2.71254457444508       -1.91681811534247        3.89626528700749
H           -3.30084685720076       -1.14179574445971        3.90182891778245
H           -3.09819908104184       -2.52173490572878        3.23909384579011
O           -0.50096291180605        0.46769774625886        4.24787434950608
H            0.37921541976112        0.83864287864421        4.06567893141100
H           -0.33737171722426       -0.36348779216400        4.72521471215809
O            3.73464498356635        0.67437367100342       -2.76670061840586
H            2.83863498403886        0.31197522795409       -2.86191860068313
H            4.27309545334648        0.18395868599406       -3.41095558923941
O           -2.95985350217100       -2.80891933262796       -1.98411574801245
H           -3.67629013267038       -3.43680028744255       -2.18760120420075
H           -3.03894376478618       -2.63500821414089       -1.03142253835010
37
 energy: -59.803602546391 gnorm: 0.053467448848 xtb: 6.7.1 (edcfbbe)
N           -0.43866803981478       -0.48723817443339        1.71707383878987
C            0.71010256845859        0.11524252898068        1.01217487269079
C            0.25177919674044        1.01532814290658       -0.12562887647164
C           -0.56000950214906        0.31454434488872       -1.21865316777057
C            0.27487309001941       -0.78071491253357       -1.92094280237773
O            0.48744931003770       -0.65109176909848       -3.15467591133446
O            0.49409368993363       -1.79711676607337       -1.26342126334499
H           -0.12227513854526       -1.03379065419184        2.51972933629237
H           -1.06921588173610        0.23467748234407        2.08144024817349
H            1.28589735582044        0.71143220527843        1.71023236618021
H            1.32390687903353       -0.69057616870263        0.61798056603277
H            1.13677850904298        1.43912515472652       -0.59181841687080
H           -0.34826193890723        1.83353764588037        0.26239075772244
H           -1.47836871322488       -0.12731363849561       -0.83597122476589
H           -0.83875339002361        1.03917387843283       -1.98442732536936
H           -0.93148077276527       -1.11022906572511        1.08003402723272
O            0.74277499820008       -0.60921206348604        7.07361735932733
H            0.52499444833607       -1.46299917909637        6.69458276770361
H            1.42605675090561       -0.22827457076566        6.51783108435900
O            2.33860819251424       -3.24475869624493        2.13974228885821
H            1.86063839597037       -4.07064276187133        2.10805813668416
H            3.00595276671713       -3.30069973171538        1.46190812885913
O           -0.90159336376381       -3.40367689226701       -3.39524673965483
H           -1.55432813285267       -2.85480373924497       -3.84466794554413
H           -0.08000900739676       -3.26078014016728       -3.87936956452930
O           -2.69566338435858       -1.89949890929749        3.86620071679978
H           -3.29546416193909       -1.15348053632867        3.91506674979249
H           -3.10814629246204       -2.52836966396617        3.26980303718933
O           -0.49225077122569        0.47498215632888        4.23774950327824
H            0.37715437238840        0.85635412211526        4.10857555971642
H           -0.36700611092345       -0.32227554204341        4.75608077683198
O            3.71319215072678        0.66305682102722       -2.76687368015024
H            2.83420593755680        0.30379283755430       -2.87409621795077
H            4.26473745979751        0.19575507382248       -3.39474330746105
O           -3.03849683271035       -2.76583417749443       -1.96960384947642
H           -3.69201094643417       -3.44533164486486       -2.16882494380909
H           -3.06713069096714       -2.66140999617856       -1.01514388563354
37
 energy: -59.809554142009 gnorm: 0.077752294614 xtb: 6.7.1 (edcfbbe)
N           -0.43813855483446       -0.49861370972263        1.70192714781005
C            0.71051408265783        0.11385429736293        1.00136872303000
C            0.24977025015306        1.02480408251660       -0.12862277235849
C           -0.56050873109637        0.32507906200036       -1.22557339126424
C            0.25050900774004       -0.80829973497782       -1.91689608817670
O            0.56848249863902       -0.62256169346837       -3.12578186491595
O            0.53698667770499       -1.78207397598541       -1.22937305760405
H           -0.12539784124101       -1.06081547861349        2.49746938971139
H           -1.06809972111597        0.21770245562965        2.08137048876185
H            1.29217693260101        0.69732871671433        1.70728055586017
H            1.31740967524063       -0.69093382549822        0.59188597131792
H            1.13708072153745        1.44983991661262       -0.59371617835123
H           -0.34763239735077        1.84237182146165        0.26969920148278
H           -1.47582135165544       -0.12183033690071       -0.84254550326134
H           -0.83415854010845        1.04887949707551       -1.99304963886262
H           -0.92566011846287       -1.10820011700961        1.04458818585323
O            0.69617298800825       -0.58561634280212        7.04328324109174
H            0.55860913386461       -1.49541256540001        6.71823370437412
H            1.46531670753830       -0.25503109091299        6.54071031391750
O            2.32314195964877       -3.23793645175757        2.13122597594862
H            1.86072516846711       -4.07602234946913        2.10537282249730
H            3.00897845560414       -3.28552097835858        1.46646754959052
O           -0.90648477797734       -3.48331966449259       -3.44263048320425
H           -1.53741877853451       -2.84586711484692       -3.84177811359195
H           -0.05613038759939       -3.23784879596338       -3.87972346925709
O           -2.64590876536548       -1.86849589952475        3.81771292727657
H           -3.30537133991495       -1.16194634854680        3.94168938463197
H           -3.13401374193763       -2.55217047839176        3.30724227012416
O           -0.49573078086860        0.47743006547465        4.19342974176056
H            0.38698604218923        0.88540098679087        4.16310156485970
H           -0.40492912296143       -0.27634425927053        4.80680406440678
O            3.68969635113820        0.65102919485986       -2.75339040196781
H            2.81205492482245        0.29094956188063       -2.89808583919744
H            4.26805241252229        0.20992711930015       -3.38210764017568
O           -3.10946262200221       -2.71267587360149       -1.97459577060925
H           -3.70710209968804       -3.46357148802878       -2.16213129867069
H           -3.08063131736288       -2.69660520413621       -0.99469871283920
37
 energy: -59.809004347958 gnorm: 0.069930846610 xtb: 6.7.1 (edcfbbe)
N           -0.43752169688602       -0.51456329133784        1.67975903785383
C            0.71009269402904        0.11197715665100        0.98828270169920
C            0.24694120081035        1.03942015466236       -0.13175842317884
C           -0.55833045370716        0.34116134972338       -1.23648243888668
C            0.22744602666020       -0.82951102813300       -1.91512393418494
O            0.66372880731819       -0.59330697124681       -3.09256366769972
O            0.59331226612697       -1.76898557796606       -1.18177048328326
H           -0.12681499851651       -1.09841885842100        2.46584180585161
H           -1.06817186101268        0.19479735083140        2.07891200132001
H            1.29894202222855        0.68051143380091        1.70657535191372
H            1.31545405328105       -0.68874506584609        0.56244724981497
H            1.13778826485377        1.47176015628259       -0.59279907701672
H           -0.35010998178701        1.85532336029177        0.28215632077515
H           -1.47194407195802       -0.11186363871052       -0.85183130231695
H           -0.82711734391313        1.06316670123809       -2.00761684194049
H           -0.92056968349813       -1.10803577230075        0.99750095042073
O            0.70778657641033       -0.60572066156203        7.03351311106044
H            0.56791553063589       -1.51388459101218        6.72480676332308
H            1.47989372214096       -0.27277239690181        6.54880675336369
O            2.30245353271147       -3.22773191237864        2.12199660886002
H            1.86118063015299       -4.08502445003962        2.10060443567534
H            3.01392286707780       -3.26465366265041        1.47241983015370
O           -0.86197794257383       -3.43847420090183       -3.46600987076302
H           -1.54401919785926       -2.90666267604225       -3.85152548696378
H           -0.06150224566144       -3.28021271568050       -3.93225677892175
O           -2.68977816106226       -1.89551562265218        3.85773970757911
H           -3.27517330701623       -1.14961770107768        3.93425450302103
H           -3.09669699926887       -2.53765401710278        3.29456553212492
O           -0.49729427645304        0.51661929011734        4.22980964322054
H            0.38083512530296        0.91421977643779        4.19677012329748
H           -0.43615510577480       -0.23339558352172        4.84123545289781
O            3.65346025157448        0.63497162302543       -2.73899858020310
H            2.77568424379494        0.27385841963686       -2.93746296882090
H            4.26662560070531        0.22862131104639       -3.37150710544377
O           -3.13523655981383       -2.75120860876611       -1.93093532221390
H           -3.74491238631764       -3.45162129162146       -2.15400489762655
H           -3.12607414273585       -2.69194478787171       -0.97918770476381
37
 energy: -59.815572017720 gnorm: 0.026354247533 xtb: 6.7.1 (edcfbbe)
N           -0.43446851338105       -0.52000316810459        1.67154380684450
C            0.71179300733468        0.11375963265429        0.98630157052400
C            0.24747390292952        1.04636583005650       -0.12971517039880
C           -0.54540231489171        0.34191222968482       -1.23828336312891
C            0.29711512188520       -0.79635368297101       -1.90043729205378
O            0.66453535337021       -0.60710203532554       -3.08795597407742
O            0.57532452235493       -1.78192425449891       -1.18000110707136
H           -0.12078809310090       -1.11210340145984        2.45088101742367
H           -1.06570933307847        0.18541231859003        2.07835367495391
H            1.29980994988131        0.67907461932757        1.70832477272842
H            1.32214440960009       -0.68152132531015        0.55684958157478
H            1.13648932325578        1.48796320403995       -0.58673900387924
H           -0.35819476430725        1.85673153980398        0.28380720122419
H           -1.46136905335926       -0.11756558601398       -0.86011192995126
H           -0.81683439856785        1.05683423340893       -2.01619449017160
H           -0.91763266091049       -1.10800012720963        0.98411880390306
O            0.72072299087620       -0.62211021738957        7.02913530889471
H            0.57167753709925       -1.52100759056828        6.72349804905755
H            1.48325155904920       -0.28465697610716        6.54893839910625
O            2.29605264546639       -3.22384250267551        2.12051802446044
H            1.86201645390637       -4.08541525570318        2.09364507385394
H            3.01062954776273       -3.25467750029524        1.47360641120663
O           -0.87319558597744       -3.50364940786258       -3.49389100724389
H           -1.54171694140953       -2.89275324557097       -3.83921395592716
H           -0.04503442498687       -3.24846556745179       -3.93038709781659
O           -2.65902962811062       -1.87695907329985        3.83185790881927
H           -3.28045172369615       -1.15364445836429        3.94712310413427
H           -3.11112062666779       -2.55245272606917        3.31817475501798
O           -0.50384395705340        0.53374440403604        4.23967131581475
H            0.36962333359784        0.93378706495710        4.21265732429049
H           -0.44790499148013       -0.20526833469591        4.85827596442607
O            3.62998035012828        0.63361199831584       -2.73717345245345
H            2.75762740748395        0.26240922266626       -2.94339034531980
H            4.25287192119435        0.23051762579178       -3.36138124509041
O           -3.16191464200892       -2.73811632081875       -1.93285197533064
H           -3.75470844780017       -3.45746057568808       -2.15933819173520
H           -3.13575623638895       -2.71018758987877       -0.97405346661117
37
 energy: -59.810417250765 gnorm: 0.117046109560 xtb: 6.7.1 (edcfbbe)
N           -0.42591408948692       -0.52875289206334        1.66429158593420
C            0.71740642186559        0.11861217161766        0.98683821303086
C            0.24764360907288        1.05276311813725       -0.12325446430729
C           -0.52782670229500        0.34000256694745       -1.23681385495883
C            0.37035006851189       -0.76662445748847       -1.88626974666012
O            0.72058065066299       -0.58855535575556       -3.07238612733217
O            0.56820946861887       -1.78195605509306       -1.19204280388612
H           -0.10917619097027       -1.13426361570070        2.42902107839423
H           -1.05740436224525        0.16579184956818        2.08606369136137
H            1.30116191339156        0.67923669488098        1.71138170983304
H            1.33079507248906       -0.66767936834943        0.54939156174981
H            1.13107034812388        1.50851476624567       -0.57417411111053
H           -0.37009763659020        1.85293191521111        0.28777892380777
H           -1.44797940104210       -0.12295583515962       -0.87417781976680
H           -0.79310633880582        1.04725288892923       -2.02239843011224
H           -0.90493753566828       -1.10479006608352        0.96702917993078
O            0.64297610072252       -0.58744947850855        6.96247949081221
H            0.62654706433217       -1.57195317939463        6.74844469321103
H            1.54356817821983       -0.33841109058368        6.57563373411827
O            2.29360524359068       -3.22213518861265        2.12482186561779
H            1.85769131633600       -4.07673892463449        2.08024912053464
H            2.99670216191026       -3.23619252536038        1.47274337587043
O           -0.85799050740806       -3.49895316677269       -3.51086856282190
H           -1.54471993580623       -2.92934469593600       -3.83869411739221
H           -0.04954046817252       -3.27739922209282       -3.94435204746141
O           -2.60805988091366       -1.84397442394964        3.78303202854412
H           -3.28835701376505       -1.16402468918345        3.97110907720920
H           -3.13056927477221       -2.57519316532682        3.36198975776102
O           -0.51768658245804        0.52943462640408        4.17323886926757
H            0.35619627287709        0.98406614027506        4.27014170186222
H           -0.48337889545083       -0.13547542853992        4.91420132279524
O            3.58365776957526        0.63608123171099       -2.74566538480671
H            2.72543835307414        0.24261026748447       -2.93789895583622
H            4.21448392096228        0.22525803978345       -3.34474113155943
O           -3.24329859772143       -2.66309152217923       -1.94796240339542
H           -3.74966045671472       -3.49249881200085       -2.16597733267898
H           -3.14431706405128       -2.76726011842574       -0.95604068756039
37
 energy: -59.819962005417 gnorm: 0.045697700128 xtb: 6.7.1 (edcfbbe)
N           -0.42252924939748       -0.53319383995292        1.66079147062847
C            0.71963529629936        0.12031417453498        0.98701998258057
C            0.24785234875936        1.05456329378869       -0.12150514294900
C           -0.52243268584082        0.33992641496240       -1.23764128361883
C            0.35985264204238       -0.77661352328136       -1.88916548274997
O            0.76498772258096       -0.56750450680474       -3.06067566426386
O            0.58058281978404       -1.77853306452797       -1.19836038746324
H           -0.10465335708767       -1.14569611178023        2.41884622698889
H           -1.05447946475297        0.15647680938428        2.08895509999676
H            1.30147392796927        0.67894285809412        1.71375959911405
H            1.33442051508375       -0.66272343554568        0.54628085238398
H            1.12981082438350        1.51647233129903       -0.56957492950497
H           -0.37391018219985        1.85097014081395        0.29122465271854
H           -1.44360004279532       -0.12112079616881       -0.87893851861030
H           -0.78236996341675        1.04811712744184       -2.02355317636695
H           -0.89906810096274       -1.10339163738625        0.95733514892997
O            0.71173433303829       -0.63991150889283        6.98418606283549
H            0.60033225619906       -1.56006837040054        6.73168424490197
H            1.51521606971357       -0.32732123083737        6.55896864140863
O            2.29231740360510       -3.22134050016875        2.12583478377268
H            1.85557123528498       -4.07421803920338        2.07406981179413
H            2.99218185041275       -3.22722750931253        1.47133256846177
O           -0.86829137861332       -3.57007529779997       -3.54794237437335
H           -1.53873686317964       -2.90991776806808       -3.82080307180732
H           -0.03444019896596       -3.23862167363151       -3.94318082722979
O           -2.61943834916030       -1.85015884366054        3.79093315587660
H           -3.27857102187463       -1.16187993977459        3.97054795196500
H           -3.11823939436811       -2.57134689263788        3.36293945303592
O           -0.51848844570289        0.55540505086438        4.21585074510093
H            0.34079043917967        0.99627643059267        4.26354603623971
H           -0.48893814093341       -0.12357580674258        4.90902248448673
O            3.56244607968036        0.63559977938416       -2.74829690133077
H            2.70865762623558        0.23389447008793       -2.93896308391219
H            4.19919482712233        0.22466748794906       -3.33875945739303
O           -3.23792421778972       -2.70859768800805       -1.92719005105540
H           -3.77256729235797       -3.47782910576569       -2.16923459767299
H           -3.16431686797582       -2.75387627884501       -0.96318102291968
37
 energy: -59.818307984981 gnorm: 0.080740568897 xtb: 6.7.1 (edcfbbe)
N           -0.41386754599863       -0.54246780253722        1.65559176145195
C            0.72476104396871        0.12310995091797        0.98870787098403
C            0.25018243984061        1.06146543079984       -0.11692911195305
C           -0.50238490921837        0.34604416207713       -1.24587267329424
C            0.38341348953625       -0.76947710183830       -1.88700944469998
O            0.83015250132448       -0.55029464791892       -3.04302048583532
O            0.58648498404255       -1.78713113878021       -1.19440448893547
H           -0.09066500407478       -1.16875751990244        2.40234550361084
H           -1.04660510117496        0.14018681484360        2.09698551254634
H            1.30226232884618        0.68120494594868        1.72197021665814
H            1.34872410124968       -0.65265483571330        0.54546686988205
H            1.13095748730404        1.53707631813192       -0.55627429064100
H           -0.38480544372274        1.84850635305789        0.29828008702341
H           -1.42525219229579       -0.12115409501082       -0.89523338946825
H           -0.75869220011288        1.05502064041063       -2.03358519532122
H           -0.89229101995490       -1.10308110906083        0.94350836216713
O            0.66420635556029       -0.62413293600484        6.93290090332909
H            0.63206122652551       -1.59710026574882        6.73849972764179
H            1.55438055331870       -0.36512939210766        6.56778190367502
O            2.27346933562551       -3.21233584068652        2.12235330961959
H            1.85784395320389       -4.08039721399377        2.06195655546777
H            2.98799095254568       -3.20264932614137        1.47649749596139
O           -0.87037240103652       -3.58442102835100       -3.57067038161414
H           -1.53735817308796       -2.92785684375677       -3.83624959518097
H           -0.02671088991841       -3.23856793100317       -3.94198916103563
O           -2.65375108926050       -1.87350662084869        3.82721946734439
H           -3.25393704621358       -1.15233032651698        3.96018078277692
H           -3.08506996456923       -2.55823873775170        3.35046080834546
O           -0.52648383431921        0.60034904788539        4.28096269621746
H            0.31055908156834        1.02837355184479        4.25537005158532
H           -0.49389105711941       -0.09924850740005        4.90579767365311
O            3.50746627337691        0.62799412827221       -2.73550481393144
H            2.65901628886546        0.21108769528047       -2.96330782726272
H            4.17458883423556        0.23652322071664       -3.31895819989024
O           -3.26295970973777       -2.72716052857205       -1.91642044877872
H           -3.79743193444905       -3.48091091148886       -2.17134813377976
H           -3.18192871467493       -2.77105459905234       -0.95989691832015
37
 energy: -59.819871479119 gnorm: 0.079051939876 xtb: 6.7.1 (edcfbbe)
N           -0.40350019064089       -0.54942302734186        1.65420744408254
C            0.72987881329307        0.12593346916758        0.99148606021202
C            0.25221116714430        1.06702363342060       -0.11276582369712
C           -0.48199884837846        0.35168856455879       -1.25516425807254
C            0.40614172155629       -0.75743204454436       -1.88596534113731
O            0.89702036119299       -0.53002347870773       -3.02224332182011
O            0.59293977956940       -1.79732583806393       -1.19454531879614
H           -0.07233899881010       -1.18943149694489        2.38809752351460
H           -1.03490549084043        0.12662707403449        2.11070921509679
H            1.30378661311694        0.68577891096672        1.72971422388824
H            1.36473125127830       -0.64304139003066        0.54800039638220
H            1.13147087854717        1.55692443902268       -0.54335974431984
H           -0.39726453753904        1.84401749119358        0.30440290028550
H           -1.40568966379930       -0.12250854132959       -0.91045144116922
H           -0.73683201029565        1.06279865700494       -2.04328006609469
H           -0.88816230840374       -1.09973583939102        0.93650877393707
O            0.73005484208427       -0.68250645898735        6.93725957374119
H            0.61071434106556       -1.59632812700498        6.71728265478483
H            1.53162393038270       -0.36439682656896        6.54673701067871
O            2.25601480130024       -3.20259712131408        2.12127126388821
H            1.85822491955056       -4.08463504489124        2.05210898851979
H            2.98214410206971       -3.18085211455872        1.48084785098252
O           -0.85124202407288       -3.52756759130797       -3.57273193346628
H           -1.54160634484163       -2.97018631877930       -3.85634689120323
H           -0.03982233129031       -3.29195570112892       -3.95660618887925
O           -2.63443533120501       -1.86092973436689        3.80696307043110
H           -3.25083214653444       -1.15376588504801        3.96786402967497
H           -3.08840785103672       -2.57273078149630        3.37523874685088
O           -0.53544609999924        0.59405855327107        4.22961735859037
H            0.29660818875137        1.07216202160369        4.28739772397299
H           -0.51850847861489       -0.04560041155405        4.95440398412895
O            3.45833978428516        0.62304298618481       -2.72446215603236
H            2.61093034090681        0.19446806467290       -2.97689597677197
H            4.14394411289298        0.24281111243223       -3.30368766059179
O           -3.29718565769139       -2.72763289982536       -1.90775287045938
H           -3.80947643734144       -3.49392305086038       -2.17418715920236
H           -3.19506219765366       -2.79592225348685       -0.95350964193070
37
 energy: -59.819431598417 gnorm: 0.101826679853 xtb: 6.7.1 (edcfbbe)
N           -0.39767092820381       -0.55456783077633        1.65201381427825
C            0.73402794759524        0.12720342810613        0.99093583477826
C            0.25337602986468        1.06469900219066       -0.11178230222306
C           -0.47952485240859        0.34558214010031       -1.25123932754120