
                                 *****************
                                 * O   R   C   A *
                                 *****************

                                            #,                                       
                                            ###                                      
                                            ####                                     
                                            #####                                    
                                            ######                                   
                                           ########,                                 
                                     ,,################,,,,,                         
                               ,,#################################,,                 
                          ,,##########################################,,             
                       ,#########################################, ''#####,          
                    ,#############################################,,   '####,        
                  ,##################################################,,,,####,       
                ,###########''''           ''''###############################       
              ,#####''   ,,,,##########,,,,          '''####'''          '####       
            ,##' ,,,,###########################,,,                        '##       
           ' ,,###''''                  '''############,,,                           
         ,,##''                                '''############,,,,        ,,,,,,###''
      ,#''                                            '''#######################'''  
     '                                                          ''''####''''         
             ,#######,   #######,   ,#######,      ##                                
            ,#'     '#,  ##    ##  ,#'     '#,    #''#        ,####,   ,####,        
            ##       ##  ##   ,#'  ##            #'  '#       #'       #'  '#        
            ##       ##  #######   ##           ,######,      #####,   #    #        
            '#,     ,#'  ##    ##  '#,     ,#' ,#      #,     #,   #   #,  ,#        
             '#######'   ##     ##  '#######'  #'      '#     '####' # '####'        



                #########################################################
                #                        -***-                          #
                #          Department of theory and spectroscopy        #
                #                                                       #
                #                      Frank Neese                      #
                #                                                       #
                #     Directorship, Architecture, Infrastructure        #
                #                    SHARK, DRIVERS                     #
                #        Core code/Algorithms in most modules           #
                #                                                       #
                #        Max Planck Institute fuer Kohlenforschung      #
                #                Kaiser Wilhelm Platz 1                 #
                #                 D-45470 Muelheim/Ruhr                 #
                #                      Germany                          #
                #                                                       #
                #                  All rights reserved                  #
                #                        -***-                          #
                #########################################################


                         Program Version 6.0.1  -  RELEASE   -


 With contributions from (in alphabetic order):
[Max-Planck-Institut fuer Kohlenforschung]                               
  Daniel Aravena         : Magnetic Suceptibility                        
  Michael Atanasov       : Ab Initio Ligand Field Theory (pilot matlab implementation)
  Alexander A. Auer      : GIAO ZORA, VPT2 properties, NMR spectrum      
  Ute Becker             : All parallelization in ORCA, NUMFREQ, NUMCALC 
  Giovanni Bistoni       : ED, misc. LED, open-shell LED, HFLD           
  Martin Brehm           : Molecular dynamics                            
  Dmytro Bykov           : pre 5.0 version of the SCF Hessian            
  Marcos Casanova-Páez   : Triplet and SCS-CIS(D). UHF-(DLPNO)-IP/EA/STEOM-CCSD. UHF-CVS-IP/STEOM-CCSD   
  Vijay G. Chilkuri      : MRCI spin determinant printing, contributions to CSF-ICE 
  Pauline Colinet        : FMM embedding                                 
  Dipayan Datta          : RHF DLPNO-CCSD density                        
  Achintya Kumar Dutta   : EOM-CC, STEOM-CC                              
  Nicolas Foglia         : Exact transition moments, OPA infrastructure, MCD improvements    
  Dmitry Ganyushin       : Spin-Orbit,Spin-Spin,Magnetic field MRCI      
  Miquel Garcia-Rates    : C-PCM and meta-GGA Hessian, CCSD/C-PCM, Gaussian charge scheme 
  Tiago L. C. Gouveia    : GS-ROHF, GS-ROCIS                             
  Yang Guo               : DLPNO-NEVPT2, F12-NEVPT2, CIM, IAO-localization        
  Andreas Hansen         : Spin unrestricted coupled pair/coupled cluster methods 
  Ingolf Harden          : AUTO-CI MPn and infrastructure                
  Benjamin Helmich-Paris : MC-RPA, TRAH-(SCF,CASSCF), AVAS, COSX integrals, SCF dyn. polar. 
  Lee Huntington         : MR-EOM, pCC                                   
  Robert Izsak           : Overlap fitted RIJCOSX, COSX-SCS-MP3, EOM     
  Riya Kayal             : Wick's Theorem for AUTO-CI, AUTO-CI UHF-CCSDT 
  Emily Kempfer          : AUTO-CI, RHF CISDT and CCSDT                  
  Christian Kollmar      : KDIIS, OOCD, Brueckner-CCSD(T), CCSD density, CASPT2, CASPT2-K, improved NEVPT2 
  Axel Koslowski         : Symmetry handling                             
  Simone Kossmann        : meta-GGA functionals, TD-DFT gradient, OOMP2, (MP2 Hessian; deprecated post 5.0) 
  Lucas Lang             : DCDCAS                                        
  Marvin Lechner         : AUTO-CI (C++ implementation), FIC-MRCC        
  Spencer Leger          : CASSCF response                               
  Dagmar Lenk            : GEPOL surface, SMD, ORCA-2-JSON               
  Dimitrios Liakos       : Extrapolation schemes; Compound Job, initial MDCI parallelization 
  Dimitrios Manganas     : Further ROCIS development; embedding schemes. LFT, Crystal Embedding 
  Dimitrios Pantazis     : SARC Basis sets                               
  Anastasios Papadopoulos: AUTO-CI, single reference methods and gradients 
  Taras Petrenko         : pre 6.0 DFT Hessian and TD-DFT gradient, (ASA, deprecated), ECA, 1-Electron XAS/XES, NRVS 
  Peter Pinski           : DLPNO-MP2, DLPNO-MP2 Gradient                 
  Christoph Reimann      : Effective Core Potentials                     
  Marius Retegan         : Local ZFS, SOC                                
  Christoph Riplinger    : Optimizer, TS searches, QM/MM, DLPNO-CCSD(T), (RO)-DLPNO pert. Triples 
  Michael Roemelt        : Original ROCIS implementation                 
  Masaaki Saitow         : Open-shell DLPNO-CCSD energy and density      
  Barbara Sandhoefer     : DKH picture change effects                    
  Kantharuban Sivalingam : CASSCF convergence/infrastructure, NEVPT2 and variants, FIC-MRCI 
  Bernardo de Souza      : ESD, SOC TD-DFT                               
  Georgi L. Stoychev     : AutoAux, RI-MP2 NMR, DLPNO-MP2 response, X2C  
  Van Anh Tran           : RI-MP2 g-tensors                              
  Willem Van den Heuvel  : Paramagnetic NMR                              
  Zikuan Wang            : NOTCH, Electric field optimization            
  Frank Wennmohs         : Technical directorship and infrastructure     
  Hang Xu                : AUTO-CI-Response properties                   
                                                                         
[FACCTs GmbH]                                                            
  Markus Bursch, Miquel Garcia-Rates, Christoph Riplinger, Bernardo de Souza, Georgi L. Stoychev 
                                                                 
  APM, Basis sets (HGBS, AHGBS, def-TZVP (Ac-Lr), def2-XVPD (La-Lu)), CI-OPT, improved COSX, DLPNO-Multilevel,           
  DOCKER, DRACO, updates on ESD, GOAT, IRC, LR-CPCM, MBIS, meta-GGA TD-DFT gradient, ML-optimized integration grids, 
  MM, NACMEs, nearIR, NEB, NEB-TS, NL-DFT gradient (VV10), 2- and 3-layer-ONIOM, interface openCOSMO-RS, QMMM,   
  Crystal-QMMM, SF, symmetry and pop. for TD-DFT, r2SCAN hybrids, SOLVATOR                                   
                                                                         
[Other institutions]                                                     
  V. Asgeirsson          : NEB                                           
  Christoph Bannwarth    : sTDA-DFT, sTD-DFT, PBEh-3c, B97-3c, D3        
  Sebastian Ehlert       : rSCAN, r2SCAN, r2SCAN-3c, D4, dhf basis sets  
  Marvin Friede          : D4 for Fr, Ra, Ac-Lr                          
  Lars Goerigk           : TD-DFT with DH, B97 family of functionals     
  Stefan Grimme          : VdW corrections, initial TS optimization, DFT functionals, gCP, sTDA/sTD-DF 
  Waldemar Hujo          : DFT-NL                                        
  H. Jonsson             : NEB                                           
  Holger Kruse           : gCP                                           
  Marcel Mueller         : wB97X-3c, vDZP basis set                      
  Hagen Neugebauer       : wr2SCAN                                       
  Tobias Risthaus        : range-separated hybrid DFT                    
  Lukas Wittmann         : regularized MP2, r2SCAN double-hybrids, wr2SCAN        
                                                                         
We gratefully acknowledge several colleagues who have allowed us to      
interface, adapt or use parts of their codes:                            
  Ed Valeev, F. Pavosevic, A. Kumar             : LibInt (2-el integral package), F12 methods 
  Garnet Chan, S. Sharma, J. Yang, R. Olivares  : DMRG                   
  Ulf Ekstrom                                   : XCFun DFT Library      
  Mihaly Kallay                                 : mrcc  (arbitrary order and MRCC methods)
  Frank Weinhold                                : gennbo (NPA and NBO analysis)           
  Simon Mueller                                 : openCOSMO-RS                            
  Christopher J. Cramer and Donald G. Truhlar   : smd solvation model                     
  S Lehtola, MJT Oliveira, MAL Marques          : LibXC Library                           
  Liviu Ungur et al                             : ANISO software                          


 Your calculation uses the libint2 library for the computation of 2-el integrals
 For citations please refer to: http://libint.valeyev.net

 Your ORCA version has been built with support for libXC version: 6.2.2
 For citations please refer to: https://libxc.gitlab.io

 This ORCA versions uses:
   CBLAS   interface :  Fast vector & matrix operations
   LAPACKE interface :  Fast linear algebra routines
   SCALAPACK package :  Parallel linear algebra routines
   Shared memory     :  Shared parallel matrices
   BLAS/LAPACK       :  OpenBLAS 0.3.27  USE64BITINT DYNAMIC_ARCH NO_AFFINITY SkylakeX SINGLE_THREADED
        Core in use  :  SkylakeX
   Copyright (c) 2011-2014, The OpenBLAS Project


NOTE: MaxCore=3000 MB was set to SCF,MP2,MDCI,CIPSI,MRCI and CIS
      => If you want to overwrite this, your respective input block should be placed after the MaxCore statement
Your calculation utilizes the atom-pairwise dispersion correction
based on EEQ partial charges (D4)


Warning: RI is on but no J-basis has been assigned. Assigning Def2/J (nothing to worry about!)
================================================================================

----- Orbital basis set information -----
Your calculation utilizes the basis: def2-TZVP
   F. Weigend and R. Ahlrichs, Phys. Chem. Chem. Phys. 7, 3297 (2005).

----- AuxJ basis set information -----
Your calculation utilizes the auxiliary basis: def2/J
   F. Weigend, Phys. Chem. Chem. Phys. 8, 1057 (2006).

================================================================================
                                        WARNINGS
                       Please study these warnings very carefully!
================================================================================


WARNING: Geometry Optimization
  ===> : Switching off AutoStart
         For restart on a previous wavefunction, please use MOREAD

================================================================================
                                       INPUT FILE
================================================================================
NAME = 00_Aminobutyric-acid_zwitterion.inp
|  1> ! Opt B3LYP D4 def2-TZVP TightSCF TightOpt CPCM(water)
|  2> 
|  3> %maxcore 3000
|  4> 
|  5> %pal
|  6> nprocs 30
|  7> end
|  8> 
|  9> * xyz 0 1
| 10> N          1.28140       -0.07040        0.38350
| 11> C          2.73350       -0.02580        0.21490
| 12> C          3.10740        0.41630       -1.20620
| 13> C          4.63080        0.46390       -1.38570
| 14> C          5.03820        0.89430       -2.76990
| 15> O          4.11820        1.19310       -3.70930
| 16> O          6.22360        0.97470       -3.04830
| 17> H          0.87120        0.87820        0.22270
| 18> H          0.86210       -0.75450       -0.28760
| 19> H          3.15620       -1.03590        0.41360
| 20> H          3.16580        0.68710        0.95210
| 21> H          2.68250        1.42650       -1.39690
| 22> H          2.67290       -0.30120       -1.93690
| 23> H          5.05410       -0.54570       -1.19220
| 24> H          5.06370        1.17930       -0.65300
| 25> H          1.05900       -0.37410        1.35900
| 26> *
| 27> 
| 28>                          ****END OF INPUT****
================================================================================

                       *****************************
                       * Geometry Optimization Run *
                       *****************************

Geometry optimization settings:
Update method            Update   .... BFGS
Choice of coordinates    CoordSys .... (2022) Redundant Internals
Initial Hessian          InHess   .... Almloef's Model
Max. no of cycles        MaxIter  .... 50

Convergence Tolerances:
Energy Change            TolE     ....  1.0000e-06 Eh
Max. Gradient            TolMAXG  ....  1.0000e-04 Eh/bohr
RMS Gradient             TolRMSG  ....  3.0000e-05 Eh/bohr
Max. Displacement        TolMAXD  ....  1.0000e-03 bohr
RMS Displacement         TolRMSD  ....  6.0000e-04 bohr
Strict Convergence                .... False

------------------------------------------------------------------------------
                        ORCA OPTIMIZATION COORDINATE SETUP
------------------------------------------------------------------------------

The optimization will be done in redundant internal coordinates (2022)
Making redundant internal coordinates   ...  (2022 redundants) done
Evaluating the initial hessian          ...  (Almloef) done
Evaluating the coordinates              ...  done
Calculating the B-matrix                .... done
Calculating the G-matrix                .... done
Diagonalizing the G-matrix              .... done
Small eigenvalue found = 2.173e-02
The first mode is                       ....   23
The number of degrees of freedom        ....   42

    -----------------------------------------------------------------
                    Redundant Internal Coordinates


    -----------------------------------------------------------------
         Definition                    Initial Value    Approx d2E/dq
    -----------------------------------------------------------------
      1. B(C   1,N   0)                  1.4625         0.428697   
      2. B(C   2,C   1)                  1.5345         0.367411   
      3. B(C   3,C   2)                  1.5347         0.367211   
      4. B(C   4,C   3)                  1.5057         0.408409   
      5. B(O   5,C   4)                  1.3484         0.652023   
      6. B(O   6,C   4)                  1.2203         1.043790   
      7. B(H   7,N   0)                  1.0459         0.379207   
      8. B(H   8,N   0)                  1.0460         0.379062   
      9. B(H   9,C   1)                  1.1129         0.331093   
     10. B(H  10,C   1)                  1.1129         0.331031   
     11. B(H  11,C   2)                  1.1124         0.331667   
     12. B(H  12,C   2)                  1.1124         0.331607   
     13. B(H  13,C   3)                  1.1117         0.332486   
     14. B(H  14,C   3)                  1.1118         0.332414   
     15. B(H  15,N   0)                  1.0456         0.379651   
     16. A(H   8,N   0,H  15)          108.8648         0.290867   
     17. A(H   7,N   0,H   8)          109.7123         0.290814   
     18. A(C   1,N   0,H   8)          110.1191         0.329741   
     19. A(C   1,N   0,H  15)          109.1225         0.329826   
     20. A(C   1,N   0,H   7)          110.1213         0.329762   
     21. A(H   7,N   0,H  15)          108.8710         0.290885   
     22. A(H   9,C   1,H  10)          108.3975         0.283302   
     23. A(C   2,C   1,H  10)          109.5267         0.319010   
     24. A(N   0,C   1,H  10)          109.1985         0.325224   
     25. A(C   2,C   1,H   9)          109.5300         0.319020   
     26. A(N   0,C   1,C   2)          110.9445         0.368648   
     27. A(N   0,C   1,H   9)          109.1996         0.325234   
     28. A(C   1,C   2,H  11)          109.1065         0.319110   
     29. A(C   3,C   2,H  12)          109.3229         0.319073   
     30. A(C   1,C   2,H  12)          109.1053         0.319101   
     31. A(C   3,C   2,H  11)          109.3262         0.319082   
     32. A(C   1,C   2,C   3)          111.0462         0.361259   
     33. A(H  11,C   2,H  12)          108.9009         0.283455   
     34. A(H  13,C   3,H  14)          108.7476         0.283670   
     35. A(C   2,C   3,C   4)          112.6416         0.367857   
     36. A(C   4,C   3,H  14)          108.4549         0.324807   
     37. A(C   2,C   3,H  14)          109.2318         0.319199   
     38. A(C   4,C   3,H  13)          108.4556         0.324818   
     39. A(C   2,C   3,H  13)          109.2347         0.319211   
     40. A(O   5,C   4,O   6)          119.2905         0.475258   
     41. A(C   3,C   4,O   6)          119.4317         0.439334   
     42. A(C   3,C   4,O   5)          121.2778         0.403942   
     43. D(H   9,C   1,N   0,H   8)    -60.2576         0.016789   
     44. D(H   9,C   1,N   0,H   7)    178.6260         0.016789   
     45. D(H   9,C   1,N   0,H  15)     59.1797         0.016789   
     46. D(C   2,C   1,N   0,H  15)    179.9981         0.016789   
     47. D(C   2,C   1,N   0,H   7)    -60.5555         0.016789   
     48. D(C   2,C   1,N   0,H   8)     60.5608         0.016789   
     49. D(C   3,C   2,C   1,N   0)   -179.9996         0.010801   
     50. D(H  11,C   2,C   1,H  10)    -61.1876         0.010801   
     51. D(H  11,C   2,C   1,H   9)   -179.9452         0.010801   
     52. D(H  11,C   2,C   1,N   0)     59.4319         0.010801   
     53. D(C   3,C   2,C   1,H  10)     59.3809         0.010801   
     54. D(C   3,C   2,C   1,H   9)    -59.3767         0.010801   
     55. D(C   4,C   3,C   2,H  12)     59.5660         0.010790   
     56. D(C   4,C   3,C   2,H  11)    -59.5606         0.010790   
     57. D(C   4,C   3,C   2,C   1)   -179.9992         0.010790   
     58. D(H  13,C   3,C   2,H  12)    -61.0194         0.010790   
     59. D(H  13,C   3,C   2,H  11)    179.8540         0.010790   
     60. D(H  13,C   3,C   2,C   1)     59.4154         0.010790   
     61. D(O   6,C   4,C   3,C   2)   -179.9999         0.012357   
     62. D(O   5,C   4,C   3,H  14)   -121.0262         0.012357   
     63. D(O   5,C   4,C   3,H  13)    121.0324         0.012357   
     64. D(O   6,C   4,C   3,H  13)    -58.9686         0.012357   
     65. D(O   5,C   4,C   3,C   2)      0.0011         0.012357   
    -----------------------------------------------------------------

Number of atoms                         .... 16
Number of degrees of freedom            .... 65


         *************************************************************
         *                GEOMETRY OPTIMIZATION CYCLE   1            *
         *************************************************************
---------------------------------
CARTESIAN COORDINATES (ANGSTROEM)
---------------------------------
  N      1.281400   -0.070400    0.383500
  C      2.733500   -0.025800    0.214900
  C      3.107400    0.416300   -1.206200
  C      4.630800    0.463900   -1.385700
  C      5.038200    0.894300   -2.769900
  O      4.118200    1.193100   -3.709300
  O      6.223600    0.974700   -3.048300
  H      0.871200    0.878200    0.222700
  H      0.862100   -0.754500   -0.287600
  H      3.156200   -1.035900    0.413600
  H      3.165800    0.687100    0.952100
  H      2.682500    1.426500   -1.396900
  H      2.672900   -0.301200   -1.936900
  H      5.054100   -0.545700   -1.192200
  H      5.063700    1.179300   -0.653000
  H      1.059000   -0.374100    1.359000

----------------------------
CARTESIAN COORDINATES (A.U.)
----------------------------
  NO LB      ZA    FRAG     MASS         X           Y           Z
   0 N     7.0000    0    14.007    2.421495   -0.133037    0.724710
   1 C     6.0000    0    12.011    5.165566   -0.048755    0.406102
   2 C     6.0000    0    12.011    5.872135    0.786693   -2.279388
   3 C     6.0000    0    12.011    8.750944    0.876644   -2.618594
   4 C     6.0000    0    12.011    9.520818    1.689982   -5.234352
   5 O     8.0000    0    15.999    7.782270    2.254632   -7.009561
   6 O     8.0000    0    15.999   11.760900    1.841916   -5.760452
   7 H     1.0000    0     1.008    1.646329    1.659557    0.420842
   8 H     1.0000    0     1.008    1.629133   -1.425798   -0.543485
   9 H     1.0000    0     1.008    5.964354   -1.957567    0.781591
  10 H     1.0000    0     1.008    5.982495    1.298431    1.799208
  11 H     1.0000    0     1.008    5.069190    2.695694   -2.639758
  12 H     1.0000    0     1.008    5.051049   -0.569186   -3.660211
  13 H     1.0000    0     1.008    9.550865   -1.031224   -2.252931
  14 H     1.0000    0     1.008    9.569006    2.228554   -1.233991
  15 H     1.0000    0     1.008    2.001220   -0.706947    2.568138

--------------------------------
INTERNAL COORDINATES (ANGSTROEM)
--------------------------------
 N      0   0   0     0.000000000000     0.00000000     0.00000000
 C      1   0   0     1.462535308975     0.00000000     0.00000000
 C      2   1   0     1.534528862550   110.94447589     0.00000000
 C      3   2   1     1.534677024654   111.04618414   180.00035553
 C      4   3   2     1.505731901767   112.64162919   180.00081565
 O      5   4   3     1.348389335467   121.27776483     0.00000000
 O      5   4   3     1.220304830770   119.43169340   180.00010751
 H      1   2   3     1.045926689592   110.12134474   299.44445295
 H      1   2   3     1.046030836066   110.11909323    60.56079144
 H      2   1   3     1.112860723541   109.19957729   239.18159460
 H      2   1   3     1.112912188809   109.19846304   120.81361175
 H      3   2   1     1.112389563058   109.10654041    59.43185813
 H      3   2   1     1.112438308402   109.10525832   300.56396936
 H      4   3   2     1.111718174719   109.23472135    59.41540571
 H      4   3   2     1.111777342816   109.23181655   300.58337044
 H      1   2   3     1.045607813666   109.12249084   179.99813053

---------------------------
INTERNAL COORDINATES (A.U.)
---------------------------
 N      0   0   0     0.000000000000     0.00000000     0.00000000
 C      1   0   0     2.763791195154     0.00000000     0.00000000
 C      2   1   0     2.899839294818   110.94447589     0.00000000
 C      3   2   1     2.900119280617   111.04618414   180.00035553
 C      4   3   2     2.845420925449   112.64162919   180.00081565
 O      5   4   3     2.548086565932   121.27776483     0.00000000
 O      5   4   3     2.306041930056   119.43169340   180.00010751
 H      1   2   3     1.976514999487   110.12134474   299.44445295
 H      1   2   3     1.976711807801   110.11909323    60.56079144
 H      2   1   3     2.103001992690   109.19957729   239.18159460
 H      2   1   3     2.103099247952   109.19846304   120.81361175
 H      3   2   1     2.102111628412   109.10654041    59.43185813
 H      3   2   1     2.102203743762   109.10525832   300.56396936
 H      4   3   2     2.100842888321   109.23472135    59.41540571
 H      4   3   2     2.100954699822   109.23181655   300.58337044
 H      1   2   3     1.975912411317   109.12249084   179.99813053

---------------------
BASIS SET INFORMATION
---------------------
There are 4 groups of distinct atoms

 Group   1 Type N   : 11s6p2d1f contracted to 5s3p2d1f pattern {62111/411/11/1}
 Group   2 Type C   : 11s6p2d1f contracted to 5s3p2d1f pattern {62111/411/11/1}
 Group   3 Type O   : 11s6p2d1f contracted to 5s3p2d1f pattern {62111/411/11/1}
 Group   4 Type H   : 5s1p contracted to 3s1p pattern {311/1}

Atom   0N    basis set group =>   1
Atom   1C    basis set group =>   2
Atom   2C    basis set group =>   2
Atom   3C    basis set group =>   2
Atom   4C    basis set group =>   2
Atom   5O    basis set group =>   3
Atom   6O    basis set group =>   3
Atom   7H    basis set group =>   4
Atom   8H    basis set group =>   4
Atom   9H    basis set group =>   4
Atom  10H    basis set group =>   4
Atom  11H    basis set group =>   4
Atom  12H    basis set group =>   4
Atom  13H    basis set group =>   4
Atom  14H    basis set group =>   4
Atom  15H    basis set group =>   4
---------------------------------
AUXILIARY/J BASIS SET INFORMATION
---------------------------------
There are 4 groups of distinct atoms

 Group   1 Type N   : 12s5p4d2f1g contracted to 6s4p3d1f1g pattern {711111/2111/211/2/1}
 Group   2 Type C   : 12s5p4d2f1g contracted to 6s4p3d1f1g pattern {711111/2111/211/2/1}
 Group   3 Type O   : 12s5p4d2f1g contracted to 6s4p3d1f1g pattern {711111/2111/211/2/1}
 Group   4 Type H   : 5s2p1d contracted to 3s1p1d pattern {311/2/1}

Atom   0N    basis set group =>   1
Atom   1C    basis set group =>   2
Atom   2C    basis set group =>   2
Atom   3C    basis set group =>   2
Atom   4C    basis set group =>   2
Atom   5O    basis set group =>   3
Atom   6O    basis set group =>   3
Atom   7H    basis set group =>   4
Atom   8H    basis set group =>   4
Atom   9H    basis set group =>   4
Atom  10H    basis set group =>   4
Atom  11H    basis set group =>   4
Atom  12H    basis set group =>   4
Atom  13H    basis set group =>   4
Atom  14H    basis set group =>   4
Atom  15H    basis set group =>   4


           ************************************************************
           *        Program running with 30 parallel MPI-processes    *
           *              working on a common directory               *
           ************************************************************
------------------------------------------------------------------------------
                             ORCA STARTUP CALCULATIONS
                           -- RI-GTO INTEGRALS CHOSEN --
------------------------------------------------------------------------------
------------------------------------------------------------------------------
                   ___                                                        
                  /   \      - P O W E R E D   B Y -                         
                 /     \                                                     
                 |  |  |   _    _      __       _____    __    __             
                 |  |  |  | |  | |    /  \     |  _  \  |  |  /  |          
                  \  \/   | |  | |   /    \    | | | |  |  | /  /          
                 / \  \   | |__| |  /  /\  \   | |_| |  |  |/  /          
                |  |  |   |  __  | /  /__\  \  |    /   |      \           
                |  |  |   | |  | | |   __   |  |    \   |  |\   \          
                \     /   | |  | | |  |  |  |  | |\  \  |  | \   \       
                 \___/    |_|  |_| |__|  |__|  |_| \__\ |__|  \__/        
                                                                              
                      - O R C A' S   B I G   F R I E N D -                    
                                      &                                       
                       - I N T E G R A L  F E E D E R -                       
                                                                              
 v1 FN, 2020, v2 2021, v3 2022-2024                                           
------------------------------------------------------------------------------


----------------------
SHARK INTEGRAL PACKAGE
----------------------

Number of atoms                             ...     16
Number of basis functions                   ...    271
Number of shells                            ...    113
Maximum angular momentum                    ...      3
Integral batch strategy                     ... SHARK/LIBINT Hybrid
RI-J (if used) integral strategy            ... SPLIT-RIJ (Revised 2003 algorithm where possible)
Printlevel                                  ...      1
Contraction scheme used                     ... SEGMENTED contraction
Prescreening option                         ... SCHWARTZ
   Thresh                                   ... 2.500e-11
   Tcut                                     ... 2.500e-12
   Tpresel                                  ... 2.500e-12 
Coulomb Range Separation                    ... NOT USED
Exchange Range Separation                   ... NOT USED
Multipole approximations                    ... NOT USED
Finite Nucleus Model                        ... NOT USED
CABS basis                                  ... NOT available
Auxiliary Coulomb fitting basis             ... AVAILABLE
   # of basis functions in Aux-J            ...    442
   # of shells in Aux-J                     ...    150
   Maximum angular momentum in Aux-J        ...      4
Auxiliary J/K fitting basis                 ... NOT available
Auxiliary Correlation fitting basis         ... NOT available
Auxiliary 'external' fitting basis          ... NOT available

Checking pre-screening integrals            ... done (  0.0 sec) Dimension = 113
Check shell pair data                       ... done (  0.0 sec)
Shell pair information
Shell pair cut-off parameter TPreSel        ...   2.5e-12
Total number of shell pairs                 ...      6441
Shell pairs after pre-screening             ...      5694
Total number of primitive shell pairs       ...     19096
Primitive shell pairs kept                  ...     12857
          la=0 lb=0:   1704 shell pairs
          la=1 lb=0:   1677 shell pairs
          la=1 lb=1:    433 shell pairs
          la=2 lb=0:    753 shell pairs
          la=2 lb=1:    374 shell pairs
          la=2 lb=2:     92 shell pairs
          la=3 lb=0:    368 shell pairs
          la=3 lb=1:    184 shell pairs
          la=3 lb=2:     85 shell pairs
          la=3 lb=3:     24 shell pairs

Calculating one electron integrals          ... done (  0.0 sec)
Calculating RI/J V-Matrix + Cholesky decomp.... done (  0.0 sec)
Calculating Nuclear repulsion               ... done (  0.0 sec) ENN=    302.157652094796 Eh

Diagonalization of the overlap matrix:
Smallest eigenvalue                        ... 1.231e-04
Time for diagonalization                   ...    0.006 sec
Threshold for overlap eigenvalues          ... 1.000e-07
Number of eigenvalues below threshold      ... 0
Time for construction of square roots      ...    0.003 sec
Total time needed                          ...    0.010 sec

-------------------
DFT GRID GENERATION
-------------------

General Integration Accuracy     IntAcc      ... 4.388
Radial Grid Type                 RadialGrid  ... OptM3 with GC (2021)
Angular Grid (max. ang.)         AngularGrid ... 4 (Lebedev-302)
Angular grid pruning method      GridPruning ... 4 (adaptive)
Weight generation scheme         WeightScheme... mBecke (2022)
Basis function cutoff            BFCut       ... 1.0000e-11
Integration weight cutoff        WCut        ... 1.0000e-14
Partially contracted basis set               ... off
Rotationally invariant grid construction     ... off
Angular grids for H and He will be reduced by one unit

Total number of grid points                  ...    71176
Total number of batches                      ...     1121
Average number of points per batch           ...       63
Average number of grid points per atom       ...     4448

--------------------
COSX GRID GENERATION
--------------------

GRIDX 1
-------
General Integration Accuracy     IntAcc      ... 3.816
Radial Grid Type                 RadialGrid  ... OptM3 with GC (2021)
Angular Grid (max. ang.)         AngularGrid ... 1 (Lebedev-50)
Angular grid pruning method      GridPruning ... 4 (adaptive)
Weight generation scheme         WeightScheme... mBecke (2022)
Basis function cutoff            BFCut       ... 1.0000e-11
Integration weight cutoff        WCut        ... 1.0000e-14
Partially contracted basis set               ... on
Rotationally invariant grid construction     ... off
Angular grids for H and He will be reduced by one unit

Total number of grid points                  ...     9116
Total number of batches                      ...       83
Average number of points per batch           ...      109
Average number of grid points per atom       ...      570
UseSFitting                                  ... on

GRIDX 2
-------
General Integration Accuracy     IntAcc      ... 4.020
Radial Grid Type                 RadialGrid  ... OptM3 with GC (2021)
Angular Grid (max. ang.)         AngularGrid ... 2 (Lebedev-110)
Angular grid pruning method      GridPruning ... 4 (adaptive)
Weight generation scheme         WeightScheme... mBecke (2022)
Basis function cutoff            BFCut       ... 1.0000e-11
Integration weight cutoff        WCut        ... 1.0000e-14
Partially contracted basis set               ... on
Rotationally invariant grid construction     ... off
Angular grids for H and He will be reduced by one unit

Total number of grid points                  ...    19569
Total number of batches                      ...      161
Average number of points per batch           ...      121
Average number of grid points per atom       ...     1223
UseSFitting                                  ... on

GRIDX 3
-------
General Integration Accuracy     IntAcc      ... 4.338
Radial Grid Type                 RadialGrid  ... OptM3 with GC (2021)
Angular Grid (max. ang.)         AngularGrid ... 3 (Lebedev-194)
Angular grid pruning method      GridPruning ... 4 (adaptive)
Weight generation scheme         WeightScheme... mBecke (2022)
Basis function cutoff            BFCut       ... 1.0000e-11
Integration weight cutoff        WCut        ... 1.0000e-14
Partially contracted basis set               ... on
Rotationally invariant grid construction     ... off
Angular grids for H and He will be reduced by one unit

Total number of grid points                  ...    42902
Total number of batches                      ...      343
Average number of points per batch           ...      125
Average number of grid points per atom       ...     2681
UseSFitting                                  ... on
Initializing property integral containers    ... done (  0.0 sec)

SHARK setup successfully completed in   0.5 seconds

Maximum memory used throughout the entire STARTUP-calculation: 23.5 MB


           ************************************************************
           *        Program running with 30 parallel MPI-processes    *
           *              working on a common directory               *
           ************************************************************
-------------------------------------------------------------------------------
                                 ORCA GUESS
                   Start orbitals & Density for SCF / CASSCF
-------------------------------------------------------------------------------

------------
SCF SETTINGS
------------
Hamiltonian:
 Density Functional     Method          .... DFT(GTOs)
 Exchange Functional    Exchange        .... B88
   X-Alpha parameter    XAlpha          ....  0.666667
   Becke's b parameter  XBeta           ....  0.004200
 Correlation Functional Correlation     .... LYP
 LDA part of GGA corr.  LDAOpt          .... VWN-5
 Gradients option       PostSCFGGA      .... off
 Hybrid DFT is turned on
   Fraction HF Exchange ScalHFX         ....  0.200000
   Scaling of DF-GGA-X  ScalDFX         ....  0.720000
   Scaling of DF-GGA-C  ScalDFC         ....  0.810000
   Scaling of DF-LDA-C  ScalLDAC        ....  1.000000
   Perturbative correction              ....  0.000000
   NL short-range parameter             ....  4.800000
 RI-approximation to the Coulomb term is turned on
   Number of AuxJ basis functions       .... 442
   RIJ-COSX (HFX calculated with COS-X)).... on


General Settings:
 Integral files         IntName         .... 00_Aminobutyric-acid_zwitterion
 Hartree-Fock type      HFTyp           .... RHF
 Total Charge           Charge          ....    0
 Multiplicity           Mult            ....    1
 Number of Electrons    NEL             ....   56
 Basis Dimension        Dim             ....  271
 Nuclear Repulsion      ENuc            ....    302.1576520948 Eh

Convergence Acceleration:
 AO-DIIS                CNVDIIS         .... on
   Start iteration      DIISMaxIt       ....    12
   Startup error        DIISStart       ....  0.200000
   # of expansion vecs  DIISMaxEq       ....     5
   Bias factor          DIISBfac        ....   1.050
   Max. coefficient     DIISMaxC        ....  10.000
 MO-DIIS                CNVKDIIS        .... off
 Trust-Rad. Augm. Hess. CNVTRAH         .... auto
   Auto Start mean grad. ratio tolernc. ....  1.125000
   Auto Start start iteration           ....    50
   Auto Start num. interpolation iter.  ....    10
   Max. Number of Micro iterations      ....    24
   Max. Number of Macro iterations      .... Maxiter - #DIIS iter
   Number of Davidson start vectors     ....     2
   Converg. threshold    (grad. norm)   ....   1.000e-05
   Grad. Scal. Fac. for Micro threshold ....   0.100
   Minimum threshold for Micro iter.    ....   1.000e-02
   NR start threshold (gradient norm)   ....   1.000e-04
   Initial trust radius                 ....   0.400
   Minimum AH scaling param. (alpha)    ....   1.000
   Maximum AH scaling param. (alpha)    .... 1000.000
   Quad. conv. algorithm                .... NR
   White noise on init. David. guess    .... on
   Maximum white noise                  ....   0.010
   Pseudo random numbers                .... off
   Inactive MOs                         .... canonical
   Orbital update algorithm             .... Taylor
   Preconditioner                       .... Diag
   Full preconditioner red. dimension   ....   250
 SOSCF                  CNVSOSCF        .... on
   Start iteration      SOSCFMaxIt      ....   150
   Startup grad/error   SOSCFStart      ....  0.003300
   Hessian update       SOSCFHessUp     .... L-BFGS
 Level Shifting         CNVShift        .... on
   Level shift para.    LevelShift      ....    0.2500
   Turn off err/grad.   ShiftErr        ....    0.0010
 Zerner damping         CNVZerner       .... off
 Static damping         CNVDamp         .... on
   Fraction old density DampFac         ....    0.7000
   Max. Damping (<1)    DampMax         ....    0.9800
   Min. Damping (>=0)   DampMin         ....    0.0000
   Turn off err/grad.   DampErr         ....    0.1000

SCF Procedure:
 Maximum # iterations   MaxIter         ....   125
 SCF integral mode      SCFMode         .... Direct
   Integral package                     .... SHARK and LIBINT hybrid scheme
 Reset frequency        DirectResetFreq ....    20
 Integral Threshold     Thresh          ....  2.500e-11 Eh
 Primitive CutOff       TCut            ....  2.500e-12 Eh

Convergence Tolerance:
 Convergence Check Mode ConvCheckMode   .... Total+1el-Energy
 Convergence forced     ConvForced      .... 0
 Energy Change          TolE            ....  1.000e-08 Eh
 1-El. energy change                    ....  1.000e-05 Eh
 Orbital Gradient       TolG            ....  1.000e-05
 Orbital Rotation angle TolX            ....  1.000e-05
 DIIS Error             TolErr          ....  5.000e-07

------------------------------
INITIAL GUESS: MODEL POTENTIAL
------------------------------
Loading Hartree-Fock densities                     ... done
Calculating cut-offs                               ... done
Initializing the effective Hamiltonian             ... done
Setting up the integral package (SHARK)            ... done
Starting the Coulomb interaction                   ... done (   0.0 sec)
Making the grid                                    ... done (   0.0 sec)
Mapping shells                                     ... done
Starting the XC term evaluation                    ... done (   0.0 sec)
  promolecular density results
     # of electrons  =     55.999797186
     EX              =    -46.173245393
     EC              =     -1.888211604
     EX+EC           =    -48.061456998
Transforming the Hamiltonian                       ... done (   0.0 sec)
Diagonalizing the Hamiltonian                      ... done (   0.0 sec)
Back transforming the eigenvectors                 ... done (   0.0 sec)
Now organizing SCF variables                       ... done
                      ------------------
                      INITIAL GUESS DONE (   0.1 sec)
                      ------------------
             **** ENERGY FILE WAS UPDATED (00_Aminobutyric-acid_zwitterion.en.tmp) ****
Finished Guess after   0.8 sec
Maximum memory used throughout the entire GUESS-calculation: 15.4 MB


           ************************************************************
           *        Program running with 30 parallel MPI-processes    *
           *              working on a common directory               *
           ************************************************************

-------------------------------------------------------------------------------------------
                                      ORCA LEAN-SCF
                              memory conserving SCF solver
-------------------------------------------------------------------------------------------

--------------------
CPCM SOLVATION MODEL
--------------------
CPCM parameters:
  Epsilon                                         ...      80.1510
  Refrac                                          ...       1.3328
  Rsolv                                           ...       1.3000
  Surface type                                    ... GAUSSIAN VDW
  Discretization scheme                           ... Constant charge density
    Threshold for H atoms                         ...       5.0000 (charges/Ang^2)
    Threshold for non-H atoms                     ...       5.0000 (charges/Ang^2)
  Epsilon function type                           ...         CPCM
Solvent:                                          ... WATER
Radii:
  Scheme                                          ... Element-dependent radii
  Radius for N  used is    3.5149 Bohr (=   1.8600 Ang.)
  Radius for C  used is    3.8550 Bohr (=   2.0400 Ang.)
  Radius for O  used is    3.4469 Bohr (=   1.8240 Ang.)
  Radius for H  used is    2.4944 Bohr (=   1.3200 Ang.)
Calculating surface                               ...        done! (  0.0s)
Cavity surface points                             ...         1399
Cavity Volume                                     ...     909.5412
Cavity Surface-area                               ...     555.5660
Calculating surface distance matrix               ...        done! (  0.0s)
Performing Cholesky decomposition & store         ...        done! (  0.0s)
Overall time for CPCM initialization              ...                 0.1s

----------------------------------------D-I-I-S--------------------------------------------
Iteration    Energy (Eh)           Delta-E    RMSDP     MaxDP     DIISErr   Damp  Time(sec)
-------------------------------------------------------------------------------------------
               ***  Starting incremental Fock matrix formation  ***
    1    -362.6787495675858395     0.00e+00  5.28e-03  5.75e-01  3.68e-01  0.700   0.4
    2    -362.8381768170240207    -1.59e-01  5.02e-03  5.83e-01  1.44e-01  0.700   0.3
                               ***Turning on AO-DIIS***
    3    -362.8930468482703304    -5.49e-02  1.59e-03  1.64e-01  3.90e-02  0.700   0.3
    4    -362.9275789712123128    -3.45e-02  1.22e-03  7.78e-02  1.64e-02  0.000   0.3
    5    -363.0060982507165477    -7.85e-02  1.30e-03  1.56e-01  9.00e-03  0.000   0.3
                              *** Initializing SOSCF ***
---------------------------------------S-O-S-C-F--------------------------------------
Iteration    Energy (Eh)           Delta-E    RMSDP     MaxDP     MaxGrad    Time(sec)
--------------------------------------------------------------------------------------
    6    -363.0065802288256123    -4.82e-04  4.66e-04  5.49e-02  2.69e-03     0.3
               *** Restarting incremental Fock matrix formation ***
    7    -363.0066244450862882    -4.42e-05  2.49e-04  2.90e-02  3.47e-04     0.4
    8    -363.0066221984754407     2.25e-06  7.99e-05  7.19e-03  7.27e-04     0.3
    9    -363.0066289896242893    -6.79e-06  6.78e-05  7.53e-03  1.18e-04     0.3
   10    -363.0066288796337517     1.10e-07  1.27e-05  1.36e-03  1.01e-04     0.3
   11    -363.0066293594720150    -4.80e-07  1.61e-05  1.86e-03  2.06e-05     0.3
   12    -363.0066293448603005     1.46e-08  7.63e-06  8.93e-04  3.23e-05     0.3
   13    -363.0066293744757218    -2.96e-08  9.48e-07  1.17e-04  8.87e-07     0.3
                  *** Gradient check signals convergence ***

               *****************************************************
               *                     SUCCESS                       *
               *           SCF CONVERGED AFTER  13 CYCLES          *
               *****************************************************

Recomputing exchange energy using gridx3       ... done (    0.399 sec)
Old exchange energy                            :     -9.388189408 Eh
New exchange energy                            :     -9.388170481 Eh
Exchange energy change after final integration :      0.000018927 Eh
Total energy after final integration           :   -363.006610447 Eh
             **** ENERGY FILE WAS UPDATED (00_Aminobutyric-acid_zwitterion.en.tmp) ****

----------------
TOTAL SCF ENERGY
----------------

Total Energy       :       -363.00661044720306 Eh           -9877.91205 eV

Components:
Nuclear Repulsion  :        302.15765209479554 Eh            8222.12772 eV
Electronic Energy  :       -665.02468563592072 Eh          -18096.24169 eV
One Electron Energy:      -1093.66278119471417 Eh          -29760.07725 eV
Two Electron Energy:        428.63809555879345 Eh           11663.83556 eV
CPCM Dielectric    :         -0.13959583335052 Eh              -3.79860 eV

Virial components:
Potential Energy   :       -724.08148286937126 Eh          -19703.25884 eV
Kinetic Energy     :        361.07487242216820 Eh            9825.34679 eV
Virial Ratio       :          2.00534996526365

DFT components:
N(Alpha)           :       27.999990117057 electrons
N(Beta)            :       27.999990117057 electrons
N(Total)           :       55.999980234115 electrons
E(X)               :      -37.337457352795 Eh       
E(C)               :       -2.234173019418 Eh       
E(XC)              :      -39.571630372213 Eh       

CPCM Solvation Model Properties:
Surface-charge          :         -0.02172733939578
Corrected charge        :          0.00000000000000
Outlying charge corr.   :          0.00003600088850 Eh               0.00098 eV
Free-energy (cav+disp)  :  This term is not implemented in the current solvation scheme

---------------
SCF CONVERGENCE
---------------

  Last Energy change         ...    2.9615e-08  Tolerance :   1.0000e-08
  Last MAX-Density change    ...    1.1706e-04  Tolerance :   1.0000e-07
  Last RMS-Density change    ...    9.4760e-07  Tolerance :   5.0000e-09
  Last DIIS Error            ...    2.6863e-03  Tolerance :   5.0000e-07
  Last Orbital Gradient      ...    8.8669e-07  Tolerance :   1.0000e-05
  Last Orbital Rotation      ...    2.4133e-06  Tolerance :   1.0000e-05


----------------
ORBITAL ENERGIES
----------------

  NO   OCC          E(Eh)            E(eV) 
   0   2.0000     -19.055902      -518.5375 
   1   2.0000     -19.038766      -518.0712 
   2   2.0000     -14.433308      -392.7503 
   3   2.0000     -10.241984      -278.6986 
   4   2.0000     -10.225617      -278.2532 
   5   2.0000     -10.174737      -276.8687 
   6   2.0000     -10.166909      -276.6557 
   7   2.0000      -1.012837       -27.5607 
   8   2.0000      -0.995923       -27.1004 
   9   2.0000      -0.890752       -24.2386 
  10   2.0000      -0.788361       -21.4524 
  11   2.0000      -0.701357       -19.0849 
  12   2.0000      -0.617377       -16.7997 
  13   2.0000      -0.578720       -15.7478 
  14   2.0000      -0.558590       -15.2000 
  15   2.0000      -0.510466       -13.8905 
  16   2.0000      -0.472454       -12.8561 
  17   2.0000      -0.468449       -12.7471 
  18   2.0000      -0.421022       -11.4566 
  19   2.0000      -0.409963       -11.1557 
  20   2.0000      -0.402781       -10.9602 
  21   2.0000      -0.366101        -9.9621 
  22   2.0000      -0.359139        -9.7727 
  23   2.0000      -0.346289        -9.4230 
  24   2.0000      -0.331162        -9.0114 
  25   2.0000      -0.239915        -6.5284 
  26   2.0000      -0.233768        -6.3611 
  27   2.0000      -0.210514        -5.7284 
  28   0.0000       0.011154         0.3035 
  29   0.0000       0.046044         1.2529 
  30   0.0000       0.046963         1.2779 
  31   0.0000       0.064529         1.7559 
  32   0.0000       0.066017         1.7964 
  33   0.0000       0.100448         2.7333 
  34   0.0000       0.106797         2.9061 
  35   0.0000       0.114515         3.1161 
  36   0.0000       0.135077         3.6756 
  37   0.0000       0.136803         3.7226 
  38   0.0000       0.153974         4.1899 
*Only the first 10 virtual orbitals were printed.

                    ********************************
                    * MULLIKEN POPULATION ANALYSIS *
                    ********************************

-----------------------
MULLIKEN ATOMIC CHARGES
-----------------------
   0 N :   -0.251208
   1 C :   -0.135941
   2 C :   -0.188822
   3 C :   -0.212926
   4 C :    0.218934
   5 O :   -0.689429
   6 O :   -0.500615
   7 H :    0.337781
   8 H :    0.337752
   9 H :    0.156964
  10 H :    0.157026
  11 H :    0.102064
  12 H :    0.102046
  13 H :    0.112497
  14 H :    0.112652
  15 H :    0.341228
Sum of atomic charges:   -0.0000000

--------------------------------
MULLIKEN REDUCED ORBITAL CHARGES
--------------------------------
  0 N s       :     3.445589  s :     3.445589
      pz      :     1.274706  p :     3.756401
      px      :     1.207147
      py      :     1.274548
      dz2     :     0.007025  d :     0.046885
      dxz     :     0.013821
      dyz     :     0.004282
      dx2y2   :     0.005396
      dxy     :     0.016360
      f0      :     0.000419  f :     0.002334
      f+1     :     0.000212
      f-1     :     0.000375
      f+2     :     0.000314
      f-2     :     0.000083
      f+3     :     0.000502
      f-3     :     0.000429

  1 C s       :     3.256394  s :     3.256394
      pz      :     0.985469  p :     2.770586
      px      :     0.706323
      py      :     1.078794
      dz2     :     0.018364  d :     0.100668
      dxz     :     0.025029
      dyz     :     0.020051
      dx2y2   :     0.019209
      dxy     :     0.018015
      f0      :     0.001454  f :     0.008293
      f+1     :     0.001436
      f-1     :     0.001039
      f+2     :     0.001207
      f-2     :     0.000223
      f+3     :     0.001572
      f-3     :     0.001364

  2 C s       :     3.213531  s :     3.213531
      pz      :     0.920169  p :     2.884096
      px      :     0.948529
      py      :     1.015398
      dz2     :     0.016463  d :     0.085136
      dxz     :     0.022675
      dyz     :     0.015810
      dx2y2   :     0.007781
      dxy     :     0.022408
      f0      :     0.001335  f :     0.006059
      f+1     :     0.000858
      f-1     :     0.001003
      f+2     :     0.000881
      f-2     :     0.000224
      f+3     :     0.000894
      f-3     :     0.000865

  3 C s       :     3.169532  s :     3.169532
      pz      :     0.996578  p :     2.962690
      px      :     0.950851
      py      :     1.015260
      dz2     :     0.012158  d :     0.074903
      dxz     :     0.022523
      dyz     :     0.010038
      dx2y2   :     0.008752
      dxy     :     0.021431
      f0      :     0.001145  f :     0.005802
      f+1     :     0.000969
      f-1     :     0.000849
      f+2     :     0.000794
      f-2     :     0.000229
      f+3     :     0.000908
      f-3     :     0.000909

  4 C s       :     3.021496  s :     3.021496
      pz      :     0.956756  p :     2.527005
      px      :     0.782096
      py      :     0.788153
      dz2     :     0.038626  d :     0.208247
      dxz     :     0.059512
      dyz     :     0.021123
      dx2y2   :     0.032578
      dxy     :     0.056408
      f0      :     0.004173  f :     0.024318
      f+1     :     0.005612
      f-1     :     0.001434
      f+2     :     0.004638
      f-2     :     0.002589
      f+3     :     0.002462
      f-3     :     0.003409

  5 O s       :     3.813458  s :     3.813458
      pz      :     1.582765  p :     4.851541
      px      :     1.648317
      py      :     1.620459
      dz2     :     0.004393  d :     0.023059
      dxz     :     0.008640
      dyz     :     0.003467
      dx2y2   :     0.003155
      dxy     :     0.003405
      f0      :     0.000157  f :     0.001371
      f+1     :     0.000408
      f-1     :     0.000062
      f+2     :     0.000286
      f-2     :     0.000278
      f+3     :     0.000090
      f-3     :     0.000089

  6 O s       :     3.746470  s :     3.746470
      pz      :     1.758071  p :     4.724892
      px      :     1.415364
      py      :     1.551457
      dz2     :     0.003189  d :     0.027460
      dxz     :     0.007949
      dyz     :     0.000667
      dx2y2   :     0.006931
      dxy     :     0.008725
      f0      :     0.000205  f :     0.001793
      f+1     :     0.000334
      f-1     :     0.000036
      f+2     :     0.000335
      f-2     :     0.000093
      f+3     :     0.000302
      f-3     :     0.000487

  7 H s       :     0.630592  s :     0.630592
      pz      :     0.005852  p :     0.031628
      px      :     0.008074
      py      :     0.017702

  8 H s       :     0.630619  s :     0.630619
      pz      :     0.011578  p :     0.031629
      px      :     0.008191
      py      :     0.011860

  9 H s       :     0.822279  s :     0.822279
      pz      :     0.004455  p :     0.020757
      px      :     0.004670
      py      :     0.011632

 10 H s       :     0.822204  s :     0.822204
      pz      :     0.008359  p :     0.020770
      px      :     0.004749
      py      :     0.007662

 11 H s       :     0.876728  s :     0.876728
      pz      :     0.004447  p :     0.021208
      px      :     0.005350
      py      :     0.011411

 12 H s       :     0.876741  s :     0.876741
      pz      :     0.008581  p :     0.021213
      px      :     0.005408
      py      :     0.007224

 13 H s       :     0.866339  s :     0.866339
      pz      :     0.004473  p :     0.021165
      px      :     0.005498
      py      :     0.011195

 14 H s       :     0.866186  s :     0.866186
      pz      :     0.008173  p :     0.021163
      px      :     0.005558
      py      :     0.007432

 15 H s       :     0.627307  s :     0.627307
      pz      :     0.018377  p :     0.031466
      px      :     0.006359
      py      :     0.006730



                     *******************************
                     * LOEWDIN POPULATION ANALYSIS *
                     *******************************

----------------------
LOEWDIN ATOMIC CHARGES
----------------------
   0 N :    0.178601
   1 C :   -0.270861
   2 C :   -0.266365
   3 C :   -0.246881
   4 C :   -0.637536
   5 O :   -0.288520
   6 O :   -0.076453
   7 H :    0.238502
   8 H :    0.238491
   9 H :    0.152036
  10 H :    0.152111
  11 H :    0.141920
  12 H :    0.141837
  13 H :    0.151970
  14 H :    0.152065
  15 H :    0.239082

-------------------------------
LOEWDIN REDUCED ORBITAL CHARGES
-------------------------------
  0 N s       :     2.985742  s :     2.985742
      pz      :     1.214720  p :     3.666079
      px      :     1.236033
      py      :     1.215327
      dz2     :     0.026042  d :     0.159385
      dxz     :     0.041310
      dyz     :     0.015105
      dx2y2   :     0.027275
      dxy     :     0.049653
      f0      :     0.001381  f :     0.010193
      f+1     :     0.001140
      f-1     :     0.000823
      f+2     :     0.001882
      f-2     :     0.001123
      f+3     :     0.001514
      f-3     :     0.002330

  1 C s       :     2.803115  s :     2.803115
      pz      :     1.063881  p :     2.976712
      px      :     0.847991
      py      :     1.064840
      dz2     :     0.088124  d :     0.439028
      dxz     :     0.102130
      dyz     :     0.075075
      dx2y2   :     0.095078
      dxy     :     0.078620
      f0      :     0.008121  f :     0.052006
      f+1     :     0.009690
      f-1     :     0.004994
      f+2     :     0.008060
      f-2     :     0.004216
      f+3     :     0.008472
      f-3     :     0.008452

  2 C s       :     2.793147  s :     2.793147
      pz      :     1.003802  p :     3.049077
      px      :     1.016963
      py      :     1.028312
      dz2     :     0.085550  d :     0.386128
      dxz     :     0.087049
      dyz     :     0.073316
      dx2y2   :     0.061056
      dxy     :     0.079157
      f0      :     0.007343  f :     0.038012
      f+1     :     0.006071
      f-1     :     0.005143
      f+2     :     0.005587
      f-2     :     0.004146
      f+3     :     0.004498
      f-3     :     0.005225

  3 C s       :     2.790839  s :     2.790839
      pz      :     1.028430  p :     3.056028
      px      :     1.005263
      py      :     1.022335
      dz2     :     0.074848  d :     0.362790
      dxz     :     0.089088
      dyz     :     0.057163
      dx2y2   :     0.064699
      dxy     :     0.076992
      f0      :     0.006455  f :     0.037224
      f+1     :     0.006770
      f-1     :     0.004620
      f+2     :     0.005182
      f-2     :     0.004328
      f+3     :     0.004519
      f-3     :     0.005350

  4 C s       :     2.785092  s :     2.785092
      pz      :     0.980766  p :     2.729777
      px      :     0.986338
      py      :     0.762672
      dz2     :     0.202118  d :     0.967496
      dxz     :     0.310542
      dyz     :     0.089472
      dx2y2   :     0.166847
      dxy     :     0.198518
      f0      :     0.025587  f :     0.155172
      f+1     :     0.037343
      f-1     :     0.009617
      f+2     :     0.027384
      f-2     :     0.019166
      f+3     :     0.017143
      f-3     :     0.018932

  5 O s       :     3.498388  s :     3.498388
      pz      :     1.565727  p :     4.738683
      px      :     1.629474
      py      :     1.543483
      dz2     :     0.009846  d :     0.047716
      dxz     :     0.018768
      dyz     :     0.005667
      dx2y2   :     0.007492
      dxy     :     0.005943
      f0      :     0.000463  f :     0.003733
      f+1     :     0.001114
      f-1     :     0.000189
      f+2     :     0.000828
      f-2     :     0.000616
      f+3     :     0.000268
      f-3     :     0.000254

  6 O s       :     3.405598  s :     3.405598
      pz      :     1.628367  p :     4.599353
      px      :     1.524683
      py      :     1.446302
      dz2     :     0.008427  d :     0.065467
      dxz     :     0.021253
      dyz     :     0.000873
      dx2y2   :     0.021152
      dxy     :     0.013762
      f0      :     0.000693  f :     0.006035
      f+1     :     0.001236
      f-1     :     0.000065
      f+2     :     0.001278
      f-2     :     0.000168
      f+3     :     0.001481
      f-3     :     0.001115

  7 H s       :     0.667313  s :     0.667313
      pz      :     0.016805  p :     0.094185
      px      :     0.022206
      py      :     0.055173

  8 H s       :     0.667348  s :     0.667348
      pz      :     0.035700  p :     0.094161
      px      :     0.022515
      py      :     0.035947

  9 H s       :     0.790494  s :     0.790494
      pz      :     0.012794  p :     0.057470
      px      :     0.012454
      py      :     0.032223

 10 H s       :     0.790426  s :     0.790426
      pz      :     0.022295  p :     0.057463
      px      :     0.012638
      py      :     0.022530

 11 H s       :     0.801452  s :     0.801452
      pz      :     0.012061  p :     0.056629
      px      :     0.014417
      py      :     0.030151

 12 H s       :     0.801542  s :     0.801542
      pz      :     0.021560  p :     0.056622
      px      :     0.014550
      py      :     0.020512

 13 H s       :     0.791413  s :     0.791413
      pz      :     0.012752  p :     0.056616
      px      :     0.014513
      py      :     0.029352

 14 H s       :     0.791326  s :     0.791326
      pz      :     0.020980  p :     0.056609
      px      :     0.014649
      py      :     0.020980

 15 H s       :     0.666696  s :     0.666696
      pz      :     0.056801  p :     0.094222
      px      :     0.017795
      py      :     0.019626



                      *****************************
                      * MAYER POPULATION ANALYSIS *
                      *****************************

  NA   - Mulliken gross atomic population
  ZA   - Total nuclear charge
  QA   - Mulliken gross atomic charge
  VA   - Mayer's total valence
  BVA  - Mayer's bonded valence
  FA   - Mayer's free valence

  ATOM       NA         ZA         QA         VA         BVA        FA
  0 N      7.2512     7.0000    -0.2512     3.5214     3.5214    -0.0000
  1 C      6.1359     6.0000    -0.1359     3.7976     3.7976     0.0000
  2 C      6.1888     6.0000    -0.1888     3.8641     3.8641     0.0000
  3 C      6.2129     6.0000    -0.2129     3.6082     3.6082    -0.0000
  4 C      5.7811     6.0000     0.2189     4.6220     4.6220    -0.0000
  5 O      8.6894     8.0000    -0.6894     1.7146     1.7146     0.0000
  6 O      8.5006     8.0000    -0.5006     1.9057     1.9057     0.0000
  7 H      0.6622     1.0000     0.3378     0.8846     0.8846    -0.0000
  8 H      0.6622     1.0000     0.3378     0.8847     0.8847     0.0000
  9 H      0.8430     1.0000     0.1570     0.9611     0.9611     0.0000
 10 H      0.8430     1.0000     0.1570     0.9611     0.9611     0.0000
 11 H      0.8979     1.0000     0.1021     0.9923     0.9923    -0.0000
 12 H      0.8980     1.0000     0.1020     0.9923     0.9923    -0.0000
 13 H      0.8875     1.0000     0.1125     0.9827     0.9827    -0.0000
 14 H      0.8873     1.0000     0.1127     0.9825     0.9825    -0.0000
 15 H      0.6588     1.0000     0.3412     0.8793     0.8793    -0.0000

  Mayer bond orders larger than 0.100000
B(  0-N ,  1-C ) :   0.9187 B(  0-N ,  7-H ) :   0.8660 B(  0-N ,  8-H ) :   0.8659 
B(  0-N , 15-H ) :   0.8684 B(  1-C ,  2-C ) :   0.9564 B(  1-C ,  9-H ) :   0.9565 
B(  1-C , 10-H ) :   0.9565 B(  2-C ,  3-C ) :   0.9674 B(  2-C , 11-H ) :   0.9601 
B(  2-C , 12-H ) :   0.9601 B(  3-C ,  4-C ) :   0.9303 B(  3-C ,  5-O ) :  -0.1272 
B(  3-C , 13-H ) :   0.9379 B(  3-C , 14-H ) :   0.9381 B(  4-C ,  5-O ) :   1.7351 
B(  4-C ,  6-O ) :   1.9314 

-------
TIMINGS
-------

Total SCF time: 0 days 0 hours 0 min 5 sec 

Total time                  ....       5.238 sec
Sum of individual times     ....       5.222 sec  ( 99.7%)

SCF preparation             ....       0.762 sec  ( 14.6%)
Fock matrix formation       ....       4.049 sec  ( 77.3%)
  Startup                   ....       0.015 sec  (  0.4% of F)
  Split-RI-J                ....       0.325 sec  (  8.0% of F)
  Chain of spheres X        ....       2.533 sec  ( 62.6% of F)
  XC integration            ....       0.553 sec  ( 13.7% of F)
    Basis function eval.    ....       0.128 sec  ( 23.2% of XC)
    Density eval.           ....       0.126 sec  ( 22.8% of XC)
    XC-Functional eval.     ....       0.018 sec  (  3.3% of XC)
    XC-Potential eval.      ....       0.159 sec  ( 28.7% of XC)
  CPCM terms                ....       0.561 sec  ( 13.8% of F)
Diagonalization             ....       0.000 sec  (  0.0%)
Density matrix formation    ....       0.044 sec  (  0.8%)
Total Energy calculation    ....       0.037 sec  (  0.7%)
Population analysis         ....       0.018 sec  (  0.3%)
Orbital Transformation      ....       0.036 sec  (  0.7%)
Orbital Orthonormalization  ....       0.000 sec  (  0.0%)
DIIS solution               ....       0.168 sec  (  3.2%)
SOSCF solution              ....       0.107 sec  (  2.0%)
Finished LeanSCF after   5.3 sec

Maximum memory used throughout the entire LEANSCF-calculation: 26.0 MB


-------------------------------------------------------------------------------
                          DFT DISPERSION CORRECTION                            
                                                                               
                                DFTD4 V3.4.0                                   
-------------------------------------------------------------------------------
The B3LYP functional is recognized
Active option DFTDOPT                   ...         5   

-------------------------   ----------------
Dispersion correction           -0.017505448
-------------------------   ----------------


-------------------------   --------------------
FINAL SINGLE POINT ENERGY      -363.024115894992
-------------------------   --------------------



           ************************************************************
           *        Program running with 30 parallel MPI-processes    *
           *              working on a common directory               *
           ************************************************************
------------------------------------------------------------------------------
                         ORCA SCF GRADIENT CALCULATION
------------------------------------------------------------------------------

Nuc. rep. gradient        (SHARK) ... done (  0.0 sec)
HCore & Overlap gradient  (SHARK) ... done (  0.0 sec)
Split-RIJ-J gradient      (SHARK) ... done (  0.1 sec)
COSX-gradient                     ... done (  1.3 sec)
XC gradient                       ... done (  0.2 sec)
CPCM gradient                     ... done (  0.2 sec)
Dispersion correction             ... done (  0.0 sec)

-------------------
DISPERSION GRADIENT
-------------------

   1   N   :   -0.000363912   -0.000077505    0.000254376
   2   C   :   -0.000121400   -0.000098758    0.000318176
   3   C   :   -0.000137351   -0.000015756    0.000052815
   4   C   :    0.000317403    0.000004549   -0.000020196
   5   C   :    0.000266845    0.000086910   -0.000282812
   6   O   :   -0.000016603    0.000144643   -0.000462425
   7   O   :    0.000368003    0.000057524   -0.000190612
   8   H   :   -0.000121995    0.000052002    0.000046265
   9   H   :   -0.000122654   -0.000067839    0.000008824
  10   H   :   -0.000060657   -0.000066159    0.000092666
  11   H   :   -0.000060279    0.000002222    0.000114034
  12   H   :   -0.000053888    0.000078376   -0.000020567
  13   H   :   -0.000054610   -0.000052163   -0.000061362
  14   H   :    0.000125669   -0.000071853   -0.000005957
  15   H   :    0.000126405    0.000061169    0.000035621
  16   H   :   -0.000090974   -0.000037363    0.000121154

Difference to translation invariance:
           :    0.0000000000   -0.0000000000   -0.0000000000

Difference to rotation invariance:
           :   -0.0000000000   -0.0000000000   -0.0000000000

Norm of the Dispersion gradient    ...    0.0010857253
RMS gradient                       ...    0.0001567109
MAX gradient                       ...    0.0004624248

------------------
CARTESIAN GRADIENT
------------------

   1   N   :    0.021164375    0.002968033   -0.009237413
   2   C   :   -0.038297060   -0.001334079    0.005232768
   3   C   :    0.005080435    0.000390055   -0.001605418
   4   C   :    0.013577345    0.003271227   -0.010877638
   5   C   :    0.057381758   -0.022039254    0.069389629
   6   O   :   -0.027322361    0.017471927   -0.055455023
   7   O   :   -0.042627179    0.002411900   -0.006739528
   8   H   :   -0.002369053    0.018529214   -0.002993049
   9   H   :   -0.002766037   -0.013834164   -0.013148816
  10   H   :    0.008915572   -0.012053998   -0.000189460
  11   H   :    0.009047078    0.009967405    0.006703711
  12   H   :   -0.003304125    0.012438557   -0.000121887
  13   H   :   -0.003344966   -0.010032896   -0.007142499
  14   H   :    0.001131690   -0.011599169    0.000596873
  15   H   :    0.001217444    0.009186977    0.007169638
  16   H   :    0.002515085   -0.005741735    0.018418112

Difference to translation invariance:
           :    0.0000000000    0.0000000000   -0.0000000000

Difference to rotation invariance:
           :    0.0000146864   -0.0004693984    0.0005569642

Norm of the Cartesian gradient     ...    0.1383103796
RMS gradient                       ...    0.0199633837
MAX gradient                       ...    0.0693896288

-------
TIMINGS
-------

Total SCF gradient time     ....        1.911 sec

Densities                   ....       0.002 sec  (  0.1%)
One electron gradient       ....       0.024 sec  (  1.2%)
RI-J Coulomb gradient       ....       0.134 sec  (  7.0%)
COSX gradient               ....       1.288 sec  ( 67.4%)
XC gradient                 ....       0.195 sec  ( 10.2%)
CPCM gradient               ....       0.236 sec  ( 12.3%)
   A-Matrix (El+Nuc)        ....       0.056 sec  (  2.9%)
   Potential                ....       0.180 sec  (  9.4%)

Maximum memory used throughout the entire SCFGRAD-calculation: 34.0 MB
------------------------------------------------------------------------------
                         ORCA GEOMETRY RELAXATION STEP
------------------------------------------------------------------------------

Reading the OPT-File                    .... done
Getting information on internals        .... done
Copying old internal coords+grads       .... done
Making the new internal coordinates     .... (2022 redundants) done
Validating the new internal coordinates .... (2022 redundants) done
Calculating the B-matrix                .... done
Calculating the G,G- and P matrices     .... done
Transforming gradient to internals      .... done
Projecting the internal gradient        .... done
Number of atoms                         ....  16
Number of internal coordinates          ....  65
Current Energy                          ....  -363.024115895 Eh
Current gradient norm                   ....     0.138310380 Eh/bohr
Maximum allowed component of the step   ....  0.300
Current trust radius                    ....  0.300
Evaluating the initial hessian          ....  (Almloef) done
Projecting the Hessian                  .... done
Forming the augmented Hessian           .... done
Diagonalizing the augmented Hessian     .... done
Last element of RFO vector              ....  0.980605184
Lowest eigenvalues of augmented Hessian:
 -0.018348830  0.010789780  0.010800696  0.012357308  0.012357445
Length of the computed step             ....  0.199869998
The final length of the internal step   ....  0.199869998
Converting the step to Cartesian space:
 Initial RMS(Int)=    0.0247908221
Transforming coordinates:
 Iter   0:  RMS(Cart)=    0.0374040112 RMS(Int)=    1.3484499449
done
Storing new coordinates                 .... done

                                .--------------------.
          ----------------------|Geometry convergence|-------------------------
          Item                value                   Tolerance       Converged
          ---------------------------------------------------------------------
          RMS gradient        0.0122444711            0.0000300000      NO
          MAX gradient        0.0611533912            0.0001000000      NO
          RMS step            0.0247908221            0.0006000000      NO
          MAX step            0.0912231514            0.0010000000      NO
          ........................................................
          Max(Bonds)      0.0483      Max(Angles)    3.61
          Max(Dihed)        1.14      Max(Improp)    0.00
          ---------------------------------------------------------------------

The optimization has not yet converged - more geometry cycles are needed


    ---------------------------------------------------------------------------
                         Redundant Internal Coordinates
                            (Angstroem and degrees)

        Definition                    Value    dE/dq     Step     New-Value
    ----------------------------------------------------------------------------
     1. B(C   1,N   0)                1.4625 -0.019281  0.0228    1.4854   
     2. B(C   2,C   1)                1.5345  0.005313 -0.0073    1.5272   
     3. B(C   3,C   2)                1.5347  0.002804 -0.0038    1.5308   
     4. B(C   4,C   3)                1.5057 -0.010624  0.0132    1.5189   
     5. B(O   5,C   4)                1.3484  0.061153 -0.0483    1.3001   
     6. B(O   6,C   4)                1.2203 -0.039714  0.0198    1.2401   
     7. B(H   7,N   0)                1.0459  0.018202 -0.0242    1.0217   
     8. B(H   8,N   0)                1.0460  0.018579 -0.0247    1.0213   
     9. B(H   9,C   1)                1.1129  0.014296 -0.0216    1.0912   
    10. B(H  10,C   1)                1.1129  0.014339 -0.0217    1.0912   
    11. B(H  11,C   2)                1.1124  0.012582 -0.0190    1.0934   
    12. B(H  12,C   2)                1.1124  0.012466 -0.0189    1.0936   
    13. B(H  13,C   3)                1.1117  0.011076 -0.0167    1.0950   
    14. B(H  14,C   3)                1.1118  0.011100 -0.0167    1.0950   
    15. B(H  15,N   0)                1.0456  0.018319 -0.0244    1.0213   
    16. A(H   8,N   0,H  15)          108.86  0.005391   -0.86    108.01   
    17. A(H   7,N   0,H   8)          109.71  0.005693   -1.16    108.56   
    18. A(C   1,N   0,H   8)          110.12 -0.004334    0.73    110.85   
    19. A(C   1,N   0,H  15)          109.12 -0.007523    1.37    110.49   
    20. A(C   1,N   0,H   7)          110.12 -0.004514    0.76    110.88   
    21. A(H   7,N   0,H  15)          108.87  0.005442   -0.86    108.01   
    22. A(H   9,C   1,H  10)          108.40  0.001371   -0.09    108.31   
    23. A(C   2,C   1,H  10)          109.53 -0.004975    0.83    110.36   
    24. A(N   0,C   1,H  10)          109.20  0.004786   -0.97    108.23   
    25. A(C   2,C   1,H   9)          109.53 -0.002218    0.71    110.24   
    26. A(N   0,C   1,C   2)          110.94 -0.003739    0.50    111.44   
    27. A(N   0,C   1,H   9)          109.20  0.004939   -1.01    108.19   
    28. A(C   1,C   2,H  11)          109.11 -0.000236    0.15    109.25   
    29. A(C   3,C   2,H  12)          109.32 -0.001711    0.21    109.54   
    30. A(C   1,C   2,H  12)          109.11 -0.000185    0.14    109.24   
    31. A(C   3,C   2,H  11)          109.33 -0.000545    0.16    109.49   
    32. A(C   1,C   2,C   3)          111.05  0.000049    0.13    111.18   
    33. A(H  11,C   2,H  12)          108.90  0.002696   -0.81    108.09   
    34. A(H  13,C   3,H  14)          108.75  0.003718   -1.34    107.41   
    35. A(C   2,C   3,C   4)          112.64 -0.011872    2.08    114.72   
    36. A(C   4,C   3,H  14)          108.45  0.002204   -0.50    107.96   
    37. A(C   2,C   3,H  14)          109.23  0.000373    0.18    109.41   
    38. A(C   4,C   3,H  13)          108.46  0.004305   -0.61    107.84   
    39. A(C   2,C   3,H  13)          109.23  0.001763    0.06    109.30   
    40. A(O   5,C   4,O   6)          119.29 -0.029851    3.61    122.90   
    41. A(C   3,C   4,O   6)          119.43  0.009523   -1.03    118.40   
    42. A(C   3,C   4,O   5)          121.28  0.020328   -2.58    118.69   
    43. D(H   9,C   1,N   0,H   8)    -60.26  0.001661   -0.57    -60.83   
    44. D(H   9,C   1,N   0,H   7)    178.63  0.000304   -0.10    178.53   
    45. D(H   9,C   1,N   0,H  15)     59.18  0.001006   -0.34     58.84   
    46. D(C   2,C   1,N   0,H  15)    180.00 -0.000896    0.20    180.20   
    47. D(C   2,C   1,N   0,H   7)    -60.56 -0.001598    0.45    -60.11   
    48. D(C   2,C   1,N   0,H   8)     60.56 -0.000241   -0.03     60.53   
    49. D(C   3,C   2,C   1,N   0)   -180.00 -0.001047    0.19   -179.81   
    50. D(H  11,C   2,C   1,H  10)    -61.19 -0.000568    0.17    -61.02   
    51. D(H  11,C   2,C   1,H   9)   -179.95  0.002071   -0.65   -180.60   
    52. D(H  11,C   2,C   1,N   0)     59.43 -0.000247   -0.18     59.25   
    53. D(C   3,C   2,C   1,H  10)     59.38 -0.001368    0.54     59.92   
    54. D(C   3,C   2,C   1,H   9)    -59.38  0.001271   -0.28    -59.66   
    55. D(C   4,C   3,C   2,H  12)     59.57  0.000573   -0.13     59.44   
    56. D(C   4,C   3,C   2,H  11)    -59.56 -0.001360    0.63    -58.93   
    57. D(C   4,C   3,C   2,C   1)   -180.00 -0.000742    0.26   -179.74   
    58. D(H  13,C   3,C   2,H  12)    -61.02  0.001650   -0.75    -61.77   
    59. D(H  13,C   3,C   2,H  11)    179.85 -0.000283    0.01    179.86   
    60. D(H  13,C   3,C   2,C   1)     59.42  0.000335   -0.36     59.05   
    61. D(O   6,C   4,C   3,C   2)   -180.00  0.001165   -0.41   -180.41   
    62. D(O   5,C   4,C   3,H  14)   -121.03  0.004548   -1.14   -122.16   
    63. D(O   5,C   4,C   3,H  13)    121.03 -0.003493    1.07    122.11   
    64. D(O   6,C   4,C   3,H  13)    -58.97 -0.001259    0.58    -58.39   
    65. D(O   5,C   4,C   3,C   2)      0.00 -0.001068    0.08      0.09   
    ----------------------------------------------------------------------------

Geometry step timings:
Preparation and reading OPT file:      0.000 s ( 9.666 %)
Internal coordinates            :      0.000 s ( 1.459 %)
B/P matrices and projection     :      0.000 s (29.240 %)
Hessian update/contruction      :      0.000 s ( 8.693 %)
Making the step                 :      0.000 s (21.277 %)
Converting the step to Cartesian:      0.000 s ( 3.283 %)
Storing new data                :      0.000 s ( 1.337 %)
Checking convergence            :      0.000 s ( 0.122 %)
Final printing                  :      0.000 s (24.498 %)
Total time                      :      0.002 s

Time for energy+gradient        :     11.419 s
Time for complete geometry iter :     12.484 s

         *************************************************************
         *                GEOMETRY OPTIMIZATION CYCLE   2            *
[...]
      px      :     0.007096
      py      :     0.007423



                     *******************************
                     * LOEWDIN POPULATION ANALYSIS *
                     *******************************

----------------------
LOEWDIN ATOMIC CHARGES
----------------------
   0 N :    0.191949
   1 C :   -0.234357
   2 C :   -0.267999
   3 C :   -0.252306
   4 C :   -0.679546
   5 O :   -0.135446
   6 O :   -0.155271
   7 H :    0.223770
   8 H :    0.223503
   9 H :    0.147278
  10 H :    0.147371
  11 H :    0.140364
  12 H :    0.140623
  13 H :    0.142332
  14 H :    0.143838
  15 H :    0.223896

-------------------------------
LOEWDIN REDUCED ORBITAL CHARGES
-------------------------------
  0 N s       :     2.978230  s :     2.978230
      pz      :     1.222003  p :     3.670969
      px      :     1.224086
      py      :     1.224880
      dz2     :     0.025440  d :     0.149399
      dxz     :     0.037476
      dyz     :     0.014675
      dx2y2   :     0.024598
      dxy     :     0.047210
      f0      :     0.001183  f :     0.009453
      f+1     :     0.001178
      f-1     :     0.000897
      f+2     :     0.001493
      f-2     :     0.001366
      f+3     :     0.001534
      f-3     :     0.001802

  1 C s       :     2.801001  s :     2.801001
      pz      :     1.066470  p :     2.958333
      px      :     0.820808
      py      :     1.071055
      dz2     :     0.088106  d :     0.425961
      dxz     :     0.096805
      dyz     :     0.079881
      dx2y2   :     0.094574
      dxy     :     0.066595
      f0      :     0.007562  f :     0.049062
      f+1     :     0.009706
      f-1     :     0.005234
      f+2     :     0.007343
      f-2     :     0.004190
      f+3     :     0.007895
      f-3     :     0.007133

  2 C s       :     2.779386  s :     2.779386
      pz      :     1.003331  p :     3.055274
      px      :     1.022205
      py      :     1.029739
      dz2     :     0.086552  d :     0.393739
      dxz     :     0.089759
      dyz     :     0.074700
      dx2y2   :     0.058598
      dxy     :     0.084130
      f0      :     0.007725  f :     0.039600
      f+1     :     0.006301
      f-1     :     0.005447
      f+2     :     0.005724
      f-2     :     0.004406
      f+3     :     0.004801
      f-3     :     0.005195

  3 C s       :     2.790642  s :     2.790642
      pz      :     1.029376  p :     3.063570
      px      :     1.004498
      py      :     1.029695
      dz2     :     0.070498  d :     0.362085
      dxz     :     0.092147
      dyz     :     0.054834
      dx2y2   :     0.062752
      dxy     :     0.081854
      f0      :     0.005791  f :     0.036009
      f+1     :     0.006503
      f-1     :     0.004157
      f+2     :     0.005033
      f-2     :     0.004609
      f+3     :     0.004740
      f-3     :     0.005177

  4 C s       :     2.780518  s :     2.780518
      pz      :     0.978715  p :     2.735085
      px      :     0.987765
      py      :     0.768605
      dz2     :     0.217574  d :     1.006235
      dxz     :     0.302889
      dyz     :     0.090614
      dx2y2   :     0.183241
      dxy     :     0.211916
      f0      :     0.027027  f :     0.157709
      f+1     :     0.034288
      f-1     :     0.010302
      f+2     :     0.030154
      f-2     :     0.018543
      f+3     :     0.017750
      f-3     :     0.019644

  5 O s       :     3.429997  s :     3.429997
      pz      :     1.573405  p :     4.640992
      px      :     1.594530
      py      :     1.473056
      dz2     :     0.013112  d :     0.059263
      dxz     :     0.020304
      dyz     :     0.007402
      dx2y2   :     0.010039
      dxy     :     0.008406
      f0      :     0.000658  f :     0.005195
      f+1     :     0.001408
      f-1     :     0.000279
      f+2     :     0.001086
      f-2     :     0.000905
      f+3     :     0.000429
      f-3     :     0.000429

  6 O s       :     3.433375  s :     3.433375
      pz      :     1.659314  p :     4.657980
      px      :     1.498837
      py      :     1.499828
      dz2     :     0.007575  d :     0.058768
      dxz     :     0.017810
      dyz     :     0.000345
      dx2y2   :     0.020951
      dxy     :     0.012086
      f0      :     0.000607  f :     0.005149
      f+1     :     0.001009
      f-1     :     0.000067
      f+2     :     0.001058
      f-2     :     0.000052
      f+3     :     0.001397
      f-3     :     0.000958

  7 H s       :     0.676019  s :     0.676019
      pz      :     0.018851  p :     0.100212
      px      :     0.025750
      py      :     0.055610

  8 H s       :     0.676204  s :     0.676204
      pz      :     0.036993  p :     0.100293
      px      :     0.026248
      py      :     0.037051

  9 H s       :     0.791726  s :     0.791726
      pz      :     0.014053  p :     0.060996
      px      :     0.012713
      py      :     0.034231

 10 H s       :     0.791636  s :     0.791636
      pz      :     0.024262  p :     0.060993
      px      :     0.012887
      py      :     0.023844

 11 H s       :     0.800324  s :     0.800324
      pz      :     0.013009  p :     0.059311
      px      :     0.015885
      py      :     0.030417

 12 H s       :     0.800254  s :     0.800254
      pz      :     0.021749  p :     0.059122
      px      :     0.015784
      py      :     0.021590

 13 H s       :     0.798054  s :     0.798054
      pz      :     0.014590  p :     0.059614
      px      :     0.015866
      py      :     0.029158

 14 H s       :     0.796516  s :     0.796516
      pz      :     0.022050  p :     0.059646
      px      :     0.015675
      py      :     0.021921

 15 H s       :     0.675549  s :     0.675549
      pz      :     0.058135  p :     0.100555
      px      :     0.020351
      py      :     0.022069



                      *****************************
                      * MAYER POPULATION ANALYSIS *
                      *****************************

  NA   - Mulliken gross atomic population
  ZA   - Total nuclear charge
  QA   - Mulliken gross atomic charge
  VA   - Mayer's total valence
  BVA  - Mayer's bonded valence
  FA   - Mayer's free valence

  ATOM       NA         ZA         QA         VA         BVA        FA
  0 N      7.2524     7.0000    -0.2524     3.5307     3.5307     0.0000
  1 C      6.1187     6.0000    -0.1187     3.7904     3.7904     0.0000
  2 C      6.1719     6.0000    -0.1719     3.8489     3.8489     0.0000
  3 C      6.2669     6.0000    -0.2669     3.6251     3.6251     0.0000
  4 C      5.7509     6.0000     0.2491     4.6208     4.6208    -0.0000
  5 O      8.5687     8.0000    -0.5687     1.8321     1.8321     0.0000
  6 O      8.5871     8.0000    -0.5871     1.8257     1.8257     0.0000
  7 H      0.6730     1.0000     0.3270     0.8934     0.8934    -0.0000
  8 H      0.6733     1.0000     0.3267     0.8936     0.8936     0.0000
  9 H      0.8416     1.0000     0.1584     0.9614     0.9614    -0.0000
 10 H      0.8416     1.0000     0.1584     0.9617     0.9617     0.0000
 11 H      0.8969     1.0000     0.1031     0.9886     0.9886     0.0000
 12 H      0.8954     1.0000     0.1046     0.9843     0.9843     0.0000
 13 H      0.8976     1.0000     0.1024     0.9870     0.9870     0.0000
 14 H      0.8951     1.0000     0.1049     0.9832     0.9832     0.0000
 15 H      0.6689     1.0000     0.3311     0.8885     0.8885     0.0000

  Mayer bond orders larger than 0.100000
B(  0-N ,  1-C ) :   0.8925 B(  0-N ,  7-H ) :   0.8773 B(  0-N ,  8-H ) :   0.8775 
B(  0-N , 15-H ) :   0.8779 B(  1-C ,  2-C ) :   0.9632 B(  1-C ,  9-H ) :   0.9589 
B(  1-C , 10-H ) :   0.9598 B(  2-C ,  3-C ) :   0.9470 B(  2-C , 11-H ) :   0.9632 
B(  2-C , 12-H ) :   0.9635 B(  3-C ,  4-C ) :   0.9301 B(  3-C ,  5-O ) :  -0.1046 
B(  3-C , 13-H ) :   0.9505 B(  3-C , 14-H ) :   0.9474 B(  4-C ,  5-O ) :   1.8326 
B(  4-C ,  6-O ) :   1.8374 

-------
TIMINGS
-------

Total SCF time: 0 days 0 hours 0 min 2 sec 

Total time                  ....       2.506 sec
Sum of individual times     ....       2.485 sec  ( 99.1%)

SCF preparation             ....       0.761 sec  ( 30.4%)
Fock matrix formation       ....       1.559 sec  ( 62.2%)
  Startup                   ....       0.006 sec  (  0.4% of F)
  Split-RI-J                ....       0.097 sec  (  6.2% of F)
  Chain of spheres X        ....       1.105 sec  ( 70.9% of F)
  XC integration            ....       0.167 sec  ( 10.7% of F)
    XC Preparation          ....       0.000 sec  (  0.0% of XC)
    Basis function eval.    ....       0.037 sec  ( 22.3% of XC)
    Density eval.           ....       0.036 sec  ( 21.5% of XC)
    XC-Functional eval.     ....       0.006 sec  (  3.4% of XC)
    XC-Potential eval.      ....       0.041 sec  ( 24.8% of XC)
  CPCM terms                ....       0.166 sec  ( 10.7% of F)
Diagonalization             ....       0.000 sec  (  0.0%)
Density matrix formation    ....       0.013 sec  (  0.5%)
Total Energy calculation    ....       0.013 sec  (  0.5%)
Population analysis         ....       0.040 sec  (  1.6%)
Orbital Transformation      ....       0.018 sec  (  0.7%)
Orbital Orthonormalization  ....       0.000 sec  (  0.0%)
DIIS solution               ....       0.023 sec  (  0.9%)
SOSCF solution              ....       0.058 sec  (  2.3%)
Finished LeanSCF after   2.6 sec

Maximum memory used throughout the entire LEANSCF-calculation: 27.5 MB


-------------------------------------------------------------------------------
                          DFT DISPERSION CORRECTION                            
                                                                               
                                DFTD4 V3.4.0                                   
-------------------------------------------------------------------------------
The B3LYP functional is recognized
Active option DFTDOPT                   ...         5   

-------------------------   ----------------
Dispersion correction           -0.017447194
-------------------------   ----------------


-------------------------   --------------------
FINAL SINGLE POINT ENERGY      -363.039908689180
-------------------------   --------------------

                                *** OPTIMIZATION RUN DONE ***



           ************************************************************
           *        Program running with 30 parallel MPI-processes    *
           *              working on a common directory               *
           ************************************************************

------------------------------------------------------------------------------
                              ORCA PROPERTY CALCULATIONS
------------------------------------------------------------------------------

GBWName                                 ... 00_Aminobutyric-acid_zwitterion.gbw
Number of atoms                         ...     16
Number of basis functions               ...    271
Max core memory                         ...   3000 MB

Electric properties:
Dipole moment                           ... YES
Quadrupole moment                       ...  NO
Static polarizability (Dipole/Dipole)   ...  NO
Static polarizability (Dipole/Quad.)    ...  NO
Static polarizability (Quad./Quad.)     ...  NO
Static polarizability (Velocity)        ...  NO

Atomic electric properties:
Dipole moment                           ...  NO
Quadrupole moment                       ...  NO
Static polarizability                   ...  NO

Choice of electric origin               ... Center of mass
Position of electric origin             ...     7.270158     1.021179    -3.061336

General magnetic properties:
Magnetizability                         ...  NO

EPR properties:
g-Tensor (aka g-matrix)                 ...  NO
Zero-Field splitting spin-orbit         ...  NO
Zero-field splitting spin-spin          ...  NO
Hyperfine couplings                     ...  NO (   0 nuclei)
Quadrupole couplings                    ...  NO (   0 nuclei)
Contact density                         ...  NO (   0 nuclei)

NMR properties:
Chemical shifts                         ...  NO (   0 nuclei)
Spin-rotation constants                 ...  NO (   0 nuclei)
Spin-spin couplings                     ...  NO (   0 nuclei,    0 pairs)

Choice of magnetic origin               ... GIAO
Position of magnetic origin             ...     0.000000     0.000000     0.000000

Properties with geometric perturbations:
SCF Hessian                             ...  NO
IR spectrum                             ...  NO
VCD spectrum                            ...  NO
X-ray spectroscopy properties:
SCF XES/XAS/RIXS spectra                ...  NO


-------------
DIPOLE MOMENT
-------------

Method             : SCF
Type of density    : Electron Density
Multiplicity       :   1
Irrep              :   0
Energy             :  -363.0224614954793196 Eh
Relativity type    : 
Basis              : AO
                                X                 Y                 Z
Electronic contribution:      2.264290237       1.201467302      -3.900434591
Nuclear contribution   :     -9.534167532      -3.460526178      11.297500918
                        -----------------------------------------
Total Dipole Moment    :     -7.269877295      -2.259058876       7.397066327
                        -----------------------------------------
Magnitude (a.u.)       :     10.614662177
Magnitude (Debye)      :     26.980327093



--------------------
Rotational spectrum 
--------------------
 
Rotational constants in cm-1:             0.269317             0.034772             0.031496 
Rotational constants in MHz :          8073.911709          1042.428682           944.219190 

Dipole components along the rotational axes: 
x,y,z [a.u.] :   -10.607976     0.376671     0.005045 
x,y,z [Debye]:   -26.963331     0.957421     0.012824 

 

Dipole moment calculation done in   0.0 sec 

Maximum memory used throughout the entire PROP-calculation: 14.1 MB

--------------------------------
SUGGESTED CITATIONS FOR THIS RUN
--------------------------------

Below you find a list of papers that are relevant to this ORCA run
We neither can nor want to force you to cite these papers, but we appreciate if you do
You receive ORCA, which is the product of decades of hard work by many enthusiastic individuals, for free
The only thing we kindly ask in return is that you cite our papers,
We deeply appreciate it, if you show your appreciation for ORCA by not just citing the generic ORCA reference.

Please note that relegating all ORCA citations to the supporting information does *not* help us.
SI sections are not indexed - citations you put there will not count into any citation statistics
But we need these citations in order to attract the funding resources that allow us to do what we are doing

Therefore, if you are a happy ORCA user, please consider citing a few of the papers listed below in the main body of your paper

In addition to the list printed below, the program has created the file 00_Aminobutyric-acid_zwitterion.bibtex that contains the list in bibtex format
You can import this file easily into all common literature databanks and citation aid programs


List of essential papers. We consider these as the minimum necessary citations

  1. Neese,F.
     Software update: the ORCA program system, version 5.0
     WIRES Comput. Molec. Sci., 2022 12(1)e1606
     doi.org/10.1002/wcms.1606

List of papers to cite with high priority. The work reported in these papers was absolutely
necessary for this run to complete.
Our perspective: the developers of density functionals and basis sets usually get cited in chemistry papers
Good! But without the algorithms to do something with them, the functionals or basis sets would not do anything.
Hence, in our opinion, the algorithm design and method developments papers are equally worthy of getting cited

  1. Neese,F.
     An improvement of the resolution of the identity approximation for the formation of the Coulomb matrix
     J. Comp. Chem., 2003 24(14)1740-1747
     doi.org/10.1002/jcc.10318
  2. Neese,F.; Wennmohs,F.; Hansen,A.; Becker,U.
     Efficient, approximate and parallel Hartree-Fock and hybrid DFT calculations. A 'chain-of-spheres' algorithm for the Hartree-Fock exchange
     Chem. Phys., 2009 356(1-3)98-109
     doi.org/10.1016/j.chemphys.2008.10.036
  3. Garcia-Rates,M.; Neese,F.
     Effect of the Solute Cavity on the Solvation Energy and its Derivatives within the Framework of the Gaussian Charge Scheme
     J. Comput. Chem., 2020 41 922-939
     doi.org/10.1002/jcc.26139
  4. Helmich-Paris,B.; de Souza,B.; Neese,F.; Izsák,R.
     An improved chain of spheres for exchange algorithm
     J. Chem. Phys., 2021 155 104109
     doi.org/doi: 10.1063/5.0058766.
  5. Neese,F.
     The SHARK Integral Generation and Digestion System
     J. Comp. Chem., 2022  1-16
     doi.org/10.1002/jcc.26942
  6. Caldeweyher,E.; Bannwarth,C.; Grimme,S.
     Extension of the D3 dispersion coefficient model
     J. Chem. Phys., 2017 147 034112
     doi.org/10.1063/1.4993215
  7. Caldeweyher,E.; Ehlert,S.; Hansen,A.; Neugebauer,H.; Spicher,S.; Bannwarth,C.; Grimme,S.
     A generally applicable atomic-charge dependent London dispersion correction
     J. Chem. Phys., 2019 150 154122
     doi.org/10.1063/1.5090222
  8. Caldeweyher,E.; Mewes,J.; Ehlert,S.; Grimme,S.
     Extension and evaluation of the D4 London-dispersion model for periodic systems
     Phys. Chem. Chem. Phys., 2020 22(16)8499-8512
     doi.org/10.1039/D0CP00502A
  9. Wittmann,L.; Gordiy,I.; Friede,M.; Helmich-Paris,B.; Grimme,S.; Hansen,A.; Bursch,M.
     Extension of the D3 and D4 London Dispersion Corrections to the full Actinides Series
     Phys. Chem. Chem. Phys., 2024 26(32)21379-21394
     doi.org/https://doi.org/10.1039/D4CP01514B 

List of suggested additional citations. These are papers that are important in the 'surrounding' of 
of this run, or papers that preceded the highly important papers. If you like your results we are grateful for a citation.

  1. Izsak,R.; Neese,F.
     An overlap fitted chain of spheres exchange method
     J. Chem. Phys., 2011 135 144105
     doi.org/10.1063/1.3646921
  2. Izsak,R.; Hansen,A.; Neese,F.
     The resolution of identity and chain of spheres approximations for the LPNO-CCSD singles Fock term
     Molec. Phys., 2012 110 2413-2417
     doi.org/10.1080/00268976.2012.687466
  3. Neese,F.
     The ORCA program system
     WIRES Comput. Molec. Sci., 2012 2(1)73-78
     doi.org/10.1002/wcms.81
  4. Izsak,R.; Neese,F.; Klopper,W.
     Robust fitting techniques in the chain of spheres approximation to the Fock exchange: The role of the complementary space
     J. Chem. Phys., 2013 139 
     doi.org/10.1063/1.4819264
  5. Neese,F.
     Software update: the ORCA program system, version 4.0
     WIRES Comput. Molec. Sci., 2018 8(1)1-6
     doi.org/10.1002/wcms.1327
  6. Neese,F.; Wennmohs,F.; Becker,U.; Riplinger,C.
     The ORCA quantum chemistry program package
     J. Chem. Phys., 2020 152 Art. No. L224108
     doi.org/10.1063/5.0004608

List of optional additional citations

  1. Neese,F.
     Approximate second-order SCF convergence for spin unrestricted wavefunctions
     Chem. Phys. Lett., 2000 325(1-3)93-98
     doi.org/10.1016/s0009-2614(00)00662-x

Timings for individual modules:

Sum of individual times          ...      129.606 sec (=   2.160 min)
Startup calculation              ...       20.052 sec (=   0.334 min)  15.5 %
SCF iterations                   ...       72.086 sec (=   1.201 min)  55.6 %
Property calculations            ...        1.113 sec (=   0.019 min)   0.9 %
SCF Gradient evaluation          ...       36.321 sec (=   0.605 min)  28.0 %
Geometry relaxation              ...        0.033 sec (=   0.001 min)   0.0 %
                             ****ORCA TERMINATED NORMALLY****
TOTAL RUN TIME: 0 days 0 hours 2 minutes 23 seconds 714 msec
