28
 energy: -44.588187646870 gnorm: 0.039958460667 xtb: 6.7.1 (edcfbbe)
N            0.72926317140000        0.38035792170000        0.74200745110000
C            1.15487826210000        1.30505642210000       -0.32925680650000
C            1.19007994250000        0.62714429980000       -1.69489402550000
C            2.29500115430000       -0.42681729710000       -1.83883497050000
C            3.69607707530000        0.18560985570000       -1.68769604350000
O            4.19966304990000        0.78561535020000       -2.65857789520000
O            4.27244650230000        0.05256352460000       -0.57500767210000
H            0.49420383950000        0.91623581210000        1.60752573140000
H           -0.09311983560000       -0.14816608420000        0.44531139510000
H            0.45623699780000        2.14104818430000       -0.37116820140000
H            2.14657691600000        1.69071646290000       -0.09142980390000
H            1.34549729950000        1.38913696450000       -2.46015673610000
H            0.22946958630000        0.15046359510000       -1.89807274400000
H            2.18367654500000       -1.22451744520000       -1.10495369210000
H            2.24196206590000       -0.85637696780000       -2.84053603190000
H            1.50023680950000       -0.29027760000000        0.98220087140000
O           -2.38671645630000       -1.02699484650000        0.23439939730000
H           -2.90591654030000       -1.63866058990000        0.76448734940000
H           -2.23960072900000       -1.46773497900000       -0.63188226860000
O            0.10432416290000        1.79046204770000        3.02434862380000
H           -0.28908201470000        1.31277982810000        3.76110746280000
H            0.73565492590000        2.41787712160000        3.38710306630000
O            2.59020016350000        2.06676217710000       -4.46626664470000
H            3.21224583940000        1.61362884000000       -3.86069161400000
H            3.11493522480000        2.33462520880000       -5.22619551950000
O            6.64661829400000        1.41532024220000       -0.21741474170000
H            5.81977083450000        0.89891022000000       -0.32493612560000
H            6.83477210600000        1.77528180310000       -1.08899141160000
28
 energy: -44.589820164733 gnorm: 0.042200526995 xtb: 6.7.1 (edcfbbe)
N            0.72289064242309        0.37855707209220        0.73999913500510
C            1.15204265614310        1.30472239508778       -0.32971926937542
C            1.18486568139028        0.62761161275734       -1.69514237861572
C            2.29204170229816       -0.42447637280177       -1.83753178582334
C            3.69347379661822        0.19002995007110       -1.68206385348644
O            4.19766664869924        0.78766141399728       -2.65797685383752
O            4.25850332703804        0.06242048674628       -0.56704877478706
H            0.50138350183930        0.91253934399922        1.61348610617037
H           -0.11478266144048       -0.13843137987118        0.45168412049537
H            0.45308914057435        2.13999773614302       -0.36476085998229
H            2.14645227858613        1.68574431060714       -0.09415075821168
H            1.34246093780651        1.38913873007689       -2.46012827877590
H            0.22227578554238        0.15455851527680       -1.89556533027052
H            2.19041668283021       -1.22129413942450       -1.10060119705671
H            2.24199733464734       -0.85772589426518       -2.83792794626580
H            1.47771314910931       -0.29013509773716        0.95679619302708
O           -2.23486593541202       -1.07657163782272        0.24526811778373
H           -2.89907962326311       -1.57637223396514        0.76347555624924
H           -2.30628675315865       -1.47460420984772       -0.66195889265591
O            0.11920188988275        1.77990694672710        3.02211149586852
H           -0.29464916828976        1.31694475486292        3.75773831038162
H            0.73771166873169        2.41801491703681        3.38867342467127
O            2.58824138375433        2.05666046853574       -4.46903845502947
H            3.21318452667594        1.61684827805848       -3.85582901086782
H            3.11641419615861        2.33780959544656       -5.22201869519679
O            6.64409494690666        1.40768242373363       -0.21913988179578
H            5.81129490948085        0.89551965605882       -0.31349226325002
H            6.82160254682717        1.76729243032045       -1.09360957416798
28
 energy: -44.591255794563 gnorm: 0.024587404092 xtb: 6.7.1 (edcfbbe)
N            0.70868980462151        0.37227301468730        0.73658491054129
C            1.14409538487464        1.30245867564601       -0.32940199298709
C            1.17610739901849        0.62825218147972       -1.69532596794944
C            2.28731330191574       -0.41960448032527       -1.83598869116069
C            3.68861392573459        0.20053888683551       -1.67271012301588
O            4.19426151136907        0.79298713992854       -2.65660099724781
O            4.23746799561418        0.07868868113106       -0.55501524040612
H            0.50896786291066        0.90320506985699        1.62280838205849
H           -0.15399249262957       -0.12562498975403        0.46199375288750
H            0.44579065241546        2.13753900217511       -0.35531555228852
H            2.14209472246967        1.67602479829338       -0.09452587172635
H            1.33686194183889        1.38967967214499       -2.45943801559808
H            0.21185922151678        0.15872734531753       -1.89292172697610
H            2.19920784171679       -1.21588182067931       -1.09551795584903
H            2.24213812444674       -0.85726279603518       -2.83483825053115
H            1.43977708322239       -0.29575842109254        0.91680963022437
O           -2.21862522747750       -1.04695510472065        0.18512117316447
H           -2.80040778472770       -1.53617518419785        0.78273416269465
H           -2.25004035972489       -1.51205918151333       -0.64328135250618
O            0.13837584260637        1.76432341757517        3.01767647584964
H           -0.30369909435602        1.32119690847015        3.75116500803541
H            0.74048886624916        2.41564546035037        3.38964487054360
O            2.58586406718441        2.04819961638638       -4.47030316479206
H            3.21178390440308        1.61594849701304       -3.85143271124112
H            3.11855486589410        2.34438645443353       -5.21493401542970
O            6.64287107530469        1.39123961583826       -0.22397860252504
H            5.80043694368689        0.88707914763241       -0.29912158815354
H            6.80449781230126        1.75097846502335       -1.10235814541459
28
 energy: -44.592560807124 gnorm: 0.018937467398 xtb: 6.7.1 (edcfbbe)
N            0.68972101046626        0.36520052645051        0.73208781794713
C            1.13123337161444        1.30059153087693       -0.32768952498270
C            1.16845087944309        0.62946771654639       -1.69531460034367
C            2.28200211294313       -0.41519367104329       -1.83455966702162
C            3.68163030976093        0.21117262834818       -1.66534083253854
O            4.19058668664919        0.79934591106764       -2.64951620179820
O            4.22484239436233        0.09163728235001       -0.54497912294799
H            0.50663285166940        0.89127311710387        1.62636010126202
H           -0.18755361518825       -0.11206933175801        0.46119938024368
H            0.43883995442741        2.14041975980250       -0.35417632474019
H            2.13003423398732        1.66678156032435       -0.08519702913880
H            1.33048959105092        1.39156384000984       -2.45858230097116
H            0.20648747491920        0.15719835609909       -1.89692025800653
H            2.19319950222695       -1.21241054138650       -1.09524104442311
H            2.24069693586642       -0.85210403082750       -2.83363133272991
H            1.41534081791432       -0.32307662594234        0.89335199432329
O           -2.13204713053064       -1.03955282315592        0.16118002603495
H           -2.70172798370090       -1.47909334714691        0.81571077638026
H           -2.25239420735421       -1.53256149731389       -0.66268290732917
O            0.14165886218454        1.75916940398725        3.01516865800913
H           -0.30618913374709        1.31951502970188        3.74630408860564
H            0.74581528618598        2.40711729736486        3.38794793905524
O            2.58722120445154        2.05483358912963       -4.46512284639910
H            3.20573294514228        1.60052886919611       -3.85499399356018
H            3.12172820139362        2.34844288322290       -5.20893092034902
O            6.63913036640316        1.38049541091528       -0.22556497007799
H            5.79254653320113        0.88293924423444       -0.29394914161636
H            6.79524573665752        1.73841798374352       -1.10538936268586
28
 energy: -44.593995858330 gnorm: 0.032916422580 xtb: 6.7.1 (edcfbbe)
N            0.64159876809953        0.34934523019422        0.71973093195728
C            1.10162901028770        1.29470585445423       -0.32419742112298
C            1.15185020739158        0.63120843554521       -1.69586899277255
C            2.26881325140764       -0.40875185529523       -1.83145393192281
C            3.66736227868008        0.22386103515329       -1.65335122323436
O            4.18234132358473        0.80462693851445       -2.63600883248464
O            4.19717438877195        0.11805171949298       -0.52403551963886
H            0.49339288527137        0.86443316931795        1.62880287202182
H           -0.26371645281674       -0.08273735430842        0.45230368896610
H            0.42183152168524        2.14456622257997       -0.35516686093313
H            2.10062835685600        1.64672686250076       -0.06156117386955
H            1.31558338888031        1.39596859986910       -2.45641725553133
H            0.19462415036644        0.15299185067202       -1.90658273033673
H            2.17458092705525       -1.20768520963411       -1.09509003976746
H            2.23420679601815       -0.84346971348932       -2.83104132093171
H            1.35456764981308       -0.38549344830483        0.84545664647579
O           -1.94242545320236       -1.02825682842684        0.16057363417127
H           -2.52451151230144       -1.41415572174438        0.82739118245013
H           -2.18406311551304       -1.48852212202235       -0.67973076516898
O            0.14873097040442        1.75060049332351        3.01178352031602
H           -0.30571117702451        1.31845701169237        3.74061087640762
H            0.76262004685753        2.38922260364092        3.38117282578721
O            2.58423514786667        2.04236449179813       -4.46633101282038
H            3.20030247616209        1.59536172850674       -3.84757219413750
H            3.12834149427652        2.35646584417371       -5.19537231109837
O            6.62842216544071        1.35893069659381       -0.22940150631855
H            5.77211212239563        0.87826229232908       -0.28547408377938
H            6.77483357568579        1.71297124477422       -1.11164060248193
28
 energy: -44.595089672318 gnorm: 0.018214010162 xtb: 6.7.1 (edcfbbe)
N            0.61298964018249        0.33889191379532        0.71201181829855
C            1.08250106280254        1.28850136395981       -0.32278820840230
C            1.14251075914219        0.63132782580324       -1.69728679323283
C            2.26231895436797       -0.40521009553098       -1.83092884828616
C            3.65743973500304        0.23342480045336       -1.64552084696265
O            4.17838057219063        0.80950973718046       -2.62606739280982
O            4.18149401331124        0.13157041815000       -0.51205194235556
H            0.47354921184403        0.84798051844278        1.62314487468155
H           -0.29644937468753       -0.08114274966303        0.44329350711837
H            0.40479614411537        2.13985868758081       -0.35727836571020
H            2.07881232988330        1.63906077852824       -0.04808110118704
H            1.30553574622511        1.39936567793110       -2.45478937896433
H            0.18854714177227        0.14912664879965       -1.91421405331022
H            2.16469938536427       -1.20620524597648       -1.09739428794430
H            2.23298867112817       -0.83663192851564       -2.83197043567443
H            1.32092012525762       -0.40799217677148        0.83162236297449
O           -1.85965452023264       -1.00414442433756        0.15285342124273
H           -2.45927326662855       -1.36536117586033        0.82029581415729
H           -2.07034344802190       -1.47499896300311       -0.66559985554529
O            0.15025339260960        1.74357856196322        3.01191676012312
H           -0.30678047316965        1.31811545341883        3.74222508548964
H            0.77356854716446        2.37546211315954        3.37634415242069
O            2.58471236486805        2.04478604376123       -4.46247302299343
H            3.19508291158072        1.58484023662479       -3.84771636640312
H            3.13157637759061        2.35998021473439       -5.18795538643664
O            6.62415712563879        1.34429601738933       -0.23284380204250
H            5.76007977993635        0.87644832966256       -0.28035794987389
H            6.76494228316209        1.69561149022141       -1.11686135816916
28
 energy: -44.595647287822 gnorm: 0.010003447710 xtb: 6.7.1 (edcfbbe)
N            0.59124501778073        0.33008358972447        0.70559783247366
C            1.06413082933219        1.27970357460719       -0.32391004935082
C            1.13152711221678        0.62896567235975       -1.70029818451315
C            2.25498219846496       -0.40439771730181       -1.83145320376997
C            3.64676443299332        0.23469696163947       -1.63873497647520
O            4.17460130834300        0.80912286087382       -2.61683107368718
O            4.15999879609141        0.14398848193347       -0.49864025134056
H            0.44807531932189        0.83574933968848        1.61115745368656
H           -0.31154042349779       -0.09988317446597        0.43618170187420
H            0.37887313279573        2.12472176530635       -0.35885957073407
H            2.05572633123691        1.63867476899081       -0.04427630437835
H            1.29291967076428        1.40154227949402       -2.45344809242805
H            0.17909257905888        0.14527917117223       -1.92054975216079
H            2.15707825310479       -1.20676495123527       -1.09931025600727
H            2.23173757197039       -0.83343775909054       -2.83396962947106
H            1.29218617230476       -0.40069553638958        0.83469599777566
O           -1.78567875465287       -0.97036350253010        0.12965923720964
H           -2.34889426201075       -1.31917506176580        0.83248085251877
H           -1.99724516282945       -1.45386520640576       -0.67239564304210
O            0.15579746796426        1.73506579406376        3.01681058963101
H           -0.30817187994920        1.32477016786697        3.75353795286732
H            0.79056288660740        2.36136779600622        3.37310577324117
O            2.57918085148841        2.01908209317494       -4.47115067776520
H            3.19770544027868        1.60242785956854       -3.83272892968992
H            3.13551429586413        2.36591479375641       -5.17810249626529
O            6.61731900953438        1.32896272110491       -0.23811690258394
H            5.74361095792085        0.87480832100125       -0.27272965003449
H            6.75225603990303        1.67370496875363       -1.12619334737720
28
 energy: -44.595681445183 gnorm: 0.010745252859 xtb: 6.7.1 (edcfbbe)
N            0.60471985990769        0.33223523086942        0.70654163593818
C            1.06636096199113        1.28197726873728       -0.32531469916070
C            1.13052036795840        0.63013885130464       -1.70116880812645
C            2.25541887220650       -0.40221796339717       -1.83420625549101
C            3.64368212320264        0.23825868009226       -1.63591470886899
O            4.17599344827802        0.81609558293452       -2.61013662143896
O            4.15650539400287        0.14307952065345       -0.49603056611349
H            0.45479355402895        0.83549371125107        1.60978664050305
H           -0.29235471457696       -0.11086778988861        0.43270009087864
H            0.37324931688044        2.12127285400542       -0.35689825039722
H            2.05680568748160        1.64849439599516       -0.05330420887085
H            1.29020494064700        1.40322350591916       -2.45388712750934
H            0.17820194729596        0.14597914401298       -1.92064580757210
H            2.15706883863915       -1.20681179991874       -1.10454336796313
H            2.23475488003169       -0.82787310109098       -2.83855453845674
H            1.30830300178350       -0.38969006441996        0.84211652401140
O           -1.81468338016620       -0.97125743206467        0.12676389379437
H           -2.35335847593345       -1.34340006952212        0.82388761976143
H           -2.00856418326802       -1.44485408125039       -0.68054537990442
O            0.15135560924935        1.73200838449313        3.02449092761423
H           -0.30893584321238        1.32457468057981        3.76518576975785
H            0.78986119591303        2.35703992464195        3.37741843755188
O            2.58649935154687        2.04230857107131       -4.45923786486156
H            3.19551655568717        1.58905824744424       -3.83967933731743
H            3.13497818079796        2.36120144829706       -5.17947404559703
O            6.61308924955016        1.32886530044758       -0.23660080067411
H            5.74275945500454        0.87112160073248       -0.27454227219297
H            6.75660899747346        1.66459546997154       -1.12667847909109
28
 energy: -44.595822463693 gnorm: 0.006551265035 xtb: 6.7.1 (edcfbbe)
N            0.60836348912336        0.33118529782668        0.70577123029605
C            1.06321006906514        1.28383752031730       -0.32605533742093
C            1.12576952030116        0.63182288504860       -1.70203911739061
C            2.25189892357736       -0.39954823025866       -1.83589705806381
C            3.63807620498479        0.24199142530692       -1.63146416851957
O            4.17580162116047        0.81901953391731       -2.60406075188038
O            4.14751843782664        0.14472791729988       -0.49057408765524
H            0.46281182139490        0.83072265247341        1.61265736909116
H           -0.29312953948883       -0.11188409751845        0.43043798617635
H            0.36701324135103        2.12110903463756       -0.35420633674245
H            2.05423014227091        1.65242414120190       -0.05879246113053
H            1.28567415409353        1.40490375757882       -2.45458046499845
H            0.17373789414375        0.14727819164188       -1.92137691299969
H            2.15308980007824       -1.20608850727677       -1.10841563370518
H            2.23401710537229       -0.82287486411157       -2.84137333857164
H            1.31144111131215       -0.39464456904044        0.83370669399234
O           -1.79533358119023       -0.96817620723916        0.10667143594176
H           -2.33498707147311       -1.31664406221620        0.82846473259889
H           -2.00849292279187       -1.46638512013530       -0.68710143448011
O            0.15294741383546        1.72799214586808        3.03127036073055
H           -0.30715985198432        1.32640698257269        3.77525792490461
H            0.79299424208715        2.35332309712109        3.38092636226936
O            2.58834343176475        2.04159865112617       -4.45780103094053
H            3.19662641976474        1.58987582353703       -3.83656428461140
H            3.13789785744011        2.36324891074017       -5.17598021867468
O            6.60846818246588        1.32292870505078       -0.23692346207748
H            5.73542688288864        0.86935612023513       -0.27113811115577
H            6.75310019302697        1.65254293619718       -1.12929148477882
28
 energy: -44.595906577076 gnorm: 0.005429639559 xtb: 6.7.1 (edcfbbe)
N            0.61366308809364        0.33008067403435        0.70533251672147
C            1.05793011909587        1.28659219179694       -0.32745059918605
C            1.11959962329553        0.63426489912790       -1.70370838140077
C            2.24563948042167       -0.39737512027128       -1.83826007736133
C            3.63160217581667        0.24027227325141       -1.62789834571347
O            4.17507629285368        0.81875836612581       -2.59628770682253
O            4.13497033485177        0.14606393238039       -0.48313305037005
H            0.46894139688706        0.82538624470138        1.61407711573721
H           -0.28687064567914       -0.11815137809265        0.42720455980723
H            0.35724186861913        2.12044781660239       -0.35369426294160
H            2.04825095526564        1.66100730586569       -0.06497211724911
H            1.27920726994843        1.40703882487064       -2.45666494525876
H            0.16797738948074        0.14874153546269       -1.92247027495986
H            2.14260103853312       -1.20653414476327       -1.11442916467291
H            2.22956765380696       -0.81693342336380       -2.84514408597998
H            1.32297173199409       -0.39790164766296        0.82854556331144
O           -1.77442437945688       -0.96478008767846        0.09866385900590
H           -2.32480081575648       -1.30400419348179        0.81329824229589
H           -1.99190466793412       -1.46454035255400       -0.69371778998955
O            0.15748863205162        1.72455841040750        3.04138798853570
H           -0.29966639696572        1.33039723420748        3.79069328434188
H            0.80111040895557        2.34969605690769        3.38475743519103
O            2.58568758817164        2.01775721257454       -4.46660233353230
H            3.20205965437627        1.60694240877742       -3.82270544531828
H            3.14498229286345        2.37126248544189       -5.16797235377648
O            6.60141245133482        1.31445117786880       -0.23791471119742
H            5.72306060535022        0.86959474014591       -0.26640174200837
H            6.74598004612579        1.63695662921964       -1.13300477700448
28
 energy: -44.596000481324 gnorm: 0.004012573879 xtb: 6.7.1 (edcfbbe)
N            0.62102825668207        0.32796186919403        0.70487583169442
C            1.05227385966651        1.28860607239869       -0.32932042966184
C            1.11347437823274        0.63728283141642       -1.70615375693787
C            2.24079466993735       -0.39300454313189       -1.84217634593958
C            3.62495155909165        0.24361513077827       -1.62222815194176
O            4.17462145786885        0.82620550685519       -2.58493796168827
O            4.12104624814240        0.14888514786849       -0.47398810411220
H            0.47149272507583        0.81958048351625        1.61293992431755
H           -0.27318162167484       -0.13294769166065        0.42497072488479
H            0.34306594021185        2.11539889026652       -0.35255473597514
H            2.04020854740547        1.67339879472576       -0.07162454884905
H            1.27122254783718        1.41071841458253       -2.45884040431236
H            0.16236530524031        0.15043284758648       -1.92382469187977
H            2.13491040205314       -1.20658523032243       -1.12358363929820
H            2.22821143320892       -0.80655364819726       -2.85160984382358
H            1.33815240584643       -0.39049558416497        0.82760307874730
O           -1.75699256944685       -0.96104601054356        0.08534420256533
H           -2.31102762282814       -1.28962973016151        0.80194217956710
H           -1.97754192855498       -1.46798219350524       -0.70113887642799
O            0.16152734354495        1.71569744265729        3.05109090946600
H           -0.29687626481010        1.33021081753553        3.80467438662731
H            0.80642917274409        2.34191617995190        3.39024372253975
O            2.59132000193873        2.02614824485470       -4.45910389246717
H            3.20252830236576        1.60164176183758       -3.82080185982476
H            3.14910375465884        2.37142803558775       -5.16318202911824
O            6.59358637405453        1.30531656646829       -0.23812931785628
H            5.71243887922927        0.86567875714371       -0.26242576369159
H            6.74022163467913        1.61817090836456       -1.13653220639901
28
 energy: -44.596128119573 gnorm: 0.007441724417 xtb: 6.7.1 (edcfbbe)
N            0.65492476057621        0.32703273859096        0.70726997387720
C            1.04188058201583        1.29856492075294       -0.33508394009305
C            1.09761092633290        0.64701515182737       -1.71199992802622
C            2.22659674631003       -0.38114420606129       -1.85364295109349
C            3.60511135868011        0.25445966536440       -1.60681871895220
O            4.17519743636844        0.83827492895466       -2.55812748833658
O            4.08684719738681        0.14622717548064       -0.45383693371047
H            0.48758465154880        0.81141084608493        1.61176848293811
H           -0.21750969521664       -0.17565173887610        0.42559067970290
H            0.30622024505906        2.10309325348188       -0.34849183600528
H            2.02265353463913        1.71532475629532       -0.09476003918678
H            1.24930322124734        1.42129458522134       -2.46510358527562
H            0.14679586902288        0.15740727244982       -1.92370331732039
H            2.11294638151020       -1.20750136556167       -1.15029544547677
H            2.22312324347557       -0.77730753361916       -2.87043799747520
H            1.40097923112807       -0.35651465207528        0.83155647881244
O           -1.74539243488526       -0.95762562586828        0.04485332373762
H           -2.30421210655081       -1.26363806963336        0.76909644826683
H           -1.95962979856759       -1.49032310226515       -0.72365871856310
O            0.17607265618090        1.69487210230872        3.07756619396580
H           -0.28301251160998        1.32721159863616        3.84005594359621
H            0.82173578196294        2.32508272047924        3.40791683374184
O            2.60336746549685        2.02712384161300       -4.44898018381103
H            3.21047516361046        1.60373051289047       -3.80635496063264
H            3.16359873024731        2.37638040992358       -5.14769353109568
O            6.57021576459995        1.28098911823798       -0.23779038188379
H            5.68447680110253        0.85180776890241       -0.25429190134773
H            6.72139399072893        1.57245299836747       -1.14307410014671
28
 energy: -44.596250166367 gnorm: 0.005758904709 xtb: 6.7.1 (edcfbbe)
N            0.67117470165550        0.32387651084212        0.70642817930296
C            1.02930821247584        1.30593530226979       -0.33826157033264
C            1.08403068360819        0.65539191550166       -1.71564729027185
C            2.21391625934594       -0.37116658090051       -1.86211905211505
C            3.59232240419255        0.25824848714337       -1.59669967572793
O            4.17276267864282        0.84928461130426       -2.53695387541708
O            4.05711682109848        0.14898198293201       -0.43610440030238
H            0.49839904038169        0.80306381634436        1.61263933010478
H           -0.19155985520410       -0.19682710034441        0.42731388148032
H            0.27872085516260        2.09681506700131       -0.34422837475355
H            2.00438812442201        1.74030815957369       -0.10495500957518
H            1.23230363429866        1.43073254365303       -2.46835217441590
H            0.13343148667849        0.16419409132849       -1.92464217462623
H            2.09342617674593       -1.20695962539072       -1.17080058881978
H            2.21726577471663       -0.75415650120242       -2.88408025247490
H            1.43880060642382       -0.34116616805330        0.82368547832319
O           -1.70851374162851       -0.95713992758694        0.02413063861548
H           -2.27820442356336       -1.24278915339862        0.74635381270701
H           -1.93036847089236       -1.49679452169911       -0.73779357194465
O            0.18956073262146        1.67983868460795        3.09067367381827
H           -0.27154797989359        1.31858348852312        3.85369738618230
H            0.83502212027953        2.31080982692813        3.41920099203622
O            2.61167942392271        2.02801259326830       -4.44124371614591
H            3.21321728586349        1.59944577733246       -3.79683290318118
H            3.17614266074008        2.38160104769673       -5.13393958980786
O            6.55430188275637        1.25808522330770       -0.23814989523319
H            5.66216928341233        0.84063271052318       -0.24593471461626
H            6.70008881413769        1.54320781039772       -1.14585614260185
28
 energy: -44.596421403607 gnorm: 0.006515536117 xtb: 6.7.1 (edcfbbe)
N            0.69863425323024        0.32164721701856        0.70433317874656
C            1.01228760328864        1.31905925471631       -0.34254158940816
C            1.06274260489300        0.67088564909811       -1.72078864643022
C            2.19221992713058       -0.35463716956560       -1.87471479795935
C            3.57039064277007        0.26612363842189       -1.58114977025134
O            4.16825801142780        0.85906139661984       -2.50841117852508
O            4.01245074741717        0.14719580732065       -0.41267145154954