
                                 *****************
                                 * O   R   C   A *
                                 *****************

                                            #,                                       
                                            ###                                      
                                            ####                                     
                                            #####                                    
                                            ######                                   
                                           ########,                                 
                                     ,,################,,,,,                         
                               ,,#################################,,                 
                          ,,##########################################,,             
                       ,#########################################, ''#####,          
                    ,#############################################,,   '####,        
                  ,##################################################,,,,####,       
                ,###########''''           ''''###############################       
              ,#####''   ,,,,##########,,,,          '''####'''          '####       
            ,##' ,,,,###########################,,,                        '##       
           ' ,,###''''                  '''############,,,                           
         ,,##''                                '''############,,,,        ,,,,,,###''
      ,#''                                            '''#######################'''  
     '                                                          ''''####''''         
             ,#######,   #######,   ,#######,      ##                                
            ,#'     '#,  ##    ##  ,#'     '#,    #''#        ,####,   ,####,        
            ##       ##  ##   ,#'  ##            #'  '#       #'       #'  '#        
            ##       ##  #######   ##           ,######,      #####,   #    #        
            '#,     ,#'  ##    ##  '#,     ,#' ,#      #,     #,   #   #,  ,#        
             '#######'   ##     ##  '#######'  #'      '#     '####' # '####'        



                #########################################################
                #                        -***-                          #
                #          Department of theory and spectroscopy        #
                #                                                       #
                #                      Frank Neese                      #
                #                                                       #
                #     Directorship, Architecture, Infrastructure        #
                #                    SHARK, DRIVERS                     #
                #        Core code/Algorithms in most modules           #
                #                                                       #
                #        Max Planck Institute fuer Kohlenforschung      #
                #                Kaiser Wilhelm Platz 1                 #
                #                 D-45470 Muelheim/Ruhr                 #
                #                      Germany                          #
                #                                                       #
                #                  All rights reserved                  #
                #                        -***-                          #
                #########################################################


                         Program Version 6.0.1  -  RELEASE   -


 With contributions from (in alphabetic order):
[Max-Planck-Institut fuer Kohlenforschung]                               
  Daniel Aravena         : Magnetic Suceptibility                        
  Michael Atanasov       : Ab Initio Ligand Field Theory (pilot matlab implementation)
  Alexander A. Auer      : GIAO ZORA, VPT2 properties, NMR spectrum      
  Ute Becker             : All parallelization in ORCA, NUMFREQ, NUMCALC 
  Giovanni Bistoni       : ED, misc. LED, open-shell LED, HFLD           
  Martin Brehm           : Molecular dynamics                            
  Dmytro Bykov           : pre 5.0 version of the SCF Hessian            
  Marcos Casanova-Páez   : Triplet and SCS-CIS(D). UHF-(DLPNO)-IP/EA/STEOM-CCSD. UHF-CVS-IP/STEOM-CCSD   
  Vijay G. Chilkuri      : MRCI spin determinant printing, contributions to CSF-ICE 
  Pauline Colinet        : FMM embedding                                 
  Dipayan Datta          : RHF DLPNO-CCSD density                        
  Achintya Kumar Dutta   : EOM-CC, STEOM-CC                              
  Nicolas Foglia         : Exact transition moments, OPA infrastructure, MCD improvements    
  Dmitry Ganyushin       : Spin-Orbit,Spin-Spin,Magnetic field MRCI      
  Miquel Garcia-Rates    : C-PCM and meta-GGA Hessian, CCSD/C-PCM, Gaussian charge scheme 
  Tiago L. C. Gouveia    : GS-ROHF, GS-ROCIS                             
  Yang Guo               : DLPNO-NEVPT2, F12-NEVPT2, CIM, IAO-localization        
  Andreas Hansen         : Spin unrestricted coupled pair/coupled cluster methods 
  Ingolf Harden          : AUTO-CI MPn and infrastructure                
  Benjamin Helmich-Paris : MC-RPA, TRAH-(SCF,CASSCF), AVAS, COSX integrals, SCF dyn. polar. 
  Lee Huntington         : MR-EOM, pCC                                   
  Robert Izsak           : Overlap fitted RIJCOSX, COSX-SCS-MP3, EOM     
  Riya Kayal             : Wick's Theorem for AUTO-CI, AUTO-CI UHF-CCSDT 
  Emily Kempfer          : AUTO-CI, RHF CISDT and CCSDT                  
  Christian Kollmar      : KDIIS, OOCD, Brueckner-CCSD(T), CCSD density, CASPT2, CASPT2-K, improved NEVPT2 
  Axel Koslowski         : Symmetry handling                             
  Simone Kossmann        : meta-GGA functionals, TD-DFT gradient, OOMP2, (MP2 Hessian; deprecated post 5.0) 
  Lucas Lang             : DCDCAS                                        
  Marvin Lechner         : AUTO-CI (C++ implementation), FIC-MRCC        
  Spencer Leger          : CASSCF response                               
  Dagmar Lenk            : GEPOL surface, SMD, ORCA-2-JSON               
  Dimitrios Liakos       : Extrapolation schemes; Compound Job, initial MDCI parallelization 
  Dimitrios Manganas     : Further ROCIS development; embedding schemes. LFT, Crystal Embedding 
  Dimitrios Pantazis     : SARC Basis sets                               
  Anastasios Papadopoulos: AUTO-CI, single reference methods and gradients 
  Taras Petrenko         : pre 6.0 DFT Hessian and TD-DFT gradient, (ASA, deprecated), ECA, 1-Electron XAS/XES, NRVS 
  Peter Pinski           : DLPNO-MP2, DLPNO-MP2 Gradient                 
  Christoph Reimann      : Effective Core Potentials                     
  Marius Retegan         : Local ZFS, SOC                                
  Christoph Riplinger    : Optimizer, TS searches, QM/MM, DLPNO-CCSD(T), (RO)-DLPNO pert. Triples 
  Michael Roemelt        : Original ROCIS implementation                 
  Masaaki Saitow         : Open-shell DLPNO-CCSD energy and density      
  Barbara Sandhoefer     : DKH picture change effects                    
  Kantharuban Sivalingam : CASSCF convergence/infrastructure, NEVPT2 and variants, FIC-MRCI 
  Bernardo de Souza      : ESD, SOC TD-DFT                               
  Georgi L. Stoychev     : AutoAux, RI-MP2 NMR, DLPNO-MP2 response, X2C  
  Van Anh Tran           : RI-MP2 g-tensors                              
  Willem Van den Heuvel  : Paramagnetic NMR                              
  Zikuan Wang            : NOTCH, Electric field optimization            
  Frank Wennmohs         : Technical directorship and infrastructure     
  Hang Xu                : AUTO-CI-Response properties                   
                                                                         
[FACCTs GmbH]                                                            
  Markus Bursch, Miquel Garcia-Rates, Christoph Riplinger, Bernardo de Souza, Georgi L. Stoychev 
                                                                 
  APM, Basis sets (HGBS, AHGBS, def-TZVP (Ac-Lr), def2-XVPD (La-Lu)), CI-OPT, improved COSX, DLPNO-Multilevel,           
  DOCKER, DRACO, updates on ESD, GOAT, IRC, LR-CPCM, MBIS, meta-GGA TD-DFT gradient, ML-optimized integration grids, 
  MM, NACMEs, nearIR, NEB, NEB-TS, NL-DFT gradient (VV10), 2- and 3-layer-ONIOM, interface openCOSMO-RS, QMMM,   
  Crystal-QMMM, SF, symmetry and pop. for TD-DFT, r2SCAN hybrids, SOLVATOR                                   
                                                                         
[Other institutions]                                                     
  V. Asgeirsson          : NEB                                           
  Christoph Bannwarth    : sTDA-DFT, sTD-DFT, PBEh-3c, B97-3c, D3        
  Sebastian Ehlert       : rSCAN, r2SCAN, r2SCAN-3c, D4, dhf basis sets  
  Marvin Friede          : D4 for Fr, Ra, Ac-Lr                          
  Lars Goerigk           : TD-DFT with DH, B97 family of functionals     
  Stefan Grimme          : VdW corrections, initial TS optimization, DFT functionals, gCP, sTDA/sTD-DF 
  Waldemar Hujo          : DFT-NL                                        
  H. Jonsson             : NEB                                           
  Holger Kruse           : gCP                                           
  Marcel Mueller         : wB97X-3c, vDZP basis set                      
  Hagen Neugebauer       : wr2SCAN                                       
  Tobias Risthaus        : range-separated hybrid DFT                    
  Lukas Wittmann         : regularized MP2, r2SCAN double-hybrids, wr2SCAN        
                                                                         
We gratefully acknowledge several colleagues who have allowed us to      
interface, adapt or use parts of their codes:                            
  Ed Valeev, F. Pavosevic, A. Kumar             : LibInt (2-el integral package), F12 methods 
  Garnet Chan, S. Sharma, J. Yang, R. Olivares  : DMRG                   
  Ulf Ekstrom                                   : XCFun DFT Library      
  Mihaly Kallay                                 : mrcc  (arbitrary order and MRCC methods)
  Frank Weinhold                                : gennbo (NPA and NBO analysis)           
  Simon Mueller                                 : openCOSMO-RS                            
  Christopher J. Cramer and Donald G. Truhlar   : smd solvation model                     
  S Lehtola, MJT Oliveira, MAL Marques          : LibXC Library                           
  Liviu Ungur et al                             : ANISO software                          


 Your calculation uses the libint2 library for the computation of 2-el integrals
 For citations please refer to: http://libint.valeyev.net

 Your ORCA version has been built with support for libXC version: 6.2.2
 For citations please refer to: https://libxc.gitlab.io

 This ORCA versions uses:
   CBLAS   interface :  Fast vector & matrix operations
   LAPACKE interface :  Fast linear algebra routines
   SCALAPACK package :  Parallel linear algebra routines
   Shared memory     :  Shared parallel matrices
   BLAS/LAPACK       :  OpenBLAS 0.3.27  USE64BITINT DYNAMIC_ARCH NO_AFFINITY SkylakeX SINGLE_THREADED
        Core in use  :  SkylakeX
   Copyright (c) 2011-2014, The OpenBLAS Project


NOTE: MaxCore=3000 MB was set to SCF,MP2,MDCI,CIPSI,MRCI and CIS
      => If you want to overwrite this, your respective input block should be placed after the MaxCore statement
Your calculation utilizes the atom-pairwise dispersion correction
based on EEQ partial charges (D4)


Warning: RI is on but no J-basis has been assigned. Assigning Def2/J (nothing to worry about!)
================================================================================

----- Orbital basis set information -----
Your calculation utilizes the basis: def2-TZVP
   F. Weigend and R. Ahlrichs, Phys. Chem. Chem. Phys. 7, 3297 (2005).

----- AuxJ basis set information -----
Your calculation utilizes the auxiliary basis: def2/J
   F. Weigend, Phys. Chem. Chem. Phys. 8, 1057 (2006).

================================================================================
                                        WARNINGS
                       Please study these warnings very carefully!
================================================================================


WARNING: Geometry Optimization
  ===> : Switching off AutoStart
         For restart on a previous wavefunction, please use MOREAD

================================================================================
                                       INPUT FILE
================================================================================
NAME = 01_Alanine_zwitterion.inp
|  1> ! Opt B3LYP D4 def2-TZVP TightSCF TightOpt CPCM(water)
|  2> 
|  3> %maxcore 3000
|  4> 
|  5> %pal
|  6> nprocs 6
|  7> end
|  8> 
|  9> * xyz 0 1
| 10> C         -0.51430        0.60220       -2.52510
| 11> C         -1.05520       -0.10250       -1.30610
| 12> O         -2.14580        0.39460       -0.69290
| 13> O         -0.54400       -1.12490       -0.87680
| 14> C          0.73760       -0.04320       -3.14880
| 15> N          1.90870        0.05160       -2.27300
| 16> H         -0.28340        1.65760       -2.26500
| 17> H         -1.32140        0.60360       -3.28870
| 18> H          0.96510        0.49600       -4.09520
| 19> H          0.53280       -1.10640       -3.40450
| 20> H          2.11240        1.05390       -2.05460
| 21> H          1.76390       -0.47700       -1.38490
| 22> H          2.73450       -0.35720       -2.76700
| 23> *
| 24> 
| 25>                          ****END OF INPUT****
================================================================================

                       *****************************
                       * Geometry Optimization Run *
                       *****************************

Geometry optimization settings:
Update method            Update   .... BFGS
Choice of coordinates    CoordSys .... (2022) Redundant Internals
Initial Hessian          InHess   .... Almloef's Model
Max. no of cycles        MaxIter  .... 50

Convergence Tolerances:
Energy Change            TolE     ....  1.0000e-06 Eh
Max. Gradient            TolMAXG  ....  1.0000e-04 Eh/bohr
RMS Gradient             TolRMSG  ....  3.0000e-05 Eh/bohr
Max. Displacement        TolMAXD  ....  1.0000e-03 bohr
RMS Displacement         TolRMSD  ....  6.0000e-04 bohr
Strict Convergence                .... False

------------------------------------------------------------------------------
                        ORCA OPTIMIZATION COORDINATE SETUP
------------------------------------------------------------------------------

The optimization will be done in redundant internal coordinates (2022)
Making redundant internal coordinates   ...  (2022 redundants) done
Evaluating the initial hessian          ...  (Almloef) done
Evaluating the coordinates              ...  done
Calculating the B-matrix                .... done
Calculating the G-matrix                .... done
Diagonalizing the G-matrix              .... done
The first mode is                       ....   17
The number of degrees of freedom        ....   33

    -----------------------------------------------------------------
                    Redundant Internal Coordinates


    -----------------------------------------------------------------
         Definition                    Initial Value    Approx d2E/dq
    -----------------------------------------------------------------
      1. B(C   1,C   0)                  1.5084         0.404492   
      2. B(O   2,C   1)                  1.3463         0.657040   
      3. B(O   3,C   1)                  1.2210         1.040996   
      4. B(C   4,C   0)                  1.5404         0.359587   
      5. B(N   5,C   4)                  1.4654         0.424160   
      6. B(H   6,C   0)                  1.1112         0.333081   
      7. B(H   7,C   0)                  1.1111         0.333267   
      8. B(H   8,C   4)                  1.1127         0.331253   
      9. B(H   9,C   4)                  1.1125         0.331498   
     10. B(H  10,N   5)                  1.0458         0.379317   
     11. B(H  11,N   5)                  1.0436         0.382458   
     12. B(H  12,N   5)                  1.0455         0.379783   
     13. A(C   4,C   0,H   6)          108.8949         0.318213   
     14. A(C   1,C   0,C   4)          115.0189         0.365931   
     15. A(H   6,C   0,H   7)          108.0957         0.283862   
     16. A(C   1,C   0,H   7)          107.1884         0.324429   
     17. A(C   4,C   0,H   7)          108.2175         0.318242   
     18. A(C   1,C   0,H   6)          109.2126         0.324400   
     19. A(O   2,C   1,O   3)          119.2207         0.475694   
     20. A(C   0,C   1,O   2)          119.0834         0.403801   
     21. A(C   0,C   1,O   3)          121.6819         0.438358   
     22. A(N   5,C   4,H   9)          110.2608         0.324731   
     23. A(C   0,C   4,H   9)          110.1122         0.317966   
     24. A(N   5,C   4,H   8)          108.2745         0.324691   
     25. A(C   0,C   4,H   8)          107.9090         0.317927   
     26. A(H   8,C   4,H   9)          107.7729         0.283385   
     27. A(C   0,C   4,N   5)          112.3582         0.366620   
     28. A(H  11,N   5,H  12)          108.2783         0.291291   
     29. A(H  10,N   5,H  12)          108.6359         0.290914   
     30. A(C   4,N   5,H  12)          108.8768         0.329266   
     31. A(H  10,N   5,H  11)          109.5567         0.291235   
     32. A(C   4,N   5,H  11)          111.4038         0.329648   
     33. A(C   4,N   5,H  10)          110.0262         0.329199   
     34. D(O   3,C   1,C   0,C   4)     -1.5681         0.012131   
     35. D(O   2,C   1,C   0,C   4)    179.8015         0.012131   
     36. D(O   2,C   1,C   0,H   6)     57.0440         0.012131   
     37. D(O   3,C   1,C   0,H   6)   -124.3256         0.012131   
     38. D(O   2,C   1,C   0,H   7)    -59.8345         0.012131   
     39. D(N   5,C   4,C   0,H   6)     55.8990         0.010375   
     40. D(N   5,C   4,C   0,C   1)    -67.0285         0.010375   
     41. D(H   8,C   4,C   0,H   6)    -63.3922         0.010375   
     42. D(H   8,C   4,C   0,C   1)    173.6804         0.010375   
     43. D(H   8,C   4,C   0,H   7)     53.8834         0.010375   
     44. D(N   5,C   4,C   0,H   7)    173.1746         0.010375   
     45. D(H  10,N   5,C   4,H   9)    178.5737         0.016434   
     46. D(H  10,N   5,C   4,H   8)     60.8922         0.016434   
     47. D(H  11,N   5,C   4,C   0)     63.5197         0.016434   
     48. D(H  10,N   5,C   4,C   0)    -58.1851         0.016434   
     49. D(H  11,N   5,C   4,H   9)    -59.7215         0.016434   
     50. D(H  11,N   5,C   4,H   8)   -177.4029         0.016434   
    -----------------------------------------------------------------

Number of atoms                         .... 13
Number of degrees of freedom            .... 50


         *************************************************************
         *                GEOMETRY OPTIMIZATION CYCLE   1            *
         *************************************************************
---------------------------------
CARTESIAN COORDINATES (ANGSTROEM)
---------------------------------
  C     -0.514300    0.602200   -2.525100
  C     -1.055200   -0.102500   -1.306100
  O     -2.145800    0.394600   -0.692900
  O     -0.544000   -1.124900   -0.876800
  C      0.737600   -0.043200   -3.148800
  N      1.908700    0.051600   -2.273000
  H     -0.283400    1.657600   -2.265000
  H     -1.321400    0.603600   -3.288700
  H      0.965100    0.496000   -4.095200
  H      0.532800   -1.106400   -3.404500
  H      2.112400    1.053900   -2.054600
  H      1.763900   -0.477000   -1.384900
  H      2.734500   -0.357200   -2.767000

----------------------------
CARTESIAN COORDINATES (A.U.)
----------------------------
  NO LB      ZA    FRAG     MASS         X           Y           Z
   0 C     6.0000    0    12.011   -0.971886    1.137993   -4.771747
   1 C     6.0000    0    12.011   -1.994039   -0.193697   -2.468171
   2 O     8.0000    0    15.999   -4.054974    0.745686   -1.309391
   3 O     8.0000    0    15.999   -1.028011   -2.125753   -1.656912
   4 C     6.0000    0    12.011    1.393862   -0.081636   -5.950370
   5 N     7.0000    0    14.007    3.606920    0.097510   -4.295348
   6 H     1.0000    0     1.008   -0.535548    3.132410   -4.280230
   7 H     1.0000    0     1.008   -2.497084    1.140639   -6.214742
   8 H     1.0000    0     1.008    1.823775    0.937304   -7.738806
   9 H     1.0000    0     1.008    1.006846   -2.090793   -6.433573
  10 H     1.0000    0     1.008    3.991857    1.991582   -3.882631
  11 H     1.0000    0     1.008    3.333288   -0.901399   -2.617082
  12 H     1.0000    0     1.008    5.167456   -0.675010   -5.228872

--------------------------------
INTERNAL COORDINATES (ANGSTROEM)
--------------------------------
 C      0   0   0     0.000000000000     0.00000000     0.00000000
 C      1   0   0     1.508355362638     0.00000000     0.00000000
 O      2   1   0     1.346302718559   119.08344556     0.00000000
 O      2   1   3     1.221034680097   121.68187593   178.63042948
 C      1   2   3     1.540388412057   115.01893650   179.80149154
 N      5   1   2     1.465430957091   112.35819523   292.97150784
 H      1   2   3     1.111231740007   109.21260647    57.04396369
 H      1   2   3     1.111079353602   107.18843098   300.16552499
 H      5   1   2     1.112729010137   107.90903822   173.68035146
 H      5   1   2     1.112528547948   110.11216446    56.29590083
 H      6   5   1     1.045847761388   110.02624774   301.81485109
 H      6   5   1     1.043602706972   111.40383247    63.51967753
 H      6   5   1     1.045513787570   108.87675586   182.86280608

---------------------------
INTERNAL COORDINATES (A.U.)
---------------------------
 C      0   0   0     0.000000000000     0.00000000     0.00000000
 C      1   0   0     2.850378548018     0.00000000     0.00000000
 O      2   1   0     2.544143431431   119.08344556     0.00000000
 O      2   1   3     2.307421145404   121.68187593   178.63042948
 C      1   2   3     2.910912238654   115.01893650   179.80149154
 N      5   1   2     2.769263177072   112.35819523   292.97150784
 H      1   2   3     2.099923659935   109.21260647    57.04396369
 H      1   2   3     2.099635691361   107.18843098   300.16552499
 H      5   1   2     2.102753090428   107.90903822   173.68035146
 H      5   1   2     2.102374271791   110.11216446    56.29590083
 H      6   5   1     1.976365846798   110.02624774   301.81485109
 H      6   5   1     1.972123308797   111.40383247    63.51967753
 H      6   5   1     1.975734727747   108.87675586   182.86280608

---------------------
BASIS SET INFORMATION
---------------------
There are 4 groups of distinct atoms

 Group   1 Type C   : 11s6p2d1f contracted to 5s3p2d1f pattern {62111/411/11/1}
 Group   2 Type O   : 11s6p2d1f contracted to 5s3p2d1f pattern {62111/411/11/1}
 Group   3 Type N   : 11s6p2d1f contracted to 5s3p2d1f pattern {62111/411/11/1}
 Group   4 Type H   : 5s1p contracted to 3s1p pattern {311/1}

Atom   0C    basis set group =>   1
Atom   1C    basis set group =>   1
Atom   2O    basis set group =>   2
Atom   3O    basis set group =>   2
Atom   4C    basis set group =>   1
Atom   5N    basis set group =>   3
Atom   6H    basis set group =>   4
Atom   7H    basis set group =>   4
Atom   8H    basis set group =>   4
Atom   9H    basis set group =>   4
Atom  10H    basis set group =>   4
Atom  11H    basis set group =>   4
Atom  12H    basis set group =>   4
---------------------------------
AUXILIARY/J BASIS SET INFORMATION
---------------------------------
There are 4 groups of distinct atoms

 Group   1 Type C   : 12s5p4d2f1g contracted to 6s4p3d1f1g pattern {711111/2111/211/2/1}
 Group   2 Type O   : 12s5p4d2f1g contracted to 6s4p3d1f1g pattern {711111/2111/211/2/1}
 Group   3 Type N   : 12s5p4d2f1g contracted to 6s4p3d1f1g pattern {711111/2111/211/2/1}
 Group   4 Type H   : 5s2p1d contracted to 3s1p1d pattern {311/2/1}

Atom   0C    basis set group =>   1
Atom   1C    basis set group =>   1
Atom   2O    basis set group =>   2
Atom   3O    basis set group =>   2
Atom   4C    basis set group =>   1
Atom   5N    basis set group =>   3
Atom   6H    basis set group =>   4
Atom   7H    basis set group =>   4
Atom   8H    basis set group =>   4
Atom   9H    basis set group =>   4
Atom  10H    basis set group =>   4
Atom  11H    basis set group =>   4
Atom  12H    basis set group =>   4
--------------------------------------------------------------------------
WARNING: There was an error initializing an OpenFabrics device.

  Local host:   ga00
  Local device: mlx5_0
--------------------------------------------------------------------------


           ************************************************************
           *        Program running with 6 parallel MPI-processes     *
           *              working on a common directory               *
           ************************************************************
------------------------------------------------------------------------------
                             ORCA STARTUP CALCULATIONS
                           -- RI-GTO INTEGRALS CHOSEN --
------------------------------------------------------------------------------
------------------------------------------------------------------------------
                   ___                                                        
                  /   \      - P O W E R E D   B Y -                         
                 /     \                                                     
                 |  |  |   _    _      __       _____    __    __             
                 |  |  |  | |  | |    /  \     |  _  \  |  |  /  |          
                  \  \/   | |  | |   /    \    | | | |  |  | /  /          
                 / \  \   | |__| |  /  /\  \   | |_| |  |  |/  /          
                |  |  |   |  __  | /  /__\  \  |    /   |      \           
                |  |  |   | |  | | |   __   |  |    \   |  |\   \          
                \     /   | |  | | |  |  |  |  | |\  \  |  | \   \       
                 \___/    |_|  |_| |__|  |__|  |_| \__\ |__|  \__/        
                                                                              
                      - O R C A' S   B I G   F R I E N D -                    
                                      &                                       
                       - I N T E G R A L  F E E D E R -                       
                                                                              
 v1 FN, 2020, v2 2021, v3 2022-2024                                           
------------------------------------------------------------------------------


----------------------
SHARK INTEGRAL PACKAGE
----------------------

Number of atoms                             ...     13
Number of basis functions                   ...    228
Number of shells                            ...     94
Maximum angular momentum                    ...      3
Integral batch strategy                     ... SHARK/LIBINT Hybrid
RI-J (if used) integral strategy            ... SPLIT-RIJ (Revised 2003 algorithm where possible)
Printlevel                                  ...      1
Contraction scheme used                     ... SEGMENTED contraction
Prescreening option                         ... SCHWARTZ
   Thresh                                   ... 2.500e-11
   Tcut                                     ... 2.500e-12
   Tpresel                                  ... 2.500e-12 
Coulomb Range Separation                    ... NOT USED
Exchange Range Separation                   ... NOT USED
Multipole approximations                    ... NOT USED
Finite Nucleus Model                        ... NOT USED
CABS basis                                  ... NOT available
Auxiliary Coulomb fitting basis             ... AVAILABLE
   # of basis functions in Aux-J            ...    371
   # of shells in Aux-J                     ...    125
   Maximum angular momentum in Aux-J        ...      4
Auxiliary J/K fitting basis                 ... NOT available
Auxiliary Correlation fitting basis         ... NOT available
Auxiliary 'external' fitting basis          ... NOT available

Checking pre-screening integrals            ... done (  0.0 sec) Dimension = 94
Check shell pair data                       ... done (  0.0 sec)
Shell pair information
Shell pair cut-off parameter TPreSel        ...   2.5e-12
Total number of shell pairs                 ...      4465
Shell pairs after pre-screening             ...      4196
Total number of primitive shell pairs       ...     13356
Primitive shell pairs kept                  ...      9730
          la=0 lb=0:   1212 shell pairs
          la=1 lb=0:   1213 shell pairs
          la=1 lb=1:    318 shell pairs
          la=2 lb=0:    570 shell pairs
          la=2 lb=1:    288 shell pairs
          la=2 lb=2:     76 shell pairs
          la=3 lb=0:    284 shell pairs
          la=3 lb=1:    145 shell pairs
          la=3 lb=2:     70 shell pairs
          la=3 lb=3:     20 shell pairs

Calculating one electron integrals          ... done (  0.0 sec)
Calculating RI/J V-Matrix + Cholesky decomp.... done (  0.0 sec)
Calculating Nuclear repulsion               ... done (  0.0 sec) ENN=    242.843883417778 Eh

Diagonalization of the overlap matrix:
Smallest eigenvalue                        ... 2.034e-04
Time for diagonalization                   ...    0.004 sec
Threshold for overlap eigenvalues          ... 1.000e-07
Number of eigenvalues below threshold      ... 0
Time for construction of square roots      ...    0.002 sec
Total time needed                          ...    0.006 sec

-------------------
DFT GRID GENERATION
-------------------

General Integration Accuracy     IntAcc      ... 4.388
Radial Grid Type                 RadialGrid  ... OptM3 with GC (2021)
Angular Grid (max. ang.)         AngularGrid ... 4 (Lebedev-302)
Angular grid pruning method      GridPruning ... 4 (adaptive)
Weight generation scheme         WeightScheme... mBecke (2022)
Basis function cutoff            BFCut       ... 1.0000e-11
Integration weight cutoff        WCut        ... 1.0000e-14
Partially contracted basis set               ... off
Rotationally invariant grid construction     ... off
Angular grids for H and He will be reduced by one unit

Total number of grid points                  ...    58907
Total number of batches                      ...      926
Average number of points per batch           ...       63
Average number of grid points per atom       ...     4531

--------------------
COSX GRID GENERATION
--------------------

GRIDX 1
-------
General Integration Accuracy     IntAcc      ... 3.816
Radial Grid Type                 RadialGrid  ... OptM3 with GC (2021)
Angular Grid (max. ang.)         AngularGrid ... 1 (Lebedev-50)
Angular grid pruning method      GridPruning ... 4 (adaptive)
Weight generation scheme         WeightScheme... mBecke (2022)
Basis function cutoff            BFCut       ... 1.0000e-11
Integration weight cutoff        WCut        ... 1.0000e-14
Partially contracted basis set               ... on
Rotationally invariant grid construction     ... off
Angular grids for H and He will be reduced by one unit

Total number of grid points                  ...     7535
Total number of batches                      ...       68
Average number of points per batch           ...      110
Average number of grid points per atom       ...      580
UseSFitting                                  ... on

GRIDX 2
-------
General Integration Accuracy     IntAcc      ... 4.020
Radial Grid Type                 RadialGrid  ... OptM3 with GC (2021)
Angular Grid (max. ang.)         AngularGrid ... 2 (Lebedev-110)
Angular grid pruning method      GridPruning ... 4 (adaptive)
Weight generation scheme         WeightScheme... mBecke (2022)
Basis function cutoff            BFCut       ... 1.0000e-11
Integration weight cutoff        WCut        ... 1.0000e-14
Partially contracted basis set               ... on
Rotationally invariant grid construction     ... off
Angular grids for H and He will be reduced by one unit

Total number of grid points                  ...    16266
Total number of batches                      ...      133
Average number of points per batch           ...      122
Average number of grid points per atom       ...     1251
UseSFitting                                  ... on

GRIDX 3
-------
General Integration Accuracy     IntAcc      ... 4.338
Radial Grid Type                 RadialGrid  ... OptM3 with GC (2021)
Angular Grid (max. ang.)         AngularGrid ... 3 (Lebedev-194)
Angular grid pruning method      GridPruning ... 4 (adaptive)
Weight generation scheme         WeightScheme... mBecke (2022)
Basis function cutoff            BFCut       ... 1.0000e-11
Integration weight cutoff        WCut        ... 1.0000e-14
Partially contracted basis set               ... on
Rotationally invariant grid construction     ... off
Angular grids for H and He will be reduced by one unit

Total number of grid points                  ...    35810
Total number of batches                      ...      286
Average number of points per batch           ...      125
Average number of grid points per atom       ...     2755
UseSFitting                                  ... on
Initializing property integral containers    ... done (  0.0 sec)

SHARK setup successfully completed in   0.5 seconds

Maximum memory used throughout the entire STARTUP-calculation: 21.2 MB
[ga00:431111] 5 more processes have sent help message help-mpi-btl-openib.txt / error in device init
[ga00:431111] Set MCA parameter "orte_base_help_aggregate" to 0 to see all help / error messages
--------------------------------------------------------------------------
WARNING: There was an error initializing an OpenFabrics device.

  Local host:   ga00
  Local device: mlx5_0
--------------------------------------------------------------------------


           ************************************************************
           *        Program running with 6 parallel MPI-processes     *
           *              working on a common directory               *
           ************************************************************
-------------------------------------------------------------------------------
                                 ORCA GUESS
                   Start orbitals & Density for SCF / CASSCF
-------------------------------------------------------------------------------

------------
SCF SETTINGS
------------
Hamiltonian:
 Density Functional     Method          .... DFT(GTOs)
 Exchange Functional    Exchange        .... B88
   X-Alpha parameter    XAlpha          ....  0.666667
   Becke's b parameter  XBeta           ....  0.004200
 Correlation Functional Correlation     .... LYP
 LDA part of GGA corr.  LDAOpt          .... VWN-5
 Gradients option       PostSCFGGA      .... off
 Hybrid DFT is turned on
   Fraction HF Exchange ScalHFX         ....  0.200000
   Scaling of DF-GGA-X  ScalDFX         ....  0.720000
   Scaling of DF-GGA-C  ScalDFC         ....  0.810000
   Scaling of DF-LDA-C  ScalLDAC        ....  1.000000
   Perturbative correction              ....  0.000000
   NL short-range parameter             ....  4.800000
 RI-approximation to the Coulomb term is turned on
   Number of AuxJ basis functions       .... 371
   RIJ-COSX (HFX calculated with COS-X)).... on


General Settings:
 Integral files         IntName         .... 01_Alanine_zwitterion
 Hartree-Fock type      HFTyp           .... RHF
 Total Charge           Charge          ....    0
 Multiplicity           Mult            ....    1
 Number of Electrons    NEL             ....   48
 Basis Dimension        Dim             ....  228
 Nuclear Repulsion      ENuc            ....    242.8438834178 Eh

Convergence Acceleration:
 AO-DIIS                CNVDIIS         .... on
   Start iteration      DIISMaxIt       ....    12
   Startup error        DIISStart       ....  0.200000
   # of expansion vecs  DIISMaxEq       ....     5
   Bias factor          DIISBfac        ....   1.050
   Max. coefficient     DIISMaxC        ....  10.000
 MO-DIIS                CNVKDIIS        .... off
 Trust-Rad. Augm. Hess. CNVTRAH         .... auto
   Auto Start mean grad. ratio tolernc. ....  1.125000
   Auto Start start iteration           ....    50
   Auto Start num. interpolation iter.  ....    10
   Max. Number of Micro iterations      ....    24
   Max. Number of Macro iterations      .... Maxiter - #DIIS iter
   Number of Davidson start vectors     ....     2
   Converg. threshold    (grad. norm)   ....   1.000e-05
   Grad. Scal. Fac. for Micro threshold ....   0.100
   Minimum threshold for Micro iter.    ....   1.000e-02
   NR start threshold (gradient norm)   ....   1.000e-04
   Initial trust radius                 ....   0.400
   Minimum AH scaling param. (alpha)    ....   1.000
   Maximum AH scaling param. (alpha)    .... 1000.000
   Quad. conv. algorithm                .... NR
   White noise on init. David. guess    .... on
   Maximum white noise                  ....   0.010
   Pseudo random numbers                .... off
   Inactive MOs                         .... canonical
   Orbital update algorithm             .... Taylor
   Preconditioner                       .... Diag
   Full preconditioner red. dimension   ....   250
 SOSCF                  CNVSOSCF        .... on
   Start iteration      SOSCFMaxIt      ....   150
   Startup grad/error   SOSCFStart      ....  0.003300
   Hessian update       SOSCFHessUp     .... L-BFGS
 Level Shifting         CNVShift        .... on
   Level shift para.    LevelShift      ....    0.2500
   Turn off err/grad.   ShiftErr        ....    0.0010
 Zerner damping         CNVZerner       .... off
 Static damping         CNVDamp         .... on
   Fraction old density DampFac         ....    0.7000
   Max. Damping (<1)    DampMax         ....    0.9800
   Min. Damping (>=0)   DampMin         ....    0.0000
   Turn off err/grad.   DampErr         ....    0.1000

SCF Procedure:
 Maximum # iterations   MaxIter         ....   125
 SCF integral mode      SCFMode         .... Direct
   Integral package                     .... SHARK and LIBINT hybrid scheme
 Reset frequency        DirectResetFreq ....    20
 Integral Threshold     Thresh          ....  2.500e-11 Eh
 Primitive CutOff       TCut            ....  2.500e-12 Eh

Convergence Tolerance:
 Convergence Check Mode ConvCheckMode   .... Total+1el-Energy
 Convergence forced     ConvForced      .... 0
 Energy Change          TolE            ....  1.000e-08 Eh
 1-El. energy change                    ....  1.000e-05 Eh
 Orbital Gradient       TolG            ....  1.000e-05
 Orbital Rotation angle TolX            ....  1.000e-05
 DIIS Error             TolErr          ....  5.000e-07

------------------------------
INITIAL GUESS: MODEL POTENTIAL
------------------------------
Loading Hartree-Fock densities                     ... done
Calculating cut-offs                               ... done
Initializing the effective Hamiltonian             ... done
Setting up the integral package (SHARK)            ... done
Starting the Coulomb interaction                   ... done (   0.0 sec)
Making the grid                                    ... done (   0.1 sec)
Mapping shells                                     ... done
Starting the XC term evaluation                    ... done (   0.0 sec)
  promolecular density results
     # of electrons  =     47.999832326
     EX              =    -40.436319578
     EC              =     -1.631821588
     EX+EC           =    -42.068141165
Transforming the Hamiltonian                       ... done (   0.0 sec)
Diagonalizing the Hamiltonian                      ... done (   0.0 sec)
Back transforming the eigenvectors                 ... done (   0.0 sec)
Now organizing SCF variables                       ... done
                      ------------------
                      INITIAL GUESS DONE (   0.1 sec)
                      ------------------
             **** ENERGY FILE WAS UPDATED (01_Alanine_zwitterion.en.tmp) ****
Finished Guess after   0.5 sec
Maximum memory used throughout the entire GUESS-calculation: 13.9 MB
[ga00:431152] 5 more processes have sent help message help-mpi-btl-openib.txt / error in device init
[ga00:431152] Set MCA parameter "orte_base_help_aggregate" to 0 to see all help / error messages
--------------------------------------------------------------------------
WARNING: There was an error initializing an OpenFabrics device.

  Local host:   ga00
  Local device: mlx5_0
--------------------------------------------------------------------------


           ************************************************************
           *        Program running with 6 parallel MPI-processes     *
           *              working on a common directory               *
           ************************************************************

-------------------------------------------------------------------------------------------
                                      ORCA LEAN-SCF
                              memory conserving SCF solver
-------------------------------------------------------------------------------------------

--------------------
CPCM SOLVATION MODEL
--------------------
CPCM parameters:
  Epsilon                                         ...      80.1510
  Refrac                                          ...       1.3328
  Rsolv                                           ...       1.3000
  Surface type                                    ... GAUSSIAN VDW
  Discretization scheme                           ... Constant charge density
    Threshold for H atoms                         ...       5.0000 (charges/Ang^2)
    Threshold for non-H atoms                     ...       5.0000 (charges/Ang^2)
  Epsilon function type                           ...         CPCM
Solvent:                                          ... WATER
Radii:
  Scheme                                          ... Element-dependent radii
  Radius for C  used is    3.8550 Bohr (=   2.0400 Ang.)
  Radius for O  used is    3.4469 Bohr (=   1.8240 Ang.)
  Radius for N  used is    3.5149 Bohr (=   1.8600 Ang.)
  Radius for H  used is    2.4944 Bohr (=   1.3200 Ang.)
Calculating surface                               ...        done! (  0.0s)
Cavity surface points                             ...         1135
Cavity Volume                                     ...     765.2612
Cavity Surface-area                               ...     472.6715
Calculating surface distance matrix               ...        done! (  0.0s)
Performing Cholesky decomposition & store         ...        done! (  0.0s)
Overall time for CPCM initialization              ...                 0.0s

----------------------------------------D-I-I-S--------------------------------------------
Iteration    Energy (Eh)           Delta-E    RMSDP     MaxDP     DIISErr   Damp  Time(sec)
-------------------------------------------------------------------------------------------
               ***  Starting incremental Fock matrix formation  ***
    1    -323.4216824697181210     0.00e+00  4.95e-03  4.59e-01  3.56e-01  0.700   0.9
    2    -323.5643570036720575    -1.43e-01  4.49e-03  4.50e-01  1.34e-01  0.700   0.5
                               ***Turning on AO-DIIS***
    3    -323.6116586519838165    -4.73e-02  1.37e-03  1.17e-01  3.39e-02  0.700   0.5
    4    -323.6420318124057758    -3.04e-02  1.18e-03  5.24e-02  1.34e-02  0.000   0.5
    5    -323.7118441625981404    -6.98e-02  1.17e-03  1.23e-01  8.48e-03  0.000   0.5
                              *** Initializing SOSCF ***
---------------------------------------S-O-S-C-F--------------------------------------
Iteration    Energy (Eh)           Delta-E    RMSDP     MaxDP     MaxGrad    Time(sec)
--------------------------------------------------------------------------------------
    6    -323.7122448300224278    -4.01e-04  4.02e-04  4.18e-02  2.44e-03     0.5
               *** Restarting incremental Fock matrix formation ***
    7    -323.7122636429925251    -1.88e-05  3.04e-04  2.95e-02  5.64e-04     0.8
[ga00:431186] 5 more processes have sent help message help-mpi-btl-openib.txt / error in device init
[ga00:431186] Set MCA parameter "orte_base_help_aggregate" to 0 to see all help / error messages
    8    -323.7122537061413823     9.94e-06  5.22e-05  2.07e-03  1.28e-03     0.7
    9    -323.7122716801267188    -1.80e-05  4.09e-05  4.11e-03  7.27e-05     0.7
   10    -323.7122715658559855     1.14e-07  8.65e-06  7.82e-04  9.83e-05     0.7
   11    -323.7122719493144132    -3.83e-07  8.75e-06  8.90e-04  2.00e-05     0.6
   12    -323.7122719376235409     1.17e-08  4.77e-06  4.88e-04  2.72e-05     0.6
   13    -323.7122719590855695    -2.15e-08  4.09e-07  4.26e-05  6.21e-07     0.6
                  *** Gradient check signals convergence ***

               *****************************************************
               *                     SUCCESS                       *
               *           SCF CONVERGED AFTER  13 CYCLES          *
               *****************************************************

Recomputing exchange energy using gridx3       ... done (    1.189 sec)
Old exchange energy                            :     -8.207978980 Eh
New exchange energy                            :     -8.207972520 Eh
Exchange energy change after final integration :      0.000006460 Eh
Total energy after final integration           :   -323.712265499 Eh
             **** ENERGY FILE WAS UPDATED (01_Alanine_zwitterion.en.tmp) ****

----------------
TOTAL SCF ENERGY
----------------

Total Energy       :       -323.71226549907533 Eh           -8808.65857 eV

Components:
Nuclear Repulsion  :        242.84388341777773 Eh            6608.11802 eV
Electronic Energy  :       -566.45256280606623 Eh          -15413.95786 eV
One Electron Energy:       -922.76307887596136 Eh          -25109.65993 eV
Two Electron Energy:        356.31051606989507 Eh            9695.70206 eV
CPCM Dielectric    :         -0.10359257079709 Eh              -2.81890 eV

Virial components:
Potential Energy   :       -645.71609980122082 Eh          -17570.82836 eV
Kinetic Energy     :        322.00383430214549 Eh            8762.16979 eV
Virial Ratio       :          2.00530562376884

DFT components:
N(Alpha)           :       24.000025191187 electrons
N(Beta)            :       24.000025191187 electrons
N(Total)           :       48.000050382374 electrons
E(X)               :      -32.663393998926 Eh       
E(C)               :       -1.930539411194 Eh       
E(XC)              :      -34.593933410120 Eh       

CPCM Solvation Model Properties:
Surface-charge          :         -0.01882213714743
Corrected charge        :          0.00000000000000
Outlying charge corr.   :          0.00002934060034 Eh               0.00080 eV
Free-energy (cav+disp)  :  This term is not implemented in the current solvation scheme

---------------
SCF CONVERGENCE
---------------

  Last Energy change         ...    2.1462e-08  Tolerance :   1.0000e-08
  Last MAX-Density change    ...    4.2630e-05  Tolerance :   1.0000e-07
  Last RMS-Density change    ...    4.0900e-07  Tolerance :   5.0000e-09
  Last DIIS Error            ...    2.4400e-03  Tolerance :   5.0000e-07
  Last Orbital Gradient      ...    6.2098e-07  Tolerance :   1.0000e-05
  Last Orbital Rotation      ...    1.1647e-06  Tolerance :   1.0000e-05


----------------
ORBITAL ENERGIES
----------------

  NO   OCC          E(Eh)            E(eV) 
   0   2.0000     -19.069235      -518.9003 
   1   2.0000     -19.042819      -518.1815 
   2   2.0000     -14.430564      -392.6756 
   3   2.0000     -10.251217      -278.9498 
   4   2.0000     -10.228426      -278.3296 
   5   2.0000     -10.179989      -277.0116 
   6   2.0000      -1.024525       -27.8787 
   7   2.0000      -0.992513       -27.0076 
   8   2.0000      -0.896956       -24.4074 
   9   2.0000      -0.770760       -20.9734 
  10   2.0000      -0.658391       -17.9157 
  11   2.0000      -0.576744       -15.6940 
  12   2.0000      -0.567384       -15.4393 
  13   2.0000      -0.515331       -14.0229 
  14   2.0000      -0.483462       -13.1557 
  15   2.0000      -0.440343       -11.9823 
  16   2.0000      -0.423492       -11.5238 
  17   2.0000      -0.411321       -11.1926 
  18   2.0000      -0.383551       -10.4369 
  19   2.0000      -0.364368        -9.9150 
  20   2.0000      -0.351875        -9.5750 
  21   2.0000      -0.249078        -6.7777 
  22   2.0000      -0.239697        -6.5225 
  23   2.0000      -0.217943        -5.9305 
  24   0.0000       0.014433         0.3928 
  25   0.0000       0.038901         1.0586 
  26   0.0000       0.061696         1.6788 
  27   0.0000       0.069320         1.8863 
  28   0.0000       0.077638         2.1126 
  29   0.0000       0.103728         2.8226 
  30   0.0000       0.118965         3.2372 
  31   0.0000       0.128381         3.4934 
  32   0.0000       0.145698         3.9647 
  33   0.0000       0.158479         4.3124 
  34   0.0000       0.177365         4.8263 
*Only the first 10 virtual orbitals were printed.

                    ********************************
                    * MULLIKEN POPULATION ANALYSIS *
                    ********************************

-----------------------
MULLIKEN ATOMIC CHARGES
-----------------------
   0 C :   -0.232458
   1 C :    0.229837
   2 O :   -0.693429
   3 O :   -0.490924
   4 C :   -0.124822
   5 N :   -0.263731
   6 H :    0.128225
   7 H :    0.134629
   8 H :    0.159736
   9 H :    0.154502
  10 H :    0.335977
  11 H :    0.322385
  12 H :    0.340073
Sum of atomic charges:   -0.0000000

--------------------------------
MULLIKEN REDUCED ORBITAL CHARGES
--------------------------------
  0 C s       :     3.190660  s :     3.190660
      pz      :     0.988612  p :     2.962088
      px      :     0.962656
      py      :     1.010820
      dz2     :     0.015077  d :     0.074046
      dxz     :     0.021530
      dyz     :     0.010138
      dx2y2   :     0.017449
      dxy     :     0.009851
      f0      :     0.000509  f :     0.005665
      f+1     :     0.001039
      f-1     :     0.000543
      f+2     :     0.001376
      f-2     :     0.000786
      f+3     :     0.000796
      f-3     :     0.000616

  1 C s       :     3.036488  s :     3.036488
      pz      :     0.903819  p :     2.491853
      px      :     0.772489
      py      :     0.815546
      dz2     :     0.034280  d :     0.217608
      dxz     :     0.034122
      dyz     :     0.042102
      dx2y2   :     0.063831
      dxy     :     0.043274
      f0      :     0.001768  f :     0.024215
      f+1     :     0.003770
      f-1     :     0.003608
      f+2     :     0.004298
      f-2     :     0.003000
      f+3     :     0.003702
      f-3     :     0.004070

  2 O s       :     3.810670  s :     3.810670
      pz      :     1.659700  p :     4.858118
      px      :     1.465667
      py      :     1.732751
      dz2     :     0.003151  d :     0.023260
      dxz     :     0.006443
      dyz     :     0.002700
      dx2y2   :     0.005749
      dxy     :     0.005216
      f0      :     0.000138  f :     0.001381
      f+1     :     0.000224
      f-1     :     0.000068
      f+2     :     0.000216
      f-2     :     0.000270
      f+3     :     0.000234
      f-3     :     0.000232

  3 O s       :     3.769895  s :     3.769895
      pz      :     1.648169  p :     4.691691
      px      :     1.623021
      py      :     1.420501
      dz2     :     0.004003  d :     0.027574
      dxz     :     0.002996
      dyz     :     0.006317
      dx2y2   :     0.007549
      dxy     :     0.006710
      f0      :     0.000145  f :     0.001764
      f+1     :     0.000107
      f-1     :     0.000325
      f+2     :     0.000205
      f-2     :     0.000278
      f+3     :     0.000281
      f-3     :     0.000425

  4 C s       :     3.239171  s :     3.239171
      pz      :     0.926975  p :     2.776207
      px      :     0.788334
      py      :     1.060898
      dz2     :     0.019363  d :     0.101109
      dxz     :     0.023719
      dyz     :     0.015074
      dx2y2   :     0.027593
      dxy     :     0.015360
      f0      :     0.000516  f :     0.008335
      f+1     :     0.002000
      f-1     :     0.000550
      f+2     :     0.001793
      f-2     :     0.001361
      f+3     :     0.001081
      f-3     :     0.001034

  5 N s       :     3.448399  s :     3.448399
      pz      :     1.252052  p :     3.767075
      px      :     1.239134
      py      :     1.275889
      dz2     :     0.011742  d :     0.045960
      dxz     :     0.007202
      dyz     :     0.008533
      dx2y2   :     0.009397
      dxy     :     0.009085
      f0      :     0.000189  f :     0.002297
      f+1     :     0.000390
      f-1     :     0.000316
      f+2     :     0.000492
      f-2     :     0.000374
      f+3     :     0.000135
      f-3     :     0.000401

  6 H s       :     0.850602  s :     0.850602
      pz      :     0.004503  p :     0.021173
      px      :     0.004060
      py      :     0.012610

  7 H s       :     0.843820  s :     0.843820
      pz      :     0.008291  p :     0.021551
      px      :     0.009093
      py      :     0.004167

  8 H s       :     0.819345  s :     0.819345
      pz      :     0.011403  p :     0.020919
      px      :     0.003512
      py      :     0.006004

  9 H s       :     0.824441  s :     0.824441
      pz      :     0.004366  p :     0.021057
      px      :     0.003736
      py      :     0.012954

 10 H s       :     0.632436  s :     0.632436
      pz      :     0.006225  p :     0.031587
      px      :     0.006230
      py      :     0.019132

 11 H s       :     0.644755  s :     0.644755
      pz      :     0.016925  p :     0.032861
      px      :     0.006324
      py      :     0.009612

 12 H s       :     0.628477  s :     0.628477
      pz      :     0.008592  p :     0.031450
      px      :     0.015083
      py      :     0.007774



                     *******************************
                     * LOEWDIN POPULATION ANALYSIS *
                     *******************************

----------------------
LOEWDIN ATOMIC CHARGES
----------------------
   0 C :   -0.251733
   1 C :   -0.639933
   2 O :   -0.291313
   3 O :   -0.056449
   4 C :   -0.264904
   5 N :    0.177406
   6 H :    0.156257
   7 H :    0.164876
   8 H :    0.152753
   9 H :    0.151208
  10 H :    0.238124
  11 H :    0.224276
  12 H :    0.239432

-------------------------------
LOEWDIN REDUCED ORBITAL CHARGES
-------------------------------
  0 C s       :     2.796333  s :     2.796333
      pz      :     1.033004  p :     3.066735
      px      :     1.005640
      py      :     1.028090
      dz2     :     0.060853  d :     0.352792
      dxz     :     0.107788
      dyz     :     0.053700
      dx2y2   :     0.080813
      dxy     :     0.049639
      f0      :     0.004737  f :     0.035873
      f+1     :     0.005716
      f-1     :     0.004984
      f+2     :     0.006013
      f-2     :     0.004896
      f+3     :     0.005410
      f-3     :     0.004117

  1 C s       :     2.785391  s :     2.785391
      pz      :     0.918074  p :     2.728803
      px      :     0.880210
      py      :     0.930519
      dz2     :     0.161369  d :     0.971494
      dxz     :     0.163408
      dyz     :     0.195241
      dx2y2   :     0.230410
      dxy     :     0.221067
      f0      :     0.011953  f :     0.154245
      f+1     :     0.023458
      f-1     :     0.023098
      f+2     :     0.030654
      f-2     :     0.015238
      f+3     :     0.022607
      f-3     :     0.027236

  2 O s       :     3.499531  s :     3.499531
      pz      :     1.600832  p :     4.740261
      px      :     1.483705
      py      :     1.655725
      dz2     :     0.005901  d :     0.047749
      dxz     :     0.014748
      dyz     :     0.004484
      dx2y2   :     0.010639
      dxy     :     0.011977
      f0      :     0.000403  f :     0.003772
      f+1     :     0.000592
      f-1     :     0.000140
      f+2     :     0.000635
      f-2     :     0.000714
      f+3     :     0.000544
      f-3     :     0.000744

  3 O s       :     3.404678  s :     3.404678
      pz      :     1.548416  p :     4.579698
      px      :     1.548423
      py      :     1.482859
      dz2     :     0.008577  d :     0.066044
      dxz     :     0.005313
      dyz     :     0.017609
      dx2y2   :     0.016118
      dxy     :     0.018428
      f0      :     0.000586  f :     0.006029
      f+1     :     0.000304
      f-1     :     0.000962
      f+2     :     0.000782
      f-2     :     0.000934
      f+3     :     0.001314
      f-3     :     0.001147

  4 C s       :     2.804885  s :     2.804885
      pz      :     0.982329  p :     2.978078
      px      :     0.925610
      py      :     1.070138
      dz2     :     0.078766  d :     0.430938
      dxz     :     0.108974
      dyz     :     0.061822
      dx2y2   :     0.112720
      dxy     :     0.068657
      f0      :     0.004556  f :     0.051003
      f+1     :     0.011627
      f-1     :     0.004052
      f+2     :     0.008109
      f-2     :     0.008641
      f+3     :     0.007083
      f-3     :     0.006935

  5 N s       :     2.985064  s :     2.985064
      pz      :     1.229234  p :     3.669313
      px      :     1.223231
      py      :     1.216848
      dz2     :     0.035836  d :     0.158129
      dxz     :     0.031754
      dyz     :     0.028455
      dx2y2   :     0.033815
      dxy     :     0.028268
      f0      :     0.001173  f :     0.010089
      f+1     :     0.002055
      f-1     :     0.001214
      f+2     :     0.000945
      f-2     :     0.001960
      f+3     :     0.000839
      f-3     :     0.001904

  6 H s       :     0.786395  s :     0.786395
      pz      :     0.013392  p :     0.057348
      px      :     0.012155
      py      :     0.031801

  7 H s       :     0.778155  s :     0.778155
      pz      :     0.021662  p :     0.056969
      px      :     0.023097
      py      :     0.012210

  8 H s       :     0.789746  s :     0.789746
      pz      :     0.028993  p :     0.057501
      px      :     0.010216
      py      :     0.018292

  9 H s       :     0.790735  s :     0.790735
      pz      :     0.011883  p :     0.058057
      px      :     0.010821
      py      :     0.035353

 10 H s       :     0.667549  s :     0.667549
      pz      :     0.017768  p :     0.094327
      px      :     0.017134
      py      :     0.059426

 11 H s       :     0.677106  s :     0.677106
      pz      :     0.051048  p :     0.098618
      px      :     0.018402
      py      :     0.029167

 12 H s       :     0.666326  s :     0.666326
      pz      :     0.027301  p :     0.094243
      px      :     0.043832
      py      :     0.023109



                      *****************************
                      * MAYER POPULATION ANALYSIS *
                      *****************************

  NA   - Mulliken gross atomic population
  ZA   - Total nuclear charge
  QA   - Mulliken gross atomic charge
  VA   - Mayer's total valence
  BVA  - Mayer's bonded valence
  FA   - Mayer's free valence

  ATOM       NA         ZA         QA         VA         BVA        FA
  0 C      6.2325     6.0000    -0.2325     3.6432     3.6432     0.0000
  1 C      5.7702     6.0000     0.2298     4.5607     4.5607    -0.0000
  2 O      8.6934     8.0000    -0.6934     1.7265     1.7265     0.0000
  3 O      8.4909     8.0000    -0.4909     1.8948     1.8948    -0.0000
  4 C      6.1248     6.0000    -0.1248     3.8077     3.8077     0.0000
  5 N      7.2637     7.0000    -0.2637     3.4977     3.4977    -0.0000
  6 H      0.8718     1.0000     0.1282     0.9865     0.9865     0.0000
  7 H      0.8654     1.0000     0.1346     0.9838     0.9838     0.0000
  8 H      0.8403     1.0000     0.1597     0.9620     0.9620     0.0000
  9 H      0.8455     1.0000     0.1545     0.9762     0.9762     0.0000
 10 H      0.6640     1.0000     0.3360     0.8869     0.8869    -0.0000
 11 H      0.6776     1.0000     0.3224     0.9194     0.9194    -0.0000
 12 H      0.6599     1.0000     0.3401     0.8800     0.8800    -0.0000

  Mayer bond orders larger than 0.100000
B(  0-C ,  1-C ) :   0.9331 B(  0-C ,  4-C ) :   0.9494 B(  0-C ,  6-H ) :   0.9447 
B(  0-C ,  7-H ) :   0.9405 B(  1-C ,  2-O ) :   1.7415 B(  1-C ,  3-O ) :   1.8583 
B(  4-C ,  5-N ) :   0.9073 B(  4-C ,  8-H ) :   0.9516 B(  4-C ,  9-H ) :   0.9583 
B(  5-N , 10-H ) :   0.8659 B(  5-N , 11-H ) :   0.8567 B(  5-N , 12-H ) :   0.8688 


-------
TIMINGS
-------

Total SCF time: 0 days 0 hours 0 min 9 sec 

Total time                  ....       9.705 sec
Sum of individual times     ....       9.688 sec  ( 99.8%)

SCF preparation             ....       0.380 sec  (  3.9%)
Fock matrix formation       ....       9.092 sec  ( 93.7%)
  Startup                   ....       0.007 sec  (  0.1% of F)
  Split-RI-J                ....       0.598 sec  (  6.6% of F)
  Chain of spheres X        ....       6.207 sec  ( 68.3% of F)
  XC integration            ....       1.406 sec  ( 15.5% of F)
    XC Preparation          ....       0.000 sec  (  0.0% of XC)
    Basis function eval.    ....       0.416 sec  ( 29.5% of XC)
    Density eval.           ....       0.300 sec  ( 21.3% of XC)
    XC-Functional eval.     ....       0.073 sec  (  5.2% of XC)
    XC-Potential eval.      ....       0.533 sec  ( 37.9% of XC)
  CPCM terms                ....       0.844 sec  (  9.3% of F)
Diagonalization             ....       0.000 sec  (  0.0%)
Density matrix formation    ....       0.021 sec  (  0.2%)
Total Energy calculation    ....       0.016 sec  (  0.2%)
Population analysis         ....       0.010 sec  (  0.1%)
Orbital Transformation      ....       0.019 sec  (  0.2%)
Orbital Orthonormalization  ....       0.000 sec  (  0.0%)
DIIS solution               ....       0.091 sec  (  0.9%)
SOSCF solution              ....       0.059 sec  (  0.6%)
Finished LeanSCF after   9.7 sec

Maximum memory used throughout the entire LEANSCF-calculation: 21.8 MB


-------------------------------------------------------------------------------
                          DFT DISPERSION CORRECTION                            
                                                                               
                                DFTD4 V3.4.0                                   
-------------------------------------------------------------------------------
The B3LYP functional is recognized
Active option DFTDOPT                   ...         5   

-------------------------   ----------------
Dispersion correction           -0.014102473
-------------------------   ----------------


-------------------------   --------------------
FINAL SINGLE POINT ENERGY      -323.726367972121
-------------------------   --------------------

--------------------------------------------------------------------------
WARNING: There was an error initializing an OpenFabrics device.

  Local host:   ga00
  Local device: mlx5_0
--------------------------------------------------------------------------


           ************************************************************
           *        Program running with 6 parallel MPI-processes     *
           *              working on a common directory               *
           ************************************************************
------------------------------------------------------------------------------
                         ORCA SCF GRADIENT CALCULATION
------------------------------------------------------------------------------

Nuc. rep. gradient        (SHARK) ... done (  0.0 sec)
HCore & Overlap gradient  (SHARK) ... done (  0.0 sec)
Split-RIJ-J gradient      (SHARK) ... done (  0.2 sec)
COSX-gradient                     ... done (  4.1 sec)
XC gradient                       ... [ga00:431354] 5 more processes have sent help message help-mpi-btl-openib.txt / error in device init
[ga00:431354] Set MCA parameter "orte_base_help_aggregate" to 0 to see all help / error messages
done (  0.5 sec)
CPCM gradient                     ... done (  0.3 sec)
Dispersion correction             ... done (  0.0 sec)

-------------------
DISPERSION GRADIENT
-------------------

   1   C   :   -0.000165149    0.000152638   -0.000150298
   2   C   :   -0.000391478   -0.000026273    0.000233281
   3   O   :   -0.000352133    0.000059059    0.000247249
   4   O   :   -0.000256614   -0.000363692    0.000394933
   5   C   :    0.000167987    0.000005652   -0.000335940
   6   N   :    0.000566886    0.000027397   -0.000164419
   7   H   :   -0.000049241    0.000127106   -0.000017368
   8   H   :   -0.000114050    0.000047739   -0.000093435
   9   H   :    0.000059985    0.000013316   -0.000094024
  10   H   :    0.000057138   -0.000049000   -0.000077342
  11   H   :    0.000154429    0.000123655    0.000024786
  12   H   :    0.000110914   -0.000060514    0.000094153
  13   H   :    0.000211326   -0.000057083   -0.000061575

Difference to translation invariance:
           :    0.0000000000   -0.0000000000    0.0000000000

Difference to rotation invariance:
           :   -0.0000000000   -0.0000000000    0.0000000000

Norm of the Dispersion gradient    ...    0.0012239050
RMS gradient                       ...    0.0001959817
MAX gradient                       ...    0.0005668858

------------------
CARTESIAN GRADIENT
------------------

   1   C   :   -0.003910614   -0.009087460    0.009772532
   2   C   :    0.080159830   -0.031039759   -0.048219653
   3   O   :   -0.050291194    0.006339332    0.042477439
   4   O   :   -0.033539320    0.029898823    0.000690224
   5   C   :    0.031916981    0.000735691    0.025241844
   6   N   :   -0.022124549    0.000825361   -0.007040054
   7   H   :    0.005170564    0.009016335    0.003614459
   8   H   :   -0.010052412   -0.002777867   -0.006902120
   9   H   :   -0.001214023    0.007753600   -0.012947290
  10   H   :   -0.007463944   -0.013249879   -0.006790380
  11   H   :    0.000397746    0.018933778    0.000996024
  12   H   :   -0.000056231   -0.008452528    0.012012357
  13   H   :    0.011007166   -0.008895426   -0.012905383

Difference to translation invariance:
           :   -0.0000000000   -0.0000000000    0.0000000000

Difference to rotation invariance:
           :    0.0000548025    0.0004856552    0.0009687428

Norm of the Cartesian gradient     ...    0.1422077714
RMS gradient                       ...    0.0227714679
MAX gradient                       ...    0.0801598296

-------
TIMINGS
-------

Total SCF gradient time     ....        5.265 sec

Densities                   ....       0.001 sec  (  0.0%)
One electron gradient       ....       0.035 sec  (  0.7%)
RI-J Coulomb gradient       ....       0.245 sec  (  4.7%)
COSX gradient               ....       4.138 sec  ( 78.6%)
XC gradient                 ....       0.532 sec  ( 10.1%)
CPCM gradient               ....       0.289 sec  (  5.5%)
   A-Matrix (El+Nuc)        ....       0.037 sec  (  0.7%)
   Potential                ....       0.252 sec  (  4.8%)

Maximum memory used throughout the entire SCFGRAD-calculation: 32.5 MB
------------------------------------------------------------------------------
                         ORCA GEOMETRY RELAXATION STEP
------------------------------------------------------------------------------

Reading the OPT-File                    .... done
Getting information on internals        .... done
Copying old internal coords+grads       .... done
Making the new internal coordinates     .... (2022 redundants) done
Validating the new internal coordinates .... (2022 redundants) done
Calculating the B-matrix                .... done
Calculating the G,G- and P matrices     .... done
Transforming gradient to internals      .... done
Projecting the internal gradient        .... done
Number of atoms                         ....  13
Number of internal coordinates          ....  50
Current Energy                          ....  -323.726367972 Eh
Current gradient norm                   ....     0.142207771 Eh/bohr
Maximum allowed component of the step   ....  0.300
Current trust radius                    ....  0.300
Evaluating the initial hessian          ....  (Almloef) done
Projecting the Hessian                  .... done
Forming the augmented Hessian           .... done
Diagonalizing the augmented Hessian     .... done
Last element of RFO vector              ....  0.964641514
Lowest eigenvalues of augmented Hessian:
 -0.019131151  0.010706053  0.012140935  0.012896668  0.016441875
Length of the computed step             ....  0.273226326
The final length of the internal step   ....  0.273226326
Converting the step to Cartesian space:
 Initial RMS(Int)=    0.0386400376
Transforming coordinates:
 Iter   0:  RMS(Cart)=    0.0834237186 RMS(Int)=    0.0383340974
 Iter   5:  RMS(Cart)=    0.0000004804 RMS(Int)=    0.0000003169
done
Storing new coordinates                 .... done

                                .--------------------.
          ----------------------|Geometry convergence|-------------------------
          Item                value                   Tolerance       Converged
          ---------------------------------------------------------------------
          RMS gradient        0.0140157279            0.0000300000      NO
          MAX gradient        0.0624375322            0.0001000000      NO
          RMS step            0.0386400376            0.0006000000      NO
          MAX step            0.0976486506            0.0010000000      NO
          ........................................................
          Max(Bonds)      0.0489      Max(Angles)    4.34
          Max(Dihed)        5.59      Max(Improp)    0.00
          ---------------------------------------------------------------------

The optimization has not yet converged - more geometry cycles are needed


    ---------------------------------------------------------------------------
                         Redundant Internal Coordinates
                            (Angstroem and degrees)

        Definition                    Value    dE/dq     Step     New-Value
    ----------------------------------------------------------------------------
     1. B(C   1,C   0)                1.5084 -0.005235  0.0065    1.5149   
     2. B(O   2,C   1)                1.3463  0.062438 -0.0489    1.2974   
     3. B(O   3,C   1)                1.2210 -0.038857  0.0194    1.2404   
     4. B(C   4,C   0)                1.5404  0.011722 -0.0164    1.5240   
     5. B(N   5,C   4)                1.4654 -0.012590  0.0150    1.4805   
     6. B(H   6,C   0)                1.1112  0.010498 -0.0158    1.0955   
     7. B(H   7,C   0)                1.1111  0.012039 -0.0181    1.0930   
     8. B(H   8,C   4)                1.1127  0.014519 -0.0219    1.0908   
     9. B(H   9,C   4)                1.1125  0.015599 -0.0235    1.0890   
    10. B(H  10,N   5)                1.0458  0.018410 -0.0245    1.0214   
    11. B(H  11,N   5)                1.0436  0.014531 -0.0191    1.0245   
    12. B(H  12,N   5)                1.0455  0.018274 -0.0242    1.0213   
    13. A(C   4,C   0,H   6)          108.89 -0.005374    0.82    109.72   
    14. A(C   1,C   0,C   4)          115.02  0.009313   -1.36    113.66   
    15. A(H   6,C   0,H   7)          108.10  0.003528   -0.81    107.28   
    16. A(C   1,C   0,H   7)          107.19 -0.006090    1.24    108.43   
    17. A(C   4,C   0,H   7)          108.22 -0.001109    0.26    108.48   
    18. A(C   1,C   0,H   6)          109.21 -0.000384   -0.16    109.05   
    19. A(O   2,C   1,O   3)          119.22 -0.035684    4.34    123.56   
    20. A(C   0,C   1,O   2)          119.08  0.019716   -2.43    116.65   
    21. A(C   0,C   1,O   3)          121.68  0.015903   -1.77    119.91   
    22. A(N   5,C   4,H   9)          110.26  0.007766   -1.60    108.66   
    23. A(C   0,C   4,H   9)          110.11 -0.005515    0.47    110.59   
    24. A(N   5,C   4,H   8)          108.27 -0.000387    0.29    108.56   
    25. A(C   0,C   4,H   8)          107.91 -0.006761    1.60    109.51   
    26. A(H   8,C   4,H   9)          107.77 -0.003005    0.46    108.23   
    27. A(C   0,C   4,N   5)          112.36  0.007233   -1.09    111.27   
    28. A(H  11,N   5,H  12)          108.28  0.002513   -0.25    108.03   
    29. A(H  10,N   5,H  12)          108.64  0.004077   -0.54    108.10   
    30. A(C   4,N   5,H  12)          108.88 -0.007948    1.50    110.38   
    31. A(H  10,N   5,H  11)          109.56  0.002049   -0.70    108.86   
    32. A(C   4,N   5,H  11)          111.40  0.005030   -0.88    110.52   
    33. A(C   4,N   5,H  10)          110.03 -0.005637    0.86    110.89   
    34. D(O   3,C   1,C   0,C   4)     -1.57 -0.003422    5.58      4.01   
    35. D(O   2,C   1,C   0,C   4)    179.80  0.000248   -1.04    178.76   
    36. D(O   2,C   1,C   0,H   6)     57.04  0.000958   -1.03     56.01   
    37. D(O   3,C   1,C   0,H   6)   -124.33 -0.002713    5.59   -118.73   
    38. D(O   2,C   1,C   0,H   7)    -59.83  0.000325   -0.67    -60.50   
    39. D(N   5,C   4,C   0,H   6)     55.90 -0.001388    3.32     59.22   
    40. D(N   5,C   4,C   0,C   1)    -67.03 -0.003317    3.85    -63.18   
    41. D(H   8,C   4,C   0,H   6)    -63.39 -0.000844    2.57    -60.82   
    42. D(H   8,C   4,C   0,C   1)    173.68 -0.002773    3.11    176.79   
    43. D(H   8,C   4,C   0,H   7)     53.88 -0.000199    2.20     56.08   
    44. D(N   5,C   4,C   0,H   7)    173.17 -0.000744    2.94    176.12   
    45. D(H  10,N   5,C   4,H   9)    178.57 -0.001908    0.51    179.09   
    46. D(H  10,N   5,C   4,H   8)     60.89 -0.002452    0.69     61.58   
    47. D(H  11,N   5,C   4,C   0)     63.52  0.003897   -1.71     61.81   
    48. D(H  10,N   5,C   4,C   0)    -58.19  0.001796   -0.82    -59.01   
    49. D(H  11,N   5,C   4,H   9)    -59.72  0.000193   -0.37    -60.09   
    50. D(H  11,N   5,C   4,H   8)   -177.40 -0.000351   -0.19   -177.60   
    ----------------------------------------------------------------------------

Geometry step timings:
Preparation and reading OPT file:      0.000 s (10.780 %)
Internal coordinates            :      0.000 s ( 2.011 %)
B/P matrices and projection     :      0.000 s (25.020 %)
Hessian update/contruction      :      0.000 s ( 8.528 %)
Making the step                 :      0.000 s (20.193 %)
Converting the step to Cartesian:      0.000 s ( 3.862 %)
Storing new data                :      0.000 s ( 1.529 %)
Checking convergence            :      0.000 s ( 0.161 %)
Final printing                  :      0.000 s (27.273 %)
Total time                      :      0.001 s
--------------------------------------------------------------------------
WARNING: There was an error initializing an OpenFabrics device.

  Local host:   ga00
  Local device: mlx5_0
--------------------------------------------------------------------------
[ga00:431456] 5 more processes have sent help message help-mpi-btl-openib.txt / error in device init
[ga00:431456] Set MCA parameter "orte_base_help_aggregate" to 0 to see all help / error messages

Time for energy+gradient        :     17.245 s
Time for complete geometry iter :     17.685 s

         *************************************************************
         *                GEOMETRY OPTIMIZATION CYCLE   2            *
         *************************************************************
---------------------------------
CARTESIAN COORDINATES (ANGSTROEM)
---------------------------------
  C     -0.527662    0.606144   -2.552012
  C     -1.017393   -0.113070   -1.311931
  O     -2.055496    0.392719   -0.720435
  O     -0.372014   -1.070968   -0.859620
  C      0.710915   -0.025296   -3.176364
  N      1.866507    0.032998   -2.252799
  H     -0.322369    1.652503   -2.300977
  H     -1.330342    0.601695   -3.293860
  H      0.970210    0.508783   -4.091446
  H      0.521622   -1.066830   -3.431840
  H      2.084045    0.998977   -2.002172
  H      1.669343   -0.494749   -1.397161
  H      2.693535   -0.374604   -2.691983

----------------------------
CARTESIAN COORDINATES (A.U.)
----------------------------
  NO LB      ZA    FRAG     MASS         X           Y           Z
   0 C     6.0000    0    12.011   -0.997137    1.145447   -4.822604
   1 C     6.0000    0    12.011   -1.922594   -0.213671   -2.479190
   2 O     8.0000    0    15.999   -3.884324    0.742132   -1.361426
   3 O     8.0000    0    15.999   -0.703005   -2.023837   -1.624447
   4 C     6.0000    0    12.011    1.343435   -0.047803   -6.002458
   5 N     7.0000    0    14.007    3.527186    0.062356   -4.257172
   6 H     1.0000    0     1.008   -0.609189    3.122777   -4.348216
   7 H     1.0000    0     1.008   -2.513982    1.137038   -6.224493
   8 H     1.0000    0     1.008    1.833431    0.961460   -7.731712
   9 H     1.0000    0     1.008    0.985722   -2.016016   -6.485238
  10 H     1.0000    0     1.008    3.938274    1.887793   -3.783557
  11 H     1.0000    0     1.008    3.154600   -0.934941   -2.640251
  12 H     1.0000    0     1.008    5.090043   -0.707900   -5.087111

--------------------------------
INTERNAL COORDINATES (ANGSTROEM)
--------------------------------
 C      0   0   0     0.000000000000     0.00000000     0.00000000
 C      1   0   0     1.514895173980     0.00000000     0.00000000
 O      2   1   0     1.297438570123   116.53677088     0.00000000
 O      2   1   3     1.240430551089   119.79644597   185.25713240
 C      1   2   3     1.524009852205   113.66457015   178.76274381
 N      5   1   2     1.480460195909   111.25284802   296.81899175
 H      1   2   3     1.095458766383   109.05506150    56.00948469
 H      1   2   3     1.093001583245   108.43675741   299.49517082
 H      5   1   2     1.090801598096   109.51213319   176.79235486
 H      5   1   2     1.088986599469   110.55548487    57.62903536
 H      6   5   1     1.021397605916   110.88899400   301.00518953
 H      6   5   1     1.024454470941   110.51957775    61.82011442
 H      6   5   1     1.021272915411   110.37191099   181.25345251

---------------------------
INTERNAL COORDINATES (A.U.)
---------------------------
 C      0   0   0     0.000000000000     0.00000000     0.00000000
 C      1   0   0     2.862737000421     0.00000000     0.00000000
 O      2   1   0     2.451803573118   116.53677088     0.00000000
 O      2   1   3     2.344074029707   119.79644597   185.25713240
 C      1   2   3     2.879961246066   113.66457015   178.76274381
 N      5   1   2     2.797664322440   111.25284802   296.81899175
 H      1   2   3     2.070117059466   109.05506150    56.00948469
 H      1   2   3     2.065473656275   108.43675741   299.49517082
 H      5   1   2     2.061316286846   109.51213319   176.79235486
 H      5   1   2     2.057886436506   110.55548487    57.62903536
 H      6   5   1     1.930161749024   110.88899400   301.00518953
[...]
      py      :     0.008228

 12 H s       :     0.653641  s :     0.653641
      pz      :     0.007875  p :     0.033763
      px      :     0.014290
      py      :     0.011598



                     *******************************
                     * LOEWDIN POPULATION ANALYSIS *
                     *******************************

----------------------
LOEWDIN ATOMIC CHARGES
----------------------
   0 C :   -0.246942
   1 C :   -0.648243
   2 O :   -0.094512
   3 O :   -0.119059
   4 C :   -0.243102
   5 N :    0.152086
   6 H :    0.153357
   7 H :    0.149845
   8 H :    0.140948
   9 H :    0.145835
  10 H :    0.210417
  11 H :    0.190510
  12 H :    0.208860

-------------------------------
LOEWDIN REDUCED ORBITAL CHARGES
-------------------------------
  0 C s       :     2.792780  s :     2.792780
      pz      :     1.022517  p :     3.069043
      px      :     1.015891
      py      :     1.030636
      dz2     :     0.061588  d :     0.349306
      dxz     :     0.106373
      dyz     :     0.058224
      dx2y2   :     0.080524
      dxy     :     0.042597
      f0      :     0.004923  f :     0.035812
      f+1     :     0.005450
      f-1     :     0.004986
      f+2     :     0.005814
      f-2     :     0.005076
      f+3     :     0.005136
      f-3     :     0.004428

  1 C s       :     2.778695  s :     2.778695
      pz      :     0.929410  p :     2.711054
      px      :     0.973404
      py      :     0.808239
      dz2     :     0.179279  d :     1.001323
      dxz     :     0.277064
      dyz     :     0.092421
      dx2y2   :     0.213974
      dxy     :     0.238586
      f0      :     0.015440  f :     0.157172
      f+1     :     0.038514
      f-1     :     0.009737
      f+2     :     0.026520
      f-2     :     0.019616
      f+3     :     0.021073
      f-3     :     0.026271

  2 O s       :     3.424378  s :     3.424378
      pz      :     1.605737  p :     4.604262
      px      :     1.502575
      py      :     1.495950
      dz2     :     0.007723  d :     0.060457
      dxz     :     0.018526
      dyz     :     0.000941
      dx2y2   :     0.020370
      dxy     :     0.012896
      f0      :     0.000592  f :     0.005415
      f+1     :     0.001056
      f-1     :     0.000052
      f+2     :     0.001132
      f-2     :     0.000171
      f+3     :     0.001364
      f-3     :     0.001047

  3 O s       :     3.430055  s :     3.430055
      pz      :     1.580813  p :     4.623545
      px      :     1.524350
      py      :     1.518382
      dz2     :     0.009052  d :     0.060464
      dxz     :     0.016970
      dyz     :     0.009633
      dx2y2   :     0.012213
      dxy     :     0.012597
      f0      :     0.000507  f :     0.004995
      f+1     :     0.000849
      f-1     :     0.000367
      f+2     :     0.000759
      f-2     :     0.001089
      f+3     :     0.000635
      f-3     :     0.000789

  4 C s       :     2.800348  s :     2.800348
      pz      :     0.968923  p :     2.967435
      px      :     0.927724
      py      :     1.070788
      dz2     :     0.073009  d :     0.425272
      dxz     :     0.113774
      dyz     :     0.071632
      dx2y2   :     0.102778
      dxy     :     0.064079
      f0      :     0.005391  f :     0.050048
      f+1     :     0.012781
      f-1     :     0.003674
      f+2     :     0.007773
      f-2     :     0.007653
      f+3     :     0.006603
      f-3     :     0.006172

  5 N s       :     2.989284  s :     2.989284
      pz      :     1.271560  p :     3.698787
      px      :     1.202998
      py      :     1.224229
      dz2     :     0.034847  d :     0.150007
      dxz     :     0.033554
      dyz     :     0.019965
      dx2y2   :     0.019594
      dxy     :     0.042047
      f0      :     0.001095  f :     0.009836
      f+1     :     0.001987
      f-1     :     0.001175
      f+2     :     0.001183
      f-2     :     0.001866
      f+3     :     0.001421
      f-3     :     0.001110

  6 H s       :     0.786237  s :     0.786237
      pz      :     0.014545  p :     0.060407
      px      :     0.013546
      py      :     0.032316

  7 H s       :     0.790107  s :     0.790107
      pz      :     0.021293  p :     0.060048
      px      :     0.025452
      py      :     0.013303

  8 H s       :     0.797994  s :     0.797994
      pz      :     0.027814  p :     0.061058
      px      :     0.012466
      py      :     0.020778

  9 H s       :     0.793560  s :     0.793560
      pz      :     0.013719  p :     0.060604
      px      :     0.011923
      py      :     0.034962

 10 H s       :     0.687081  s :     0.687081
      pz      :     0.022134  p :     0.102502
      px      :     0.024742
      py      :     0.055626

 11 H s       :     0.655620  s :     0.655620
      pz      :     0.073095  p :     0.153870
      px      :     0.056412
      py      :     0.024363

 12 H s       :     0.688000  s :     0.688000
      pz      :     0.025667  p :     0.103140
      px      :     0.042028
      py      :     0.035444



                      *****************************
                      * MAYER POPULATION ANALYSIS *
                      *****************************

  NA   - Mulliken gross atomic population
  ZA   - Total nuclear charge
  QA   - Mulliken gross atomic charge
  VA   - Mayer's total valence
  BVA  - Mayer's bonded valence
  FA   - Mayer's free valence

  ATOM       NA         ZA         QA         VA         BVA        FA
  0 C      6.2496     6.0000    -0.2496     3.7118     3.7118     0.0000
  1 C      5.7300     6.0000     0.2700     4.4890     4.4890     0.0000
  2 O      8.5294     8.0000    -0.5294     1.9120     1.9120    -0.0000
  3 O      8.5683     8.0000    -0.5683     1.7974     1.7974    -0.0000
  4 C      6.1238     6.0000    -0.1238     3.8154     3.8154     0.0000
  5 N      7.2820     7.0000    -0.2820     3.4083     3.4083     0.0000
  6 H      0.8733     1.0000     0.1267     0.9745     0.9745     0.0000
  7 H      0.8814     1.0000     0.1186     0.9947     0.9947     0.0000
  8 H      0.8460     1.0000     0.1540     0.9630     0.9630     0.0000
  9 H      0.8466     1.0000     0.1534     0.9627     0.9627    -0.0000
 10 H      0.6926     1.0000     0.3074     0.9070     0.9070     0.0000
 11 H      0.6897     1.0000     0.3103     0.9711     0.9711     0.0000
 12 H      0.6874     1.0000     0.3126     0.9014     0.9014     0.0000

  Mayer bond orders larger than 0.100000
B(  0-C ,  1-C ) :   0.9536 B(  0-C ,  4-C ) :   0.9546 B(  0-C ,  6-H ) :   0.9395 
B(  0-C ,  7-H ) :   0.9569 B(  1-C ,  2-O ) :   1.8902 B(  1-C ,  3-O ) :   1.6088 
B(  3-O , 11-H ) :   0.1965 B(  4-C ,  5-N ) :   0.8984 B(  4-C ,  8-H ) :   0.9622 
B(  4-C ,  9-H ) :   0.9638 B(  5-N , 10-H ) :   0.8866 B(  5-N , 11-H ) :   0.7589 
B(  5-N , 12-H ) :   0.8848 

-------
TIMINGS
-------

Total SCF time: 0 days 0 hours 0 min 4 sec 

Total time                  ....       4.546 sec
Sum of individual times     ....       4.529 sec  ( 99.6%)

SCF preparation             ....       0.323 sec  (  7.1%)
Fock matrix formation       ....       4.100 sec  ( 90.2%)
  Startup                   ....       0.003 sec  (  0.1% of F)
  Split-RI-J                ....       0.192 sec  (  4.7% of F)
  Chain of spheres X        ....       3.182 sec  ( 77.6% of F)
  XC integration            ....       0.456 sec  ( 11.1% of F)
    XC Preparation          ....       0.000 sec  (  0.0% of XC)
    Basis function eval.    ....       0.129 sec  ( 28.3% of XC)
    Density eval.           ....       0.102 sec  ( 22.3% of XC)
    XC-Functional eval.     ....       0.023 sec  (  5.0% of XC)
    XC-Potential eval.      ....       0.168 sec  ( 36.9% of XC)
  CPCM terms                ....       0.257 sec  (  6.3% of F)
Diagonalization             ....       0.000 sec  (  0.0%)
Density matrix formation    ....       0.006 sec  (  0.1%)
Total Energy calculation    ....       0.006 sec  (  0.1%)
Population analysis         ....       0.040 sec  (  0.9%)
Orbital Transformation      ....       0.010 sec  (  0.2%)
Orbital Orthonormalization  ....       0.000 sec  (  0.0%)
DIIS solution               ....       0.013 sec  (  0.3%)
SOSCF solution              ....       0.031 sec  (  0.7%)
Finished LeanSCF after   4.6 sec

Maximum memory used throughout the entire LEANSCF-calculation: 24.1 MB
[ga00:441053] 5 more processes have sent help message help-mpi-btl-openib.txt / error in device init
[ga00:441053] Set MCA parameter "orte_base_help_aggregate" to 0 to see all help / error messages


-------------------------------------------------------------------------------
                          DFT DISPERSION CORRECTION                            
                                                                               
                                DFTD4 V3.4.0                                   
-------------------------------------------------------------------------------
The B3LYP functional is recognized
Active option DFTDOPT                   ...         5   

-------------------------   ----------------
Dispersion correction           -0.014546279
-------------------------   ----------------


-------------------------   --------------------
FINAL SINGLE POINT ENERGY      -323.747205911223
-------------------------   --------------------

                                *** OPTIMIZATION RUN DONE ***

--------------------------------------------------------------------------
WARNING: There was an error initializing an OpenFabrics device.

  Local host:   ga00
  Local device: mlx5_0
--------------------------------------------------------------------------


           ************************************************************
           *        Program running with 6 parallel MPI-processes     *
           *              working on a common directory               *
           ************************************************************

------------------------------------------------------------------------------
                              ORCA PROPERTY CALCULATIONS
------------------------------------------------------------------------------

GBWName                                 ... 01_Alanine_zwitterion.gbw
Number of atoms                         ...     13
Number of basis functions               ...    228
Max core memory                         ...   3000 MB

Electric properties:
Dipole moment                           ... YES
Quadrupole moment                       ...  NO
Static polarizability (Dipole/Dipole)   ...  NO
Static polarizability (Dipole/Quad.)    ...  NO
Static polarizability (Quad./Quad.)     ...  NO
Static polarizability (Velocity)        ...  NO

Atomic electric properties:
Dipole moment                           ...  NO
Quadrupole moment                       ...  NO
Static polarizability                   ...  NO

Choice of electric origin               ... Center of mass
Position of electric origin             ...    -0.262711    -0.063502    -3.397388

General magnetic properties:
Magnetizability                         ...  NO

EPR properties:
g-Tensor (aka g-matrix)                 ...  NO
Zero-Field splitting spin-orbit         ...  NO
Zero-field splitting spin-spin          ...  NO
Hyperfine couplings                     ...  NO (   0 nuclei)
Quadrupole couplings                    ...  NO (   0 nuclei)
Contact density                         ...  NO (   0 nuclei)

NMR properties:
Chemical shifts                         ...  NO (   0 nuclei)
Spin-rotation constants                 ...  NO (   0 nuclei)
Spin-spin couplings                     ...  NO (   0 nuclei,    0 pairs)

Choice of magnetic origin               ... GIAO
Position of magnetic origin             ...     0.000000     0.000000     0.000000

Properties with geometric perturbations:
SCF Hessian                             ...  NO
IR spectrum                             ...  NO
VCD spectrum                            ...  NO
X-ray spectroscopy properties:
SCF XES/XAS/RIXS spectra                ...  NO


-------------
DIPOLE MOMENT
-------------

Method             : SCF
Type of density    : Electron Density
Multiplicity       :   1
Irrep              :   0
Energy             :  -323.7326596327081347 Eh
Relativity type    : 
Basis              : AO
                                X                 Y                 Z
Electronic contribution:     -1.821726475      -0.990253030       3.036438030
Nuclear contribution   :      6.532576313       1.908143505      -6.220112996
                        -----------------------------------------
Total Dipole Moment    :      4.710849839       0.917890474      -3.183674967
                        -----------------------------------------
Magnitude (a.u.)       :      5.759376305
Magnitude (Debye)      :     14.639171173



--------------------
Rotational spectrum 
--------------------
 
Rotational constants in cm-1:             0.241977             0.085215             0.067073 
Rotational constants in MHz :          7254.298603          2554.682310          2010.802747 

Dipole components along the rotational axes: 
x,y,z [a.u.] :     5.706981    -0.648268     0.424887 
x,y,z [Debye]:    14.505993    -1.647767     1.079977 

 

Dipole moment calculation done in   0.0 sec 

Maximum memory used throughout the entire PROP-calculation: 13.2 MB
[ga00:441170] 5 more processes have sent help message help-mpi-btl-openib.txt / error in device init
[ga00:441170] Set MCA parameter "orte_base_help_aggregate" to 0 to see all help / error messages
--------------------------------------------------------------------------
WARNING: There was an error initializing an OpenFabrics device.

  Local host:   ga00
  Local device: mlx5_0
--------------------------------------------------------------------------
[ga00:441204] 5 more processes have sent help message help-mpi-btl-openib.txt / error in device init
[ga00:441204] Set MCA parameter "orte_base_help_aggregate" to 0 to see all help / error messages

--------------------------------
SUGGESTED CITATIONS FOR THIS RUN
--------------------------------

Below you find a list of papers that are relevant to this ORCA run
We neither can nor want to force you to cite these papers, but we appreciate if you do
You receive ORCA, which is the product of decades of hard work by many enthusiastic individuals, for free
The only thing we kindly ask in return is that you cite our papers,
We deeply appreciate it, if you show your appreciation for ORCA by not just citing the generic ORCA reference.

Please note that relegating all ORCA citations to the supporting information does *not* help us.
SI sections are not indexed - citations you put there will not count into any citation statistics
But we need these citations in order to attract the funding resources that allow us to do what we are doing

Therefore, if you are a happy ORCA user, please consider citing a few of the papers listed below in the main body of your paper

In addition to the list printed below, the program has created the file 01_Alanine_zwitterion.bibtex that contains the list in bibtex format
You can import this file easily into all common literature databanks and citation aid programs


List of essential papers. We consider these as the minimum necessary citations

  1. Neese,F.
     Software update: the ORCA program system, version 5.0
     WIRES Comput. Molec. Sci., 2022 12(1)e1606
     doi.org/10.1002/wcms.1606

List of papers to cite with high priority. The work reported in these papers was absolutely
necessary for this run to complete.
Our perspective: the developers of density functionals and basis sets usually get cited in chemistry papers
Good! But without the algorithms to do something with them, the functionals or basis sets would not do anything.
Hence, in our opinion, the algorithm design and method developments papers are equally worthy of getting cited

  1. Neese,F.
     An improvement of the resolution of the identity approximation for the formation of the Coulomb matrix
     J. Comp. Chem., 2003 24(14)1740-1747
     doi.org/10.1002/jcc.10318
  2. Neese,F.; Wennmohs,F.; Hansen,A.; Becker,U.
     Efficient, approximate and parallel Hartree-Fock and hybrid DFT calculations. A 'chain-of-spheres' algorithm for the Hartree-Fock exchange
     Chem. Phys., 2009 356(1-3)98-109
     doi.org/10.1016/j.chemphys.2008.10.036
  3. Garcia-Rates,M.; Neese,F.
     Effect of the Solute Cavity on the Solvation Energy and its Derivatives within the Framework of the Gaussian Charge Scheme
     J. Comput. Chem., 2020 41 922-939
     doi.org/10.1002/jcc.26139
  4. Helmich-Paris,B.; de Souza,B.; Neese,F.; Izsák,R.
     An improved chain of spheres for exchange algorithm
     J. Chem. Phys., 2021 155 104109
     doi.org/doi: 10.1063/5.0058766.
  5. Neese,F.
     The SHARK Integral Generation and Digestion System
     J. Comp. Chem., 2022  1-16
     doi.org/10.1002/jcc.26942
  6. Caldeweyher,E.; Bannwarth,C.; Grimme,S.
     Extension of the D3 dispersion coefficient model
     J. Chem. Phys., 2017 147 034112
     doi.org/10.1063/1.4993215
  7. Caldeweyher,E.; Ehlert,S.; Hansen,A.; Neugebauer,H.; Spicher,S.; Bannwarth,C.; Grimme,S.
     A generally applicable atomic-charge dependent London dispersion correction
     J. Chem. Phys., 2019 150 154122
     doi.org/10.1063/1.5090222
  8. Caldeweyher,E.; Mewes,J.; Ehlert,S.; Grimme,S.
     Extension and evaluation of the D4 London-dispersion model for periodic systems
     Phys. Chem. Chem. Phys., 2020 22(16)8499-8512
     doi.org/10.1039/D0CP00502A
  9. Wittmann,L.; Gordiy,I.; Friede,M.; Helmich-Paris,B.; Grimme,S.; Hansen,A.; Bursch,M.
     Extension of the D3 and D4 London Dispersion Corrections to the full Actinides Series
     Phys. Chem. Chem. Phys., 2024 26(32)21379-21394
     doi.org/https://doi.org/10.1039/D4CP01514B 

List of suggested additional citations. These are papers that are important in the 'surrounding' of 
of this run, or papers that preceded the highly important papers. If you like your results we are grateful for a citation.

  1. Izsak,R.; Neese,F.
     An overlap fitted chain of spheres exchange method
     J. Chem. Phys., 2011 135 144105
     doi.org/10.1063/1.3646921
  2. Izsak,R.; Hansen,A.; Neese,F.
     The resolution of identity and chain of spheres approximations for the LPNO-CCSD singles Fock term
     Molec. Phys., 2012 110 2413-2417
     doi.org/10.1080/00268976.2012.687466
  3. Neese,F.
     The ORCA program system
     WIRES Comput. Molec. Sci., 2012 2(1)73-78
     doi.org/10.1002/wcms.81
  4. Izsak,R.; Neese,F.; Klopper,W.
     Robust fitting techniques in the chain of spheres approximation to the Fock exchange: The role of the complementary space
     J. Chem. Phys., 2013 139 
     doi.org/10.1063/1.4819264
  5. Neese,F.
     Software update: the ORCA program system, version 4.0
     WIRES Comput. Molec. Sci., 2018 8(1)1-6
     doi.org/10.1002/wcms.1327
  6. Neese,F.; Wennmohs,F.; Becker,U.; Riplinger,C.
     The ORCA quantum chemistry program package
     J. Chem. Phys., 2020 152 Art. No. L224108
     doi.org/10.1063/5.0004608

List of optional additional citations

  1. Neese,F.
     Approximate second-order SCF convergence for spin unrestricted wavefunctions
     Chem. Phys. Lett., 2000 325(1-3)93-98
     doi.org/10.1016/s0009-2614(00)00662-x

Timings for individual modules:

Sum of individual times          ...      249.657 sec (=   4.161 min)
Startup calculation              ...       15.442 sec (=   0.257 min)   6.2 %
SCF iterations                   ...      139.690 sec (=   2.328 min)  56.0 %
Property calculations            ...        0.437 sec (=   0.007 min)   0.2 %
SCF Gradient evaluation          ...       94.033 sec (=   1.567 min)  37.7 %
Geometry relaxation              ...        0.055 sec (=   0.001 min)   0.0 %
                             ****ORCA TERMINATED NORMALLY****
TOTAL RUN TIME: 0 days 0 hours 4 minutes 16 seconds 596 msec
