[Molden Format]
[Title]
 Molden file created by orca_2mkl for BaseName=input

[Atoms] AU
N    1   7         -1.1643102330        -0.1258995163         3.3310560858 
C    2   6          0.7227724215         1.3909133324         1.9623460202 
C    3   6         -0.4903278280         3.3099677429         0.1931832732 
C    4   6         -1.1701116145         2.1926673597        -2.4004032773 
C    5   6          1.2360580133         1.6112163838        -3.8362054555 
O    6   8          1.9498908104         3.0264044821        -5.6123920317 
O    7   8          2.5195199007        -0.2590107287        -3.1165603361 
H    8   1         -0.2254115904        -1.4662175077         4.3600399890 
H    9   1         -2.1599731431         1.0590513495         4.5472358692 
H   10   1          1.8745910259         2.3841247711         3.3407109559 
H   11   1          1.9408427063         0.1455650138         0.8737014736 
H   12   1          0.7995495278         4.8882852946        -0.1048763370 
H   13   1         -2.2061077364         4.0706872093         1.0323854389 
H   14   1         -2.2310487928         0.4534566653        -2.1630620047 
H   15   1         -2.2852409028         3.5424024535        -3.4710599411 
H   16   1         -2.4262625754        -1.0299123458         2.1479055939 
[GTO]
  1 0 
s   6 1.0  
    19730.8006470000         0.0005862639 
     2957.8958745000         0.0045428821 
      673.2213359500         0.0235584136 
      190.6824949400         0.0947091933 
       62.2954418980         0.2971978492 
       22.6541611820         0.6691624689 
s   2 1.0  
        8.9791477428         0.6459668363 
        3.6863002370         0.3870057440 
s   1 1.0  
        0.8466007680         1.0000000000 
s   1 1.0  
        0.3364713377         0.9999999998 
s   1 1.0  
        0.1364765367         1.0000000003 
p   4 1.0  
       49.2003805100         0.0114488252 
       11.3467905370         0.0784223379 
        3.4273972411         0.3081809474 
        1.1785525134         0.7202719637 
p   1 1.0  
        0.4164220497         0.9999999999 
p   1 1.0  
        0.1426082601         0.9999999997 
d   1 1.0  
        1.6540000000         1.0000000000 
d   1 1.0  
        0.4690000000         1.0000000000 
f   1 1.0  
        1.0930000000         1.0000000000 

  2 0 
s   6 1.0  
    13575.3496820000         0.0006064549 
     2035.2333680000         0.0046979088 
      463.2256235900         0.0243324776 
      131.2001959800         0.0973999683 
       42.8530158910         0.3019558425 
       15.5841857660         0.6623360915 
s   2 1.0  
        6.2067138508         0.6559530853 
        2.5764896527         0.3758563329 
s   1 1.0  
        0.5769633942         1.0000000000 
s   1 1.0  
        0.2297283136         1.0000000000 
s   1 1.0  
        0.0951644400         1.0000000003 
p   4 1.0  
       34.6972322440         0.0113272200 
        7.9582622826         0.0761696592 
        2.3780826883         0.3019225220 
        0.8143320818         0.7278502735 
p   1 1.0  
        0.2888754725         0.9999999999 
p   1 1.0  
        0.1005682367         0.9999999995 
d   1 1.0  
        1.0970000000         1.0000000000 
d   1 1.0  
        0.3180000000         1.0000000000 
f   1 1.0  
        0.7610000000         1.0000000000 

  3 0 
s   6 1.0  
    13575.3496820000         0.0006064549 
     2035.2333680000         0.0046979088 
      463.2256235900         0.0243324776 
      131.2001959800         0.0973999683 
       42.8530158910         0.3019558425 
       15.5841857660         0.6623360915 
s   2 1.0  
        6.2067138508         0.6559530853 
        2.5764896527         0.3758563329 
s   1 1.0  
        0.5769633942         1.0000000000 
s   1 1.0  
        0.2297283136         1.0000000000 
s   1 1.0  
        0.0951644400         1.0000000003 
p   4 1.0  
       34.6972322440         0.0113272200 
        7.9582622826         0.0761696592 
        2.3780826883         0.3019225220 
        0.8143320818         0.7278502735 
p   1 1.0  
        0.2888754725         0.9999999999 
p   1 1.0  
        0.1005682367         0.9999999995 
d   1 1.0  
        1.0970000000         1.0000000000 
d   1 1.0  
        0.3180000000         1.0000000000 
f   1 1.0  
        0.7610000000         1.0000000000 

  4 0 
s   6 1.0  
    13575.3496820000         0.0006064549 
     2035.2333680000         0.0046979088 
      463.2256235900         0.0243324776 
      131.2001959800         0.0973999683 
       42.8530158910         0.3019558425 
       15.5841857660         0.6623360915 
s   2 1.0  
        6.2067138508         0.6559530853 
        2.5764896527         0.3758563329 
s   1 1.0  
        0.5769633942         1.0000000000 
s   1 1.0  
        0.2297283136         1.0000000000 
s   1 1.0  
        0.0951644400         1.0000000003 
p   4 1.0  
       34.6972322440         0.0113272200 
        7.9582622826         0.0761696592 
        2.3780826883         0.3019225220 
        0.8143320818         0.7278502735 
p   1 1.0  
        0.2888754725         0.9999999999 
p   1 1.0  
        0.1005682367         0.9999999995 
d   1 1.0  
        1.0970000000         1.0000000000 
d   1 1.0  
        0.3180000000         1.0000000000 
f   1 1.0  
        0.7610000000         1.0000000000 

  5 0 
s   6 1.0  
    13575.3496820000         0.0006064549 
     2035.2333680000         0.0046979088 
      463.2256235900         0.0243324776 
      131.2001959800         0.0973999683 
       42.8530158910         0.3019558425 
       15.5841857660         0.6623360915 
s   2 1.0  
        6.2067138508         0.6559530853 
        2.5764896527         0.3758563329 
s   1 1.0  
        0.5769633942         1.0000000000 
s   1 1.0  
        0.2297283136         1.0000000000 
s   1 1.0  
        0.0951644400         1.0000000003 
p   4 1.0  
       34.6972322440         0.0113272200 
        7.9582622826         0.0761696592 
        2.3780826883         0.3019225220 
        0.8143320818         0.7278502735 
p   1 1.0  
        0.2888754725         0.9999999999 
p   1 1.0  
        0.1005682367         0.9999999995 
d   1 1.0  
        1.0970000000         1.0000000000 
d   1 1.0  
        0.3180000000         1.0000000000 
f   1 1.0  
        0.7610000000         1.0000000000 

  6 0 
s   6 1.0  
    27032.3826310000         0.0005722733 
     4052.3871392000         0.0044353233 
      922.3272271000         0.0230201076 
      261.2407098900         0.0928224906 
       85.3546413510         0.2937850002 
       31.0350352450         0.6740160450 
s   2 1.0  
       12.2608607280         0.6383993703 
        4.9987076005         0.3953458713 
s   1 1.0  
        1.1703108158         1.0000000000 
s   1 1.0  
        0.4647474099         1.0000000000 
s   1 1.0  
        0.1850453636         0.9999999999 
p   4 1.0  
       63.2749548010         0.0120183321 
       14.6270493790         0.0830054217 
        4.4501223456         0.3199174393 
        1.5275799647         0.7071554292 
p   1 1.0  
        0.5293511794         1.0000000000 
p   1 1.0  
        0.1747842127         1.0000000000 
d   1 1.0  
        2.3140000000         1.0000000000 
d   1 1.0  
        0.6450000000         1.0000000000 
f   1 1.0  
        1.4280000000         1.0000000000 

  7 0 
s   6 1.0  
    27032.3826310000         0.0005722733 
     4052.3871392000         0.0044353233 
      922.3272271000         0.0230201076 
      261.2407098900         0.0928224906 
       85.3546413510         0.2937850002 
       31.0350352450         0.6740160450 
s   2 1.0  
       12.2608607280         0.6383993703 
        4.9987076005         0.3953458713 
s   1 1.0  
        1.1703108158         1.0000000000 
s   1 1.0  
        0.4647474099         1.0000000000 
s   1 1.0  
        0.1850453636         0.9999999999 
p   4 1.0  
       63.2749548010         0.0120183321 
       14.6270493790         0.0830054217 
        4.4501223456         0.3199174393 
        1.5275799647         0.7071554292 
p   1 1.0  
        0.5293511794         1.0000000000 
p   1 1.0  
        0.1747842127         1.0000000000 
d   1 1.0  
        2.3140000000         1.0000000000 
d   1 1.0  
        0.6450000000         1.0000000000 
f   1 1.0  
        1.4280000000         1.0000000000 

  8 0 
s   3 1.0  
       34.0613410000         0.0254393072 
        5.1235746000         0.1900859489 
        1.1646626000         0.8524411301 
s   1 1.0  
        0.3272304100         1.0000000002 
s   1 1.0  
        0.1030724100         1.0000000001 
p   1 1.0  
        0.8000000000         1.0000000000 

  9 0 
s   3 1.0  
       34.0613410000         0.0254393072 
        5.1235746000         0.1900859489 
        1.1646626000         0.8524411301 
s   1 1.0  
        0.3272304100         1.0000000002 
s   1 1.0  
        0.1030724100         1.0000000001 
p   1 1.0  
        0.8000000000         1.0000000000 

 10 0 
s   3 1.0  
       34.0613410000         0.0254393072 
        5.1235746000         0.1900859489 
        1.1646626000         0.8524411301 
s   1 1.0  
        0.3272304100         1.0000000002 
s   1 1.0  
        0.1030724100         1.0000000001 
p   1 1.0  
        0.8000000000         1.0000000000 

 11 0 
s   3 1.0  
       34.0613410000         0.0254393072 
        5.1235746000         0.1900859489 
        1.1646626000         0.8524411301 
s   1 1.0  
        0.3272304100         1.0000000002 
s   1 1.0  
        0.1030724100         1.0000000001 
p   1 1.0  
        0.8000000000         1.0000000000 

 12 0 
s   3 1.0  
       34.0613410000         0.0254393072 
        5.1235746000         0.1900859489 
        1.1646626000         0.8524411301 
s   1 1.0  
        0.3272304100         1.0000000002 
s   1 1.0  
        0.1030724100         1.0000000001 
p   1 1.0  
        0.8000000000         1.0000000000 

 13 0 
s   3 1.0  
       34.0613410000         0.0254393072 
        5.1235746000         0.1900859489 
        1.1646626000         0.8524411301 
s   1 1.0  
        0.3272304100         1.0000000002 
s   1 1.0  
        0.1030724100         1.0000000001 
p   1 1.0  
        0.8000000000         1.0000000000 

 14 0 
s   3 1.0  
       34.0613410000         0.0254393072 
        5.1235746000         0.1900859489 
        1.1646626000         0.8524411301 
s   1 1.0  
        0.3272304100         1.0000000002 
s   1 1.0  
        0.1030724100         1.0000000001 
p   1 1.0  
        0.8000000000         1.0000000000 

 15 0 
s   3 1.0  
       34.0613410000         0.0254393072 
        5.1235746000         0.1900859489 
        1.1646626000         0.8524411301 
s   1 1.0  
        0.3272304100         1.0000000002 
s   1 1.0  
        0.1030724100         1.0000000001 
p   1 1.0  
        0.8000000000         1.0000000000 

 16 0 
s   3 1.0  
       34.0613410000         0.0254393072 
        5.1235746000         0.1900859489 
        1.1646626000         0.8524411301 
s   1 1.0  
        0.3272304100         1.0000000002 
s   1 1.0  
        0.1030724100         1.0000000001 
p   1 1.0  
        0.8000000000         1.0000000000 

[5D]
[9G]
[MO]
 Sym=     1a
 Ene= -1.90484214071577E+01
 Spin= Alpha
 Occup= 2.000000
  1       0.000001312619
  2      -0.000007848986
  3       0.000100362299
  4      -0.000661572211
  5       0.002150226897
  6       0.000022724069
  7       0.000012893169
  8       0.000014974679
  9      -0.000270416935
 10      -0.000242245666
 11       0.000035683982
 12       0.000078317310
 13       0.000452000178
 14      -0.000557418688
 15      -0.000008971990
 16       0.000002829060
 17       0.000019258496
 18       0.000009760759
 19       0.000006212762
 20       0.000082363653
 21       0.000085752590
 22      -0.000028140772
 23      -0.000056441343
 24      -0.000083073767
 25      -0.000008677068
 26      -0.000001242602
 27      -0.000000313726
 28      -0.000002806757
 29      -0.000011722757
 30      -0.000003743101
 31      -0.000009189054
 32      -0.000004386398
 33       0.000022075831
 34      -0.000253389604
 35       0.000779933472
 36       0.001429293167
 37       0.000000829202
 38      -0.000025162057
 39       0.000044252609
 40      -0.000285315404
 41      -0.000007301197
 42      -0.000214723483
 43       0.000880160235
 44       0.001298334035
 45      -0.000748348832
 46      -0.000016308010
 47       0.000047636868
 48       0.000028447865
 49       0.000021496559
 50      -0.000006947269
 51       0.000118024090
 52      -0.000267671703
 53      -0.000314271203
 54      -0.000027015279
 55       0.000137549666
 56      -0.000039774255
 57      -0.000026678536
 58      -0.000007804411
 59      -0.000006463621
 60       0.000017129732
 61       0.000016259785
 62      -0.000015344282
 63      -0.000001356865
 64       0.000007015380
 65      -0.000155613576
 66       0.001931027929
 67      -0.010487285107
 68       0.000045298378
 69      -0.000010919278
 70      -0.000049370309
 71      -0.000511032198
 72      -0.000455656384
 73      -0.000521561765
 74      -0.000863205452
 75       0.003222922255
 76       0.002125949895
 77       0.000049133474
 78      -0.000062813632
 79       0.000031790778
 80      -0.000034172079
 81      -0.000012778922
 82       0.000288147157
 83       0.000305415223
 84       0.000048363929
 85       0.000206976063
 86      -0.000109480444
 87      -0.000020065887
 88       0.000000638209
 89      -0.000004251005
 90      -0.000027231045
 91       0.000017559931
 92       0.000040720213
 93      -0.000040221999
 94      -0.000010058419
 95       0.000046888147
 96       0.000210740236
 97      -0.004325015270
 98       0.009013264051
 99      -0.000065204643
100       0.000035484050
101       0.000123179558
102      -0.002440341816
103      -0.000261579317
104       0.000859650503
105       0.001587256184
106      -0.002032126004
107       0.003981659040
108       0.000014452709
109       0.000100202909
110       0.000072146999
111      -0.000056354139
112       0.000062178722
113      -0.000362154836
114       0.000768370618
115      -0.001038511314
116      -0.000777353102
117      -0.000151338706
118      -0.000065948172
119       0.000003648292
120       0.000117143359
121       0.000101520383
122      -0.000052166687
123      -0.000060161260
124      -0.000005185936
125      -0.000047114334
126       0.000272489329
127      -0.000498049522
128      -0.003118078658
129       0.004372767862
130      -0.000112277432
131      -0.000343324648
132       0.000329326468
133      -0.003471271031
134      -0.004603195102
135       0.006852715035
136       0.000824889841
137       0.005231346250
138      -0.004009310773
139      -0.000196998904
140       0.000259689661
141       0.000385636870
142       0.000083971503
143      -0.000119691006
144      -0.001949428846
145       0.000917442251
146       0.003529630306
147       0.001791375702
148      -0.002647339818
149      -0.000261110338
150      -0.000247682386
151      -0.000187161989
152      -0.000024692316
153       0.000010265330
154      -0.000181624243
155       0.000028279804
156      -0.435080957152
157      -0.639505352553
158      -0.036407910041
159       0.030540075002
160      -0.013148229713
161       0.000607977454
162       0.001130954618
163      -0.001477284780
164      -0.001937938564
165      -0.003633681903
166       0.004791673481
167       0.000553996810
168       0.000224673544
169      -0.000999587158
170      -0.000111621874
171       0.000085755645
172       0.000211317020
173       0.000080043904
174      -0.000126898011
175       0.000600648491
176      -0.000548458251
177      -0.001220249474
178      -0.000407429012
179       0.000602342823
180      -0.000013334062
181      -0.000065930264
182      -0.000142953662
183      -0.000081835473
184       0.000110203373
185       0.000050897497
186       0.000010016793
187       0.002866370813
188       0.004207716735
189       0.000477094018
190      -0.002179579193
191       0.001531867548
192       0.000037071877
193      -0.000049657276
194      -0.000016213405
195       0.000081292748
196      -0.000483026464
197       0.000490213423
198      -0.000570037487
199      -0.000562733220
200       0.000344240454
201       0.000017061044
202       0.000049136688
203       0.000053394019
204      -0.000033066933
205       0.000049095351
206      -0.000029014984
207      -0.000262204419
208      -0.000069711340
209       0.000241499288
210      -0.000091970112
211       0.000011856818
212       0.000031010808
213       0.000045567517
214       0.000083947260
215      -0.000024101931
216      -0.000006958360
217       0.000023613192
218      -0.000005448836
219      -0.000141563473
220       0.000310028085
221       0.000033382734
222      -0.000016466200
223       0.000016249739
224       0.000025227217
225      -0.000169835709
226       0.000014690896
227       0.000003011881
228       0.000001020978
229       0.000010653455
230       0.000043228835
231       0.000144776483
232      -0.000536393264
233      -0.000022940200
234      -0.000024289176
235      -0.000016593880
236      -0.000041012347
237       0.000346300968
238       0.000093205317
239      -0.000055654355
240       0.000001454315
241      -0.000018562711
242      -0.000027711960
243       0.001000963691
244      -0.000523021770
245      -0.000069932432
246      -0.000118869259
247       0.000052228183
248      -0.000043324382
249       0.000206461436
250      -0.000156593615
251       0.000014259211
252      -0.000027586150
253       0.000046235458
254       0.000019846075
255      -0.001016123167
256      -0.001006930573
257      -0.000115132300
258      -0.000067434276
259      -0.000177902470
260      -0.000114506622
261      -0.000580956896
262       0.000676284758
263      -0.000142253583
264       0.000017634223
265       0.000001669562
266       0.000025354729
267      -0.000338780826
268      -0.000200346068
269      -0.000053449669
270      -0.000061718577
271      -0.000004749942
 Sym=     1a
 Ene= -1.90477692587379E+01
 Spin= Alpha
 Occup= 2.000000
  1      -0.000001154376
  2       0.000006597491
  3       0.000008758433
  4      -0.000150982057
  5      -0.000459468518
  6       0.000017710132
  7       0.000013206525
  8       0.000025343917
  9      -0.000174691822
 10      -0.000086660488
 11      -0.000015264203
 12       0.000283481258
 13       0.000254437365
 14       0.000657150871
 15      -0.000003129540
 16       0.000005759429
 17      -0.000000838035
 18       0.000005429508
 19      -0.000000565302
 20       0.000053163458
 21      -0.000043286776
 22       0.000040036608
 23      -0.000037407148
 24      -0.000065884880
 25      -0.000009036451
 26       0.000020355857
 27       0.000012110739
 28       0.000000210964
 29       0.000010191212
 30       0.000006979593
 31       0.000000232207
 32      -0.000004207922
 33       0.000020131790
 34      -0.000204079479
 35       0.000861089768
 36      -0.001944847312
 37       0.000013957576
 38      -0.000035891972
 39      -0.000002737244
 40      -0.000550714772
 41       0.000208788815
 42      -0.000219639913
 43       0.000006659780
 44      -0.000605844569
 45      -0.000965501595
 46      -0.000048185929
 47       0.000021477029
 48       0.000028669544
 49       0.000007702236
 50      -0.000032322112
 51       0.000013499388
 52      -0.000128770403
 53      -0.000527728700
 54      -0.000048289910
 55      -0.000058875909
 56       0.000034663585
 57      -0.000053190888
 58       0.000004565165
 59       0.000012335132
 60       0.000022748987
 61       0.000005845769
 62      -0.000036218550
 63       0.000001058018
 64      -0.000005086331
 65      -0.000230390872
 66       0.001808632169
 67      -0.003552946073
 68       0.000028029336
 69      -0.000003329684
 70       0.000038081179
 71      -0.000968961995
 72      -0.000131311682
 73      -0.001665213566
 74      -0.001771485178
 75      -0.000830162579
 76       0.002935031172
 77       0.000073787389
 78      -0.000037025548
 79       0.000008967984
 80       0.000013485504
 81       0.000017743824
 82       0.000487626061
 83       0.000164481096
 84       0.000592034174
 85       0.000137822860
 86      -0.000040889271
 87      -0.000111683943
 88      -0.000017283301
 89      -0.000046374658
 90       0.000045338794
 91      -0.000007634917
 92       0.000021312077
 93       0.000003685231
 94      -0.000008762898
 95       0.000040273734
 96       0.000450531912
 97      -0.005592750495
 98       0.007408576348
 99      -0.000076666072
100       0.000065784022
101       0.000180699405
102      -0.002585419987
103       0.000888174731
104      -0.000933868081
105       0.001248384415
106       0.002749261254
107      -0.001664797157
108      -0.000001474069
109       0.000100020380
110       0.000085330624
111      -0.000068107131
112       0.000045710750
113      -0.000197145845
114       0.000412566774
115      -0.001631474547
116      -0.000468972555
117      -0.000451233148
118      -0.000026970717
119      -0.000125181537
120       0.000056044283
121       0.000110682459
122      -0.000052936115
123      -0.000081944948
124      -0.000010593065
125      -0.000046254266
126       0.000268659399
127      -0.000370175974
128      -0.003753599211
129       0.002870578691
130      -0.000235469650
131       0.000418802681
132      -0.000192024489
133      -0.005217599218
134       0.006164342767
135      -0.001627640069
136       0.003123976485
137      -0.004973593280
138       0.003363405784
139       0.000175675741
140      -0.000054183976
141       0.000226258970
142       0.000104579026
143       0.000393104223
144       0.001677194711
145      -0.002693466584
146       0.001666515573
147       0.002072111248
148       0.003130588292
149       0.000046350440
150       0.000193372351
151       0.000046215077
152       0.000274303103
153      -0.000038045308
154       0.000127283471
155       0.000189882130
156      -0.002866206126
157      -0.004217372553
158      -0.000044676990
159      -0.001581379239
160       0.001788597850
161       0.000036649495
162       0.000039847659
163      -0.000101897921
164      -0.000183156125
165       0.000425764921
166      -0.000065010508
167      -0.000886506296
168       0.000420363123
169      -0.000307349104
170       0.000018895684
171       0.000068806070
172       0.000052501716
173      -0.000028159506
174       0.000027344373
175      -0.000090358371
176      -0.000295311536
177      -0.000055582324
178       0.000214918095
179      -0.000120237056
180      -0.000060115508
181      -0.000039808811
182      -0.000027193877
183      -0.000004829349
184      -0.000021752216
185      -0.000065241759
186       0.000005681510
187      -0.435078695125
188      -0.639502610475
189      -0.036395815673
190       0.030415149205
191      -0.013242458714
192       0.001059828680
193      -0.001525364329
194       0.000548578682
195      -0.003382525353
196       0.004862237309
197      -0.001717961265
198       0.000750475033
199      -0.000879691796
200      -0.000232731005
201       0.000109846680
202      -0.000127813065
203       0.000097851021
204       0.000095115522
205       0.000198355113
206      -0.000585780025
207       0.000585974725
208      -0.000605575851
209      -0.000495676211
210      -0.001122243189
211       0.000079429438
212       0.000031512450
213      -0.000052625292
214       0.000042529836
215       0.000108683269
216       0.000138130931
217       0.000024935670
218       0.000005839403
219       0.000084885920
220      -0.000021572886
221       0.000000229601
222       0.000005542152
223      -0.000045011748
224      -0.000003023582
225      -0.000061657409
226      -0.000139729180
227      -0.000017094015
228       0.000008863603
229       0.000006723264
230      -0.000014673900
231       0.000701556906
232       0.000818239191
233      -0.000055347642
234      -0.000040901691
235      -0.000088444243
236      -0.000060855273
237       0.000278208299
238       0.000115569457
239      -0.000043204311
240       0.000006368973
241      -0.000133155275
242      -0.000019349959
243       0.000775834401
244       0.001478610959
245      -0.000039263177
246      -0.000068068429
247       0.000005934638
248      -0.000000609971
249      -0.000573105282
250      -0.000740067963
251      -0.000085101485
252       0.000073513470
253       0.000052838804
254      -0.000011093810
255       0.000585584206
256      -0.000373148409
257      -0.000038808335
258       0.000155236307
259      -0.000132955714
260      -0.000092869522
261      -0.001911952997
262      -0.001069577106
263      -0.000210450918
264       0.000114706495
265      -0.000108940014
266      -0.000045864303
267       0.000395859716
268       0.000426426858
269       0.000028374371
270       0.000030243431
271       0.000008268701
 Sym=     1a
 Ene= -1.44287221610777E+01
 Spin= Alpha
 Occup= 2.000000
  1      -0.448314596049
  2      -0.626789421058
  3      -0.037320929780
  4       0.031347415795
  5      -0.025140448680
  6      -0.000445189987
  7      -0.000398751541
  8       0.000387948929
  9       0.003365209736
 10       0.003366541766
 11      -0.003129270086
 12      -0.000841577342
 13      -0.000994186100
 14       0.002220986991
 15       0.000047712542
 16       0.000035715790
 17       0.000043735811
 18      -0.000000898151
 19      -0.000065677534
 20      -0.000273690855
 21      -0.001263734752
 22      -0.000915084706
 23       0.000181414526
 24       0.001421140550
 25       0.000178242997
 26       0.000072916685
 27       0.000058629307
 28       0.000048812103
 29       0.000007117404
 30      -0.000046373170
 31       0.000144545194
 32      -0.000005896130
 33       0.000029564981
 34       0.001843168376
 35      -0.009051013320
 36       0.020355906137
 37      -0.000114990380
 38      -0.000023147994
 39      -0.000034822854
 40       0.004476554173
 41       0.003168876463
 42      -0.002479752866
 43      -0.003292929745
 44      -0.001895311749
 45      -0.001749981063
 46      -0.000022073351
 47       0.000170078878
 48       0.000150739919
 49       0.000041237904
 50      -0.000186309407
 51       0.000659113740
 52       0.001464341165
 53       0.001138974309
 54      -0.001075856120
 55      -0.001665270640
 56       0.000079596247
 57      -0.000006098231
 58       0.000018037824
 59       0.000000400198
 60      -0.000210750346
 61      -0.000015537172
 62       0.000063702948
 63      -0.000001916117
 64       0.000010642212
 65      -0.000085615934
 66      -0.001393332752
 67      -0.001140253707
 68       0.000042442413
 69       0.000058613528
 70      -0.000124220398
 71      -0.000137529358
 72       0.000100023466
 73       0.000689709909
 74      -0.001797310472
 75       0.000120059735
 76      -0.002072987623
 77       0.000026681040
 78       0.000070074487
 79       0.000028781259
 80       0.000013718106
 81      -0.000040875543
 82      -0.000261103268
 83      -0.000743454425
 84      -0.000739782746
 85      -0.000354434985
 86       0.000506272092
 87       0.000006422904
 88      -0.000047936286
 89      -0.000085306711
 90      -0.000137762482
 91       0.000079276612
 92       0.000063362343
 93       0.000083628371
 94      -0.000000246277
 95       0.000000994830
 96       0.000092816037
 97       0.000532590229
 98      -0.006211824958
 99       0.000050812941
100      -0.000045961348
101      -0.000002803672
102      -0.000209098499
103       0.000844013944
104       0.000899293110
105      -0.002183980563
106       0.000603843496
107      -0.002285835959
108       0.000027636143
109       0.000052852933
110      -0.000005119172
111       0.000033809681
112      -0.000023328483
113       0.000258447771
114       0.000132204760
115       0.000332589897
116      -0.000209949998
117      -0.000005081429
118      -0.000013871425
119       0.000006176878
120       0.000034188745
121       0.000016799275
122      -0.000020855274
123      -0.000038504137
124       0.000018823914
125      -0.000002131006
126       0.000012601211
127      -0.000303119782
128       0.001513167907
129       0.002404249426
130       0.000040510398
131       0.000006530018
132      -0.000026096372
133      -0.000458135348
134      -0.000363377586
135       0.000793531463
136      -0.000428347396
137      -0.000593559825
138       0.001194297426
139       0.000028229041
140       0.000017283861
141      -0.000003988669
142       0.000023170003
143      -0.000019315618
144      -0.000273872471
145      -0.000232298880
146       0.000143189458
147      -0.000009757779
148      -0.000165721289
149      -0.000005074809
150      -0.000044067866
151      -0.000010532308
152       0.000006534527
153       0.000010835548
154      -0.000032558557
155       0.000021275378
156       0.000000444531
157      -0.000005643731
158       0.000027618601
159      -0.000018292742
160       0.000822728987
161       0.000011857828
162       0.000025388132
163      -0.000005829883
164      -0.000084751981
165      -0.000182407103
166       0.000087827972
167      -0.000099800854
168      -0.000017867246
169       0.000079176358
170       0.000006389241
171       0.000006260682
172      -0.000000784386
173       0.000001941729
174      -0.000006322695
175      -0.000028736337
176      -0.000033829203
177      -0.000032713162
178      -0.000023042295
179       0.000047851621
180      -0.000006314123
181       0.000001984056
182      -0.000001577174
183      -0.000005230977
184       0.000002712626
185       0.000005892159
186       0.000001203536
187      -0.000000654466
188       0.000007970595
189      -0.000062445507
190       0.000230496712
191      -0.001435744970
192      -0.000002641499
193       0.000014684351
194      -0.000012091142
195       0.000056682312
196      -0.000109905242
197       0.000126716108
198       0.000456144349
199      -0.000316097712
200       0.000044395461
201       0.000008266553
202      -0.000008367654
203      -0.000002426317