37
 energy: -59.752561329329 gnorm: 0.182782863334 xtb: 6.7.1 (edcfbbe)
N            0.05814800000000       -0.92758300000000        1.46960700000000
C            0.21195900000000        0.51002000000000        1.25738900000000
C           -0.42029600000000        1.02660100000000       -0.05399500000000
C            0.23290900000000        0.51099500000000       -1.35178600000000
C           -0.12525300000000       -0.89643600000000       -1.75561800000000
O            0.43258500000000       -1.42088200000000       -2.86197900000000
O           -0.94795900000000       -1.55110300000000       -1.13717200000000
H            0.42854800000000       -1.16686800000000        2.41684100000000
H           -0.95187600000000       -1.19383100000000        1.43153800000000
H           -0.27873900000000        1.04478500000000        2.10014800000000
H            1.29199600000000        0.77262900000000        1.27882300000000
H           -0.26331200000000        2.12751800000000       -0.03828000000000
H           -1.51695700000000        0.85134800000000       -0.07337000000000
H            1.33463900000000        0.61768200000000       -1.26361400000000
H           -0.10456000000000        1.15854300000000       -2.18948000000000
H            0.61816600000000       -1.46341800000000        0.77094700000000
O            2.29939400000000        3.08512700000000        3.14190800000000
H            1.83577200000000        3.90077600000000        2.82507600000000
H            1.61055600000000        2.59129500000000        3.65400600000000
O           -1.99164400000000        3.10286800000000        3.79910500000000
H           -1.94217100000000        2.11389500000000        3.78932300000000
H           -2.20641400000000        3.34978900000000        2.86448300000000
O            2.14035400000000        3.31106600000000        0.54711400000000
H            1.75556600000000        4.13367400000000        0.15231700000000
H            2.98616200000000        3.60948400000000        0.96683900000000
O           -0.38220500000000        4.50876800000000        3.30598000000000
H            0.20605200000000        5.29749900000000        3.19432100000000
H           -0.00051900000000        4.02208700000000        4.07933000000000
O           -1.24349500000000       -3.73982500000000        4.13699800000000
H           -2.20218800000000       -3.49862300000000        4.19478700000000
H           -0.76329000000000       -2.89150300000000        4.31125900000000
O           -2.77329000000000       -1.23292200000000        4.00931200000000
H           -2.10549800000000       -1.45417900000000        3.31238200000000
H           -2.25357000000000       -1.20780900000000        4.85185100000000
O            0.06215000000000       -4.68905300000000        0.94466800000000
H            0.99442000000000       -4.47895100000000        0.68516600000000
H            0.12949700000000       -5.54248800000000        1.44238800000000
37
 energy: -59.781163656541 gnorm: 0.088709863345 xtb: 6.7.1 (edcfbbe)
N            0.05985302077257       -0.92547534789347        1.47004168559971
C            0.21180511902707        0.52233143087035        1.25379707304809
C           -0.41003632539918        1.03134471878746       -0.05007830304751
C            0.23598567956017        0.51603513366136       -1.34512954468441
C           -0.14325925054317       -0.89555389961937       -1.76937169942879
O            0.43888918304892       -1.37627503404178       -2.82260236753022
O           -0.94751306913873       -1.56437457579445       -1.10542997663089
H            0.42653826939660       -1.18005500972483        2.40059422405851
H           -0.93315902236861       -1.19939497520759        1.40219609647160
H           -0.27635791513881        1.05022973843468        2.08269365629792
H            1.27694950438178        0.78488423133890        1.26517453191604
H           -0.27073438977227        2.11907659039281       -0.03981188016427
H           -1.48857746093737        0.83021461107817       -0.07428934132008
H            1.32761517237551        0.60984862338487       -1.28126081151545
H           -0.08689921210590        1.15372652660296       -2.17987802138464
H            0.58690679739665       -1.45817654443955        0.76345733863236
O            2.31074187878161        3.10244529691911        3.20854976381893
H            1.82835757821266        3.86052164462961        2.82491426359417
H            1.61896575862800        2.58080265315516        3.65006662185288
O           -2.06692624919747        3.04157843293882        3.81209983028876
H           -1.98597571013742        2.07593349383357        3.77867258802822
H           -2.22188399369042        3.32201746653693        2.89320409091595
O            2.14454411550289        3.32209120557856        0.50401923262455
H            1.77118622873965        4.13965050234005        0.14026886962708
H            2.96948038915532        3.58933452712442        0.94610496951077
O           -0.29915950487855        4.54344894767606        3.27391684331042
H            0.24000698835429        5.34835888643082        3.21239297314961
H            0.00072168300646        4.08543758240193        4.08268360818800
O           -1.24515722231376       -3.73447273507090        4.12890620067504
H           -2.18880517702176       -3.50356264197098        4.19020197613615
H           -0.76658686631820       -2.91295408136650        4.33465072266244
O           -2.76330263001338       -1.21046934415972        4.01141135876762
H           -2.12095903752656       -1.46432791615848        3.32553868511261
H           -2.26435529326193       -1.20141280296264        4.84622748800603
O            0.07786203832118       -4.67655388608809        0.96942952601441
H            0.98800181587482       -4.50279538832894        0.67612562307519
H            0.12087410922722       -5.53248306128931        1.42912410432311
37
 energy: -59.791742275777 gnorm: 0.039600561283 xtb: 6.7.1 (edcfbbe)
N            0.06134173106498       -0.91886315377643        1.46081971611901
C            0.21732283513010        0.53949063129354        1.24944903523914
C           -0.40574193392390        1.03737266477760       -0.04725844869864
C            0.24799333274512        0.51964013299243       -1.33154952727210
C           -0.09980464936059       -0.92540093428761       -1.74206005154289
O            0.38526482923128       -1.31809124919731       -2.81962335522383
O           -0.94747447069374       -1.55507027503511       -1.06844112340761
H            0.42503498701363       -1.19479394254540        2.37576259528780
H           -0.91965827899821       -1.19675151521834        1.35571973776994
H           -0.27348392680448        1.05469004307473        2.07141300802092
H            1.27455630887371        0.79372435419617        1.25317943210426
H           -0.28890403700570        2.11756589736527       -0.04195650350728
H           -1.46892745225294        0.80006736034738       -0.08016649856766
H            1.33214514379637        0.60145756350157       -1.28557418942133
H           -0.07090744849759        1.13895077644195       -2.17286751896137
H            0.55263078875608       -1.44691009366965        0.73556946135339
O            2.31658482011619        3.10714691485629        3.24526493897195
H            1.81185918233224        3.81950262171796        2.82819902625911
H            1.64743835507737        2.56307039985367        3.66289225836858
O           -2.09388749574147        2.99459262136486        3.82826583859759
H           -2.04226263355948        2.04235100699597        3.77612498421392
H           -2.23632406209919        3.31637879264350        2.93507065528342
O            2.13351905153236        3.33534421774487        0.48398002375471
H            1.79405532199384        4.14564861051291        0.10874394907404
H            2.96054856014201        3.55774762345133        0.92034930968963
O           -0.21600513043566        4.55773475484832        3.22310701187922
H            0.24871530874425        5.40594468060879        3.23971381721429
H           -0.02275362527481        4.14511861382098        4.08868224629148
O           -1.24445029941469       -3.73392286550248        4.11809567869486
H           -2.17881516082136       -3.51898754036551        4.18288104916023
H           -0.76341330259457       -2.94135686765426        4.37684379776764
O           -2.75340541312383       -1.17543243532643        4.01475107860079
H           -2.14102316328271       -1.48279933026246        3.33714006662578
H           -2.27670567155409       -1.18287986381122        4.84775508364252
O            0.09742116684702       -4.66076956632235        0.99414753534109
H            0.98972883026645       -4.52967201046515        0.66174022995536
H            0.10342460177542       -5.52086363897022        1.42244765132161
37
 energy: -59.796825030827 gnorm: 0.070600740305 xtb: 6.7.1 (edcfbbe)
N            0.06098465327471       -0.91293467555356        1.44249637116824
C            0.22442863081081        0.55136061184417        1.24754582184645
C           -0.40469451822108        1.04326466623446       -0.04462725767730
C            0.24707479613152        0.53104415164399       -1.32735311244340
C           -0.14638898754363       -0.90639717113250       -1.78226662059084
O            0.41188198328820       -1.32279112359438       -2.78970586114656
O           -0.90545611809670       -1.56610281785445       -1.01349848754129
H            0.42319293725180       -1.21204909619906        2.34864697607916
H           -0.91830629261422       -1.18682252045315        1.30995279905162
H           -0.26788233774566        1.05772258552000        2.07232925724920
H            1.28171783952654        0.79952946652150        1.24561694352659
H           -0.30791272371267        2.12452106335804       -0.03996511737203
H           -1.46073156740462        0.77823198186346       -0.08282715710368
H            1.33457510717281        0.58555060820523       -1.28990346897491
H           -0.06551285958876        1.15485558960791       -2.16469207906973
H            0.53028980564273       -1.43315955783663        0.69584471004099
O            2.33841283091508        3.13136766766094        3.31263544980865
H            1.77187613769502        3.76613426118933        2.81171236616074
H            1.68287727793596        2.51768514986057        3.67335892491035
O           -2.10475939728087        2.95253907757054        3.85794024709961
H           -2.10964267195104        1.99851694425371        3.77100927738845
H           -2.23986506993863        3.32736716457714        2.98294291729247
O            2.11709427066775        3.34281259565654        0.45383496424420
H            1.82372193515744        4.16757681652761        0.06791729283091
H            2.95282200535423        3.51247416051760        0.90094084190025
O           -0.15858070173241        4.58465671830696        3.19269904289079
H            0.24625810766088        5.46793080863341        3.26228269084823
H           -0.03136382485092        4.19296923070776        4.07830768384649
O           -1.23967094855158       -3.73467998806462        4.08288972726719
H           -2.17512324311813       -3.54164974707830        4.18157340010317
H           -0.75687199741832       -2.97160001844948        4.44883356273722
O           -2.74277596204048       -1.10374665254515        4.01204691150611
H           -2.16130684663394       -1.52454826486177        3.34912954252746
H           -2.28990806300430       -1.17106063175438        4.85816898987409
O            0.12198092453947       -4.62023943650591        1.04276630703830
H            1.00448739472544       -4.57368930641345        0.63074875897387
H            0.06871449369632       -5.51566531196358        1.40927938370811
37
 energy: -59.800885940675 gnorm: 0.050651217437 xtb: 6.7.1 (edcfbbe)
N            0.05905596187057       -0.90783169888199        1.42406533260988
C            0.22636594940826        0.55792827015762        1.24721647581172
C           -0.40918403650055        1.04685731256266       -0.04350941913930
C            0.25270212903018        0.53534980107645       -1.31900952077044
C           -0.13274197603663       -0.91205521405600       -1.77394480246829
O            0.41229427392611       -1.31524268651280       -2.81090098972022
O           -0.89653322497207       -1.56290272873870       -1.01087832920262
H            0.42237854080180       -1.22790279065513        2.32481934186502
H           -0.92320984314742       -1.17424770573524        1.28089371129934
H           -0.26264539982544        1.06042454997173        2.07967328769091
H            1.28620377980810        0.80547793733416        1.23972576878485
H           -0.33380981978440        2.13335850572671       -0.04070177927745
H           -1.46178029181302        0.75981667538789       -0.08188260237050
H            1.34152872103874        0.58539042909588       -1.27121915359633
H           -0.05164651948415        1.15693935444583       -2.16389643047606
H            0.51760972213014       -1.41868022399397        0.65935225739851
O            2.32492224168768        3.09706770020781        3.28614166841135
H            1.76232117083399        3.74937911673601        2.86350844990831
H            1.72274249592061        2.48969170583400        3.71671774936292
O           -2.10846493412440        2.91587416873603        3.89424748557853
H           -2.18744097193391        1.95567149752158        3.76327745424303
H           -2.24155229502057        3.34341172740355        3.03399104168049
O            2.09307121550317        3.34892030678001        0.42139071402474
H            1.85878258961874        4.19838810656021        0.02361776272824
H            2.93766607803791        3.46567801465236        0.88691095192442
O           -0.13718780037507        4.64240220457487        3.19578443898259
H            0.26068817301553        5.51201058283743        3.25622946718453
H           -0.01928955305231        4.22681792940114        4.04795498658915
O           -1.22918008178594       -3.73955342588568        4.07116584653892
H           -2.17145788131041       -3.57039731424573        4.19184928280691
H           -0.75637027628398       -2.99322419170084        4.49574822527386
O           -2.73336202996914       -1.05844864928549        4.00499698826941
H           -2.16561990932293       -1.54477784895991        3.36365836272057
H           -2.30639894752807       -1.16633886437267        4.86851888007050
O            0.13714002226491       -4.62269928454298        1.02285835838637
H            1.01957821273210       -4.58354531345851        0.64256301812810
H            0.04846151463937       -5.49803295597728        1.41767771874656
37
 energy: -59.800850289332 gnorm: 0.088976105320 xtb: 6.7.1 (edcfbbe)
N            0.05670000440820       -0.90122266157315        1.40417175777791
C            0.22618052880986        0.56197007871831        1.24722499210003
C           -0.41834808490613        1.04890260432189       -0.04404063541250
C            0.26052483066294        0.54014566227808       -1.31072802256096
C           -0.09204139452080       -0.92776340587682       -1.73978914302564
O            0.39422088995706       -1.30402770132434       -2.85891957919820
O           -0.90110306097387       -1.54936880668069       -1.03223688993785
H            0.42251305163642       -1.24439123639349        2.29959212242775
H           -0.93234271980298       -1.15524893505962        1.25953351965745
H           -0.25424048487627        1.06364396442569        2.09245805962701
H            1.29058230356287        0.81243091007275        1.23435777549114
H           -0.36873849492016        2.14330436687245       -0.04272610459856
H           -1.46891090083369        0.74265534563252       -0.07656278709106
H            1.35051927072587        0.59293877566382       -1.23814567484149
H           -0.03027640266026        1.15955046791207       -2.16881569534159
H            0.50809073136460       -1.39978592534991        0.61998384298111
O            2.33721574343897        3.11154175627837        3.32007192401285
H            1.68984205680825        3.68964344995713        2.86130298089569
H            1.79641991356488        2.42814773702243        3.75904211719223
O           -2.08975638446965        2.88152207022787        3.91924084429598
H           -2.28179546410685        1.91761001478064        3.77052860119397
H           -2.24421176214161        3.33203931147451        3.07539172056870
O            2.08422746741256        3.34602256450038        0.38791197241413
H            1.89097263996562        4.20878851017804       -0.02305761431124
H            2.92233424544715        3.43977498030857        0.87122469508248
O           -0.04921360069228        4.67209677484545        3.12985111821574
H            0.28231086112831        5.58475755695864        3.28677045326077
H           -0.08354854178241        4.29437158265059        4.05964257503640
O           -1.21327524850324       -3.74848476693135        4.10889143218551
H           -2.16682000322600       -3.60436056664884        4.20513776903059
H           -0.76026781364050       -3.01043183791733        4.50356366164941
O           -2.73069106146706       -1.09055494149051        4.00260009260943
H           -2.16020285319114       -1.51157065597054        3.37837920040204
H           -2.32440144531519       -1.13816954491641        4.87425412755577
O            0.16263987671070       -4.59711637632589        1.03676175624680
H            1.03632535760643       -4.61912270437012        0.62260754348092
H            0.01420294881597       -5.47926341824957        1.41313749092503
37
 energy: -59.805696585763 gnorm: 0.045170029308 xtb: 6.7.1 (edcfbbe)
N            0.05536191746108       -0.90024983097516        1.40028221008793
C            0.22402120473672        0.56270137680147        1.24347192332143
C           -0.42191759326998        1.04792311871797       -0.04706011734859
C            0.26111156559011        0.54604429088180       -1.31578030401439
C           -0.10794507910570       -0.91404211649945       -1.75674192583932
O            0.40022676450672       -1.30282094385819       -2.83815731034783
O           -0.90055475497666       -1.54500056153806       -1.03484096242065
H            0.42210947564217       -1.24654268021240        2.29065918489859
H           -0.93200209839847       -1.15314994593165        1.25819984847142
H           -0.25263811017468        1.06201439358329        2.08919914778177
H            1.28598543696083        0.81312339246727        1.23133410336755
H           -0.37464063978759        2.13871884293820       -0.04346290917807
H           -1.47020185275601        0.74268173340101       -0.07810564202919
H            1.34942634489599        0.59249019324841       -1.23523151158106
H           -0.01946545350247        1.17136779326924       -2.16954047070619
H            0.50268168074841       -1.39589468143587        0.61559818752518
O            2.34334628166891        3.10087316711807        3.32264938106253
H            1.66952930286918        3.65881388798717        2.85862334135942
H            1.82690406667668        2.41524058398079        3.78127535664373
O           -2.11778636963317        2.87959610511576        3.92354710108832
H           -2.27729681557020        1.93282649930832        3.79389613826665
H           -2.25485921179775        3.30637133236310        3.07817835180117
O            2.10081663799915        3.33911452613851        0.37294575794554
H            1.88799202305619        4.18516917030794       -0.03021957572232
H            2.91582370500174        3.45622444067333        0.86603483892066
O           -0.07359171850080        4.72067952492345        3.16692677899940
H            0.29104488714131        5.59087855770511        3.27303788646142
H           -0.05365399137436        4.28035960619864        4.01521761497520
O           -1.21148418437955       -3.74562401697065        4.08909227129428
H           -2.16230163033665       -3.61715951188530        4.21532456413571
H           -0.76192974029515       -3.02355339032781        4.54804273243761
O           -2.72002968747653       -1.04372914230721        3.99686109828019
H           -2.16518285206761       -1.55194632992439        3.38784163709179
H           -2.33090945638176       -1.12675701526753        4.87472930628953
O            0.17443641732759       -4.58373633849261        1.04684568539072
H            1.04276461786862       -4.63553734672591        0.60543524555685
H            0.01044590962933       -5.46649368477456        1.41250303573003
37
 energy: -59.796430367558 gnorm: 0.139766160856 xtb: 6.7.1 (edcfbbe)
N            0.05352422881446       -0.89984399842436        1.39628368265067
C            0.22160713366627        0.56362236515877        1.23662210585618
C           -0.42393949427784        1.04685865273069       -0.05216818564751
C            0.26059306738473        0.55498897681894       -1.32625654775913
C           -0.16095088560866       -0.87886006778529       -1.81125176681872
O            0.42379352769853       -1.30448035096509       -2.79312513978596
O           -0.88172458998395       -1.55186566004304       -1.02359831751815
H            0.42082836605503       -1.24983711776814        2.27805008104956
H           -0.92995715379825       -1.15242104130663        1.25837213573513
H           -0.25276200148374        1.05890232117199        2.07899544704654
H            1.27836991709557        0.81354448128269        1.22562676489844
H           -0.37894913885143        2.13016535603864       -0.04618811644442
H           -1.46759892813667        0.74133633948519       -0.08498735164755
H            1.34672067844473        0.58660148900734       -1.23994017975106
H           -0.00497092210025        1.19336007474947       -2.16666123752693
H            0.49357777038783       -1.39266112472545        0.61402329570512
O            2.30444116890066        3.01669315207307        3.23972967862527
H            1.71846640276892        3.66797297452534        2.94260025805773
H            1.82628133537187        2.44108317742604        3.82038780081281
O           -2.10980226284331        2.85816523650008        3.92856920662059
H           -2.29823397280132        1.93376054410735        3.80531318695841
H           -2.25395800983233        3.29515019120682        3.09541669339094
O            2.10177022932752        3.33898465424303        0.34813064838848
H            1.90944498725267        4.18312901336525       -0.04666957410340
H            2.89677273404742        3.44049865794277        0.87318465537860
O           -0.00837386870576        4.70423071991192        3.10729136352262
H            0.28197700722586        5.63541840062402        3.31716974340465
H           -0.10154088295195        4.30177289278515        4.01540931298554
O           -1.21263523732053       -3.73677297440299        4.04964443165379
H           -2.15551325166164       -3.63217624868997        4.22911046577628
H           -0.76314058193094       -3.04667700747695        4.62171839392165
O           -2.69824319630727       -0.95357034566074        3.98309218056704
H           -2.17281065584437       -1.62110930287462        3.40298192908073
H           -2.34483073241603       -1.12442141278155        4.87676542653319
O            0.17642547454906       -4.61692338386876        0.99297610921692
H            1.03805423965266       -4.61079488118190        0.63597892061013
H            0.02292449820707       -5.44284975319639        1.42601449855197
37
 energy: -59.807134160513 gnorm: 0.051383177815 xtb: 6.7.1 (edcfbbe)
N            0.05243836043406       -0.89955881370925        1.39364657610031
C            0.22034019730791        0.56226050547869        1.23623565658497
C           -0.42596551381512        1.04877954934089       -0.05257394832979
C            0.26000399783029        0.55522684870976       -1.32468608609590
C           -0.14211433640791       -0.88537711131110       -1.79157270767164
O            0.42010025372008       -1.30222473871038       -2.81223387786648
O           -0.88995083714896       -1.54621619399411       -1.03466300643064
H            0.42185129277042       -1.25139404421222        2.27666972242345
H           -0.93420235373782       -1.15001419896859        1.26286399263823
H           -0.25462627703786        1.05991577615143        2.07996282486615
H            1.27893637030064        0.81541071558657        1.22467754220956
H           -0.38344259645547        2.13507066001672       -0.04668192758458
H           -1.47061606674891        0.73891770525030       -0.08600853112380
H            1.34713521146376        0.58826259240631       -1.23412225927043
H           -0.00242076692909        1.19455559000096       -2.16870316871852
H            0.49443745803995       -1.39170530861030        0.60954536676373
O            2.31085483953218        3.02198407932609        3.23610651389111
H            1.68275112753431        3.66011666244804        2.93989836227344
H            1.85467896008348        2.42821884197698        3.83689861543200
O           -2.10166387875556        2.84894328610966        3.94190396647062
H           -2.32624154874023        1.91847468799633        3.80018492550175
H           -2.25290325208750        3.30707597042048        3.10966744668818
O            2.09572448746033        3.33681662222126        0.33192396051246
H            1.92112450824634        4.19635234553692       -0.05961453636285
H            2.88758615018014        3.42599214577298        0.88095913327507
O           -0.02550707400306        4.73712161764988        3.13403709094417
H            0.29288561773789        5.63322417859230        3.29440828054248
H           -0.08280809404253        4.30529163859207        3.99694940568921
O           -1.20817757135047       -3.74512318627244        4.09992945597520
H           -2.15396309472709       -3.63814636547697        4.23152210016099
H           -0.76399240776839       -3.04754502169353        4.58835126653786
O           -2.70686404073382       -1.04783717206668        3.99226724659538
H           -2.16133103923894       -1.55064377087797        3.39990607506779
H           -2.34146414338206       -1.10470874146899        4.87274582524250
O            0.18801620356151       -4.58483762060837        1.02177947118285
H            1.05339491573723       -4.64132482778000        0.60954349987557
H            0.00163194116453       -5.44037990382097        1.41688772600566
37
 energy: -59.789447628536 gnorm: 0.163641993820 xtb: 6.7.1 (edcfbbe)
N            0.04952045811278       -0.89881302033867        1.38795536941981
C            0.21689835613781        0.55955901784322        1.23583478723492
C           -0.43068565137113        1.05247296497562       -0.05447955716184
C            0.26180234515894        0.55173414766885       -1.31940603269042
C           -0.05969233842483       -0.92091725063125       -1.71897363452345
O            0.38284318743699       -1.28216512217845       -2.88676589685917
O           -0.92054794908719       -1.52672088139263       -1.07569051602337
H            0.42476422564662       -1.25319728742378        2.27552263752617
H           -0.94480810162261       -1.14487086492961        1.27264161180139
H           -0.25806525337389        1.06347146674119        2.08414285384554
H            1.28069056519319        0.81871834861798        1.22344076817628
H           -0.39180030353507        2.14687041371225       -0.04887327978368
H           -1.47881195120346        0.73650179888747       -0.08767471409779
H            1.34979450636421        0.59933258243799       -1.21969277105958
H           -0.00071121437090        1.18501399083924       -2.17786312643926
H            0.49697506022448       -1.39067626814496        0.59876156049408
O            2.36136795144593        3.09069292602146        3.29971359238739
H            1.55341097373654        3.61601140539555        2.87758152541115
H            1.93381875625459        2.37554096241322        3.84862887454672
O           -2.08226683946553        2.84360750988072        3.95180384733365
H           -2.34753112686784        1.90421646168513        3.80939374870657
H           -2.25850614829744        3.29655679269180        3.11742253448951
O            2.10215253698432        3.32398870161509        0.31306838566244
H            1.92971273285833        4.19805822374584       -0.07034696834057
H            2.87914879714109        3.42390031530340        0.88723220154757
O           -0.02291679907884        4.75606586242779        3.14383633417800
H            0.30812111446424        5.63013269462686        3.28274505333239
H           -0.09246900353397        4.31961743575176        4.00249048576468
O           -1.20083563990348       -3.73127288953451        4.05746671758489
H           -2.15789697016607       -3.65449178944552        4.25192135113171
H           -0.77080473304306       -3.05558632168659        4.63954795144379
O           -2.68100482772236       -0.91492919378199        3.96110525583994
H           -2.16646125289768       -1.64517011684228        3.41751723705623
H           -2.35742944291886       -1.12236209093656        4.87984230170401
O            0.20328947970750       -4.52968041753585        1.08149005230714
H            1.07162123780908       -4.68636557639681        0.56822792812788
H           -0.02704973779852       -5.44386993207949        1.39904352992079
37
 energy: -59.810521962229 gnorm: 0.036808530672 xtb: 6.7.1 (edcfbbe)
N            0.04960721969874       -0.89766694645056        1.38970119136081
C            0.21687958541227        0.56335248671807        1.23629829823110
C           -0.43062611748604        1.05121928266655       -0.05331282335956
C            0.26537281587339        0.55396711692903       -1.31965100915805