
                                 *****************
                                 * O   R   C   A *
                                 *****************

                                            #,                                       
                                            ###                                      
                                            ####                                     
                                            #####                                    
                                            ######                                   
                                           ########,                                 
                                     ,,################,,,,,                         
                               ,,#################################,,                 
                          ,,##########################################,,             
                       ,#########################################, ''#####,          
                    ,#############################################,,   '####,        
                  ,##################################################,,,,####,       
                ,###########''''           ''''###############################       
              ,#####''   ,,,,##########,,,,          '''####'''          '####       
            ,##' ,,,,###########################,,,                        '##       
           ' ,,###''''                  '''############,,,                           
         ,,##''                                '''############,,,,        ,,,,,,###''
      ,#''                                            '''#######################'''  
     '                                                          ''''####''''         
             ,#######,   #######,   ,#######,      ##                                
            ,#'     '#,  ##    ##  ,#'     '#,    #''#        ,####,   ,####,        
            ##       ##  ##   ,#'  ##            #'  '#       #'       #'  '#        
            ##       ##  #######   ##           ,######,      #####,   #    #        
            '#,     ,#'  ##    ##  '#,     ,#' ,#      #,     #,   #   #,  ,#        
             '#######'   ##     ##  '#######'  #'      '#     '####' # '####'        



                #########################################################
                #                        -***-                          #
                #          Department of theory and spectroscopy        #
                #                                                       #
                #                      Frank Neese                      #
                #                                                       #
                #     Directorship, Architecture, Infrastructure        #
                #                    SHARK, DRIVERS                     #
                #        Core code/Algorithms in most modules           #
                #                                                       #
                #        Max Planck Institute fuer Kohlenforschung      #
                #                Kaiser Wilhelm Platz 1                 #
                #                 D-45470 Muelheim/Ruhr                 #
                #                      Germany                          #
                #                                                       #
                #                  All rights reserved                  #
                #                        -***-                          #
                #########################################################


                         Program Version 6.0.1  -  RELEASE   -


 With contributions from (in alphabetic order):
[Max-Planck-Institut fuer Kohlenforschung]                               
  Daniel Aravena         : Magnetic Suceptibility                        
  Michael Atanasov       : Ab Initio Ligand Field Theory (pilot matlab implementation)
  Alexander A. Auer      : GIAO ZORA, VPT2 properties, NMR spectrum      
  Ute Becker             : All parallelization in ORCA, NUMFREQ, NUMCALC 
  Giovanni Bistoni       : ED, misc. LED, open-shell LED, HFLD           
  Martin Brehm           : Molecular dynamics                            
  Dmytro Bykov           : pre 5.0 version of the SCF Hessian            
  Marcos Casanova-Páez   : Triplet and SCS-CIS(D). UHF-(DLPNO)-IP/EA/STEOM-CCSD. UHF-CVS-IP/STEOM-CCSD   
  Vijay G. Chilkuri      : MRCI spin determinant printing, contributions to CSF-ICE 
  Pauline Colinet        : FMM embedding                                 
  Dipayan Datta          : RHF DLPNO-CCSD density                        
  Achintya Kumar Dutta   : EOM-CC, STEOM-CC                              
  Nicolas Foglia         : Exact transition moments, OPA infrastructure, MCD improvements    
  Dmitry Ganyushin       : Spin-Orbit,Spin-Spin,Magnetic field MRCI      
  Miquel Garcia-Rates    : C-PCM and meta-GGA Hessian, CCSD/C-PCM, Gaussian charge scheme 
  Tiago L. C. Gouveia    : GS-ROHF, GS-ROCIS                             
  Yang Guo               : DLPNO-NEVPT2, F12-NEVPT2, CIM, IAO-localization        
  Andreas Hansen         : Spin unrestricted coupled pair/coupled cluster methods 
  Ingolf Harden          : AUTO-CI MPn and infrastructure                
  Benjamin Helmich-Paris : MC-RPA, TRAH-(SCF,CASSCF), AVAS, COSX integrals, SCF dyn. polar. 
  Lee Huntington         : MR-EOM, pCC                                   
  Robert Izsak           : Overlap fitted RIJCOSX, COSX-SCS-MP3, EOM     
  Riya Kayal             : Wick's Theorem for AUTO-CI, AUTO-CI UHF-CCSDT 
  Emily Kempfer          : AUTO-CI, RHF CISDT and CCSDT                  
  Christian Kollmar      : KDIIS, OOCD, Brueckner-CCSD(T), CCSD density, CASPT2, CASPT2-K, improved NEVPT2 
  Axel Koslowski         : Symmetry handling                             
  Simone Kossmann        : meta-GGA functionals, TD-DFT gradient, OOMP2, (MP2 Hessian; deprecated post 5.0) 
  Lucas Lang             : DCDCAS                                        
  Marvin Lechner         : AUTO-CI (C++ implementation), FIC-MRCC        
  Spencer Leger          : CASSCF response                               
  Dagmar Lenk            : GEPOL surface, SMD, ORCA-2-JSON               
  Dimitrios Liakos       : Extrapolation schemes; Compound Job, initial MDCI parallelization 
  Dimitrios Manganas     : Further ROCIS development; embedding schemes. LFT, Crystal Embedding 
  Dimitrios Pantazis     : SARC Basis sets                               
  Anastasios Papadopoulos: AUTO-CI, single reference methods and gradients 
  Taras Petrenko         : pre 6.0 DFT Hessian and TD-DFT gradient, (ASA, deprecated), ECA, 1-Electron XAS/XES, NRVS 
  Peter Pinski           : DLPNO-MP2, DLPNO-MP2 Gradient                 
  Christoph Reimann      : Effective Core Potentials                     
  Marius Retegan         : Local ZFS, SOC                                
  Christoph Riplinger    : Optimizer, TS searches, QM/MM, DLPNO-CCSD(T), (RO)-DLPNO pert. Triples 
  Michael Roemelt        : Original ROCIS implementation                 
  Masaaki Saitow         : Open-shell DLPNO-CCSD energy and density      
  Barbara Sandhoefer     : DKH picture change effects                    
  Kantharuban Sivalingam : CASSCF convergence/infrastructure, NEVPT2 and variants, FIC-MRCI 
  Bernardo de Souza      : ESD, SOC TD-DFT                               
  Georgi L. Stoychev     : AutoAux, RI-MP2 NMR, DLPNO-MP2 response, X2C  
  Van Anh Tran           : RI-MP2 g-tensors                              
  Willem Van den Heuvel  : Paramagnetic NMR                              
  Zikuan Wang            : NOTCH, Electric field optimization            
  Frank Wennmohs         : Technical directorship and infrastructure     
  Hang Xu                : AUTO-CI-Response properties                   
                                                                         
[FACCTs GmbH]                                                            
  Markus Bursch, Miquel Garcia-Rates, Christoph Riplinger, Bernardo de Souza, Georgi L. Stoychev 
                                                                 
  APM, Basis sets (HGBS, AHGBS, def-TZVP (Ac-Lr), def2-XVPD (La-Lu)), CI-OPT, improved COSX, DLPNO-Multilevel,           
  DOCKER, DRACO, updates on ESD, GOAT, IRC, LR-CPCM, MBIS, meta-GGA TD-DFT gradient, ML-optimized integration grids, 
  MM, NACMEs, nearIR, NEB, NEB-TS, NL-DFT gradient (VV10), 2- and 3-layer-ONIOM, interface openCOSMO-RS, QMMM,   
  Crystal-QMMM, SF, symmetry and pop. for TD-DFT, r2SCAN hybrids, SOLVATOR                                   
                                                                         
[Other institutions]                                                     
  V. Asgeirsson          : NEB                                           
  Christoph Bannwarth    : sTDA-DFT, sTD-DFT, PBEh-3c, B97-3c, D3        
  Sebastian Ehlert       : rSCAN, r2SCAN, r2SCAN-3c, D4, dhf basis sets  
  Marvin Friede          : D4 for Fr, Ra, Ac-Lr                          
  Lars Goerigk           : TD-DFT with DH, B97 family of functionals     
  Stefan Grimme          : VdW corrections, initial TS optimization, DFT functionals, gCP, sTDA/sTD-DF 
  Waldemar Hujo          : DFT-NL                                        
  H. Jonsson             : NEB                                           
  Holger Kruse           : gCP                                           
  Marcel Mueller         : wB97X-3c, vDZP basis set                      
  Hagen Neugebauer       : wr2SCAN                                       
  Tobias Risthaus        : range-separated hybrid DFT                    
  Lukas Wittmann         : regularized MP2, r2SCAN double-hybrids, wr2SCAN        
                                                                         
We gratefully acknowledge several colleagues who have allowed us to      
interface, adapt or use parts of their codes:                            
  Ed Valeev, F. Pavosevic, A. Kumar             : LibInt (2-el integral package), F12 methods 
  Garnet Chan, S. Sharma, J. Yang, R. Olivares  : DMRG                   
  Ulf Ekstrom                                   : XCFun DFT Library      
  Mihaly Kallay                                 : mrcc  (arbitrary order and MRCC methods)
  Frank Weinhold                                : gennbo (NPA and NBO analysis)           
  Simon Mueller                                 : openCOSMO-RS                            
  Christopher J. Cramer and Donald G. Truhlar   : smd solvation model                     
  S Lehtola, MJT Oliveira, MAL Marques          : LibXC Library                           
  Liviu Ungur et al                             : ANISO software                          


 Your calculation uses the libint2 library for the computation of 2-el integrals
 For citations please refer to: http://libint.valeyev.net

 Your ORCA version has been built with support for libXC version: 6.2.2
 For citations please refer to: https://libxc.gitlab.io

 This ORCA versions uses:
   CBLAS   interface :  Fast vector & matrix operations
   LAPACKE interface :  Fast linear algebra routines
   SCALAPACK package :  Parallel linear algebra routines
   Shared memory     :  Shared parallel matrices
   BLAS/LAPACK       :  OpenBLAS 0.3.27  USE64BITINT DYNAMIC_ARCH NO_AFFINITY SkylakeX SINGLE_THREADED
        Core in use  :  SkylakeX
   Copyright (c) 2011-2014, The OpenBLAS Project


NOTE: MaxCore=5000 MB was set to SCF,MP2,MDCI,CIPSI,MRCI and CIS
      => If you want to overwrite this, your respective input block should be placed after the MaxCore statement
Your calculation utilizes the atom-pairwise dispersion correction
based on EEQ partial charges (D4)


Warning: RI is on but no J-basis has been assigned. Assigning Def2/J (nothing to worry about!)
================================================================================

----- Orbital basis set information -----
Your calculation utilizes the basis: def2-TZVP
   F. Weigend and R. Ahlrichs, Phys. Chem. Chem. Phys. 7, 3297 (2005).

----- AuxJ basis set information -----
Your calculation utilizes the auxiliary basis: def2/J
   F. Weigend, Phys. Chem. Chem. Phys. 8, 1057 (2006).

================================================================================
                                        WARNINGS
                       Please study these warnings very carefully!
================================================================================


================================================================================
                                       INPUT FILE
================================================================================
NAME = input.inp
|  1> ! SP B3LYP D4 def2-TZVP TightSCF CPCM(water)
|  2> 
|  3> %maxcore 5000
|  4> 
|  5> %pal
|  6> nprocs 30
|  7> end
|  8> 
|  9> %geom
| 10>     MaxIter 500
| 11> end
| 12> 
| 13> * xyz 0 1
| 14> H            1.27895744065181        0.33052433173812        0.19358274067616
| 15> C            0.24416947531218        0.12812386615980       -0.08139352067257
| 16> H            0.19085586519226        1.31585089551781       -1.82020152406558
| 17> H            0.19864210245566       -0.78907131268325       -0.66451843766238
| 18> N           -0.27971220649683        1.22605017907273       -0.90233256373909
| 19> H           -0.55282872376367       -1.04912985978062        1.54354523220270
| 20> C           -0.61237496712630       -0.02889236781897        1.16929722608787
| 21> O           -1.15835471262843        1.29385695688837        3.07049182570751
| 22> C           -0.21292032234435        0.81792652630500        2.36759002252790
| 23> H           -0.17577531460865        2.12855394356338       -0.41021605872604
| 24> O            0.98788364067758        0.98287715688744        2.65711413579978
| 25> H           -1.29619759093124        1.09554858883135       -1.08247905909489
| 26> H           -1.65910437428983        0.16370424567969        0.94150582891150
| 27> *
| 28> 
| 29>                          ****END OF INPUT****
================================================================================

                       ****************************
                       * Single Point Calculation *
                       ****************************

---------------------------------
CARTESIAN COORDINATES (ANGSTROEM)
---------------------------------
  H      1.278957    0.330524    0.193583
  C      0.244169    0.128124   -0.081394
  H      0.190856    1.315851   -1.820202
  H      0.198642   -0.789071   -0.664518
  N     -0.279712    1.226050   -0.902333
  H     -0.552829   -1.049130    1.543545
  C     -0.612375   -0.028892    1.169297
  O     -1.158355    1.293857    3.070492
  C     -0.212920    0.817927    2.367590
  H     -0.175775    2.128554   -0.410216
  O      0.987884    0.982877    2.657114
  H     -1.296198    1.095549   -1.082479
  H     -1.659104    0.163704    0.941506

----------------------------
CARTESIAN COORDINATES (A.U.)
----------------------------
  NO LB      ZA    FRAG     MASS         X           Y           Z
   0 H     1.0000    0     1.008    2.416879    0.624600    0.365818
   1 C     6.0000    0    12.011    0.461413    0.242119   -0.153811
   2 H     1.0000    0     1.008    0.360665    2.486598   -3.439682
   3 H     1.0000    0     1.008    0.375379   -1.491129   -1.255758
   4 N     7.0000    0    14.007   -0.528579    2.316899   -1.705161
   5 H     1.0000    0     1.008   -1.044695   -1.982568    2.916878
   6 C     6.0000    0    12.011   -1.157221   -0.054599    2.209652
   7 O     8.0000    0    15.999   -2.188973    2.445035    5.802389
   8 C     6.0000    0    12.011   -0.402361    1.545657    4.474097
   9 H     1.0000    0     1.008   -0.332167    4.022384   -0.775196
  10 O     8.0000    0    15.999    1.866830    1.857369    5.021218
  11 H     1.0000    0     1.008   -2.449458    2.070287   -2.045589
  12 H     1.0000    0     1.008   -3.135253    0.309356    1.779188

--------------------------------
INTERNAL COORDINATES (ANGSTROEM)
--------------------------------
 H      0   0   0     0.000000000000     0.00000000     0.00000000
 C      1   0   0     1.089662344941     0.00000000     0.00000000
 H      2   1   0     2.106416651557    97.33154663     0.00000000
 H      2   1   3     1.087820944175   109.36760160    94.54711110
 N      3   2   1     1.035365591034    39.71740442   239.44782179
 H      2   1   3     2.159064245261   105.18338561   185.49787192
 C      6   2   1     1.088343633777    41.43183297   104.59966350
 O      7   6   2     2.379558901170   105.00520840   205.47395435
 C      8   7   6     1.270601001889    34.82131636    91.13591279
 H      5   3   2     1.033196291574   107.50380833   122.58086765
 O      9   8   7     1.246179393308   122.60779137   182.64330036
 H      5   3   2     1.040541186889   107.54078324   237.34639756
 H      7   6   2     1.088404716996   106.88583872   120.22828205

---------------------------
INTERNAL COORDINATES (A.U.)
---------------------------
 H      0   0   0     0.000000000000     0.00000000     0.00000000
 C      1   0   0     2.059163410386     0.00000000     0.00000000
 H      2   1   0     3.980550595374    97.33154663     0.00000000
 H      2   1   3     2.055683667235   109.36760160    94.54711110
 N      3   2   1     1.956557415541    39.71740442   239.44782179
 H      2   1   3     4.080040129086   105.18338561   185.49787192
 C      6   2   1     2.056671407436    41.43183297   104.59966350
 O      7   6   2     4.496714642745   105.00520840   205.47395435
 C      8   7   6     2.401087919055    34.82131636    91.13591279
 H      5   3   2     1.952458033657   107.50380833   122.58086765
 O      9   8   7     2.354937767088   122.60779137   182.64330036
 H      5   3   2     1.966337874286   107.54078324   237.34639756
 H      7   6   2     2.056786837991   106.88583872   120.22828205

---------------------
BASIS SET INFORMATION
---------------------
There are 4 groups of distinct atoms

 Group   1 Type H   : 5s1p contracted to 3s1p pattern {311/1}
 Group   2 Type C   : 11s6p2d1f contracted to 5s3p2d1f pattern {62111/411/11/1}
 Group   3 Type N   : 11s6p2d1f contracted to 5s3p2d1f pattern {62111/411/11/1}
 Group   4 Type O   : 11s6p2d1f contracted to 5s3p2d1f pattern {62111/411/11/1}

Atom   0H    basis set group =>   1
Atom   1C    basis set group =>   2
Atom   2H    basis set group =>   1
Atom   3H    basis set group =>   1
Atom   4N    basis set group =>   3
Atom   5H    basis set group =>   1
Atom   6C    basis set group =>   2
Atom   7O    basis set group =>   4
Atom   8C    basis set group =>   2
Atom   9H    basis set group =>   1
Atom  10O    basis set group =>   4
Atom  11H    basis set group =>   1
Atom  12H    basis set group =>   1
---------------------------------
AUXILIARY/J BASIS SET INFORMATION
---------------------------------
There are 4 groups of distinct atoms

 Group   1 Type H   : 5s2p1d contracted to 3s1p1d pattern {311/2/1}
 Group   2 Type C   : 12s5p4d2f1g contracted to 6s4p3d1f1g pattern {711111/2111/211/2/1}
 Group   3 Type N   : 12s5p4d2f1g contracted to 6s4p3d1f1g pattern {711111/2111/211/2/1}
 Group   4 Type O   : 12s5p4d2f1g contracted to 6s4p3d1f1g pattern {711111/2111/211/2/1}

Atom   0H    basis set group =>   1
Atom   1C    basis set group =>   2
Atom   2H    basis set group =>   1
Atom   3H    basis set group =>   1
Atom   4N    basis set group =>   3
Atom   5H    basis set group =>   1
Atom   6C    basis set group =>   2
Atom   7O    basis set group =>   4
Atom   8C    basis set group =>   2
Atom   9H    basis set group =>   1
Atom  10O    basis set group =>   4
Atom  11H    basis set group =>   1
Atom  12H    basis set group =>   1
--------------------------------------------------------------------------
By default, for Open MPI 4.0 and later, infiniband ports on a device
are not used by default.  The intent is to use UCX for these devices.
You can override this policy by setting the btl_openib_allow_ib MCA parameter
to true.

  Local host:              psid06
  Local adapter:           mlx4_0
  Local port:              1

--------------------------------------------------------------------------
--------------------------------------------------------------------------
WARNING: There was an error initializing an OpenFabrics device.

  Local host:   psid06
  Local device: mlx4_0
--------------------------------------------------------------------------


           ************************************************************
           *        Program running with 30 parallel MPI-processes    *
           *              working on a common directory               *
           ************************************************************
------------------------------------------------------------------------------
                             ORCA STARTUP CALCULATIONS
                           -- RI-GTO INTEGRALS CHOSEN --
------------------------------------------------------------------------------
------------------------------------------------------------------------------
                   ___                                                        
                  /   \      - P O W E R E D   B Y -                         
                 /     \                                                     
                 |  |  |   _    _      __       _____    __    __             
                 |  |  |  | |  | |    /  \     |  _  \  |  |  /  |          
                  \  \/   | |  | |   /    \    | | | |  |  | /  /          
                 / \  \   | |__| |  /  /\  \   | |_| |  |  |/  /          
                |  |  |   |  __  | /  /__\  \  |    /   |      \           
                |  |  |   | |  | | |   __   |  |    \   |  |\   \          
                \     /   | |  | | |  |  |  |  | |\  \  |  | \   \       
                 \___/    |_|  |_| |__|  |__|  |_| \__\ |__|  \__/        
                                                                              
                      - O R C A' S   B I G   F R I E N D -                    
                                      &                                       
                       - I N T E G R A L  F E E D E R -                       
                                                                              
 v1 FN, 2020, v2 2021, v3 2022-2024                                           
------------------------------------------------------------------------------


----------------------
SHARK INTEGRAL PACKAGE
----------------------

Number of atoms                             ...     13
Number of basis functions                   ...    228
Number of shells                            ...     94
Maximum angular momentum                    ...      3
Integral batch strategy                     ... SHARK/LIBINT Hybrid
RI-J (if used) integral strategy            ... SPLIT-RIJ (Revised 2003 algorithm where possible)
Printlevel                                  ...      1
Contraction scheme used                     ... SEGMENTED contraction
Prescreening option                         ... SCHWARTZ
   Thresh                                   ... 2.500e-11
   Tcut                                     ... 2.500e-12
   Tpresel                                  ... 2.500e-12 
Coulomb Range Separation                    ... NOT USED
Exchange Range Separation                   ... NOT USED
Multipole approximations                    ... NOT USED
Finite Nucleus Model                        ... NOT USED
CABS basis                                  ... NOT available
Auxiliary Coulomb fitting basis             ... AVAILABLE
   # of basis functions in Aux-J            ...    371
   # of shells in Aux-J                     ...    125
   Maximum angular momentum in Aux-J        ...      4
Auxiliary J/K fitting basis                 ... NOT available
Auxiliary Correlation fitting basis         ... NOT available
Auxiliary 'external' fitting basis          ... NOT available

Checking pre-screening integrals            ... done (  0.0 sec) Dimension = 94
Check shell pair data                       ... done (  0.0 sec)
Shell pair information
Shell pair cut-off parameter TPreSel        ...   2.5e-12
Total number of shell pairs                 ...      4465
Shell pairs after pre-screening             ...      4183
Total number of primitive shell pairs       ...     13356
Primitive shell pairs kept                  ...      9714
          la=0 lb=0:   1213 shell pairs
          la=1 lb=0:   1208 shell pairs
          la=1 lb=1:    318 shell pairs
          la=2 lb=0:    568 shell pairs
          la=2 lb=1:    288 shell pairs
          la=2 lb=2:     75 shell pairs
          la=3 lb=0:    282 shell pairs
          la=3 lb=1:    143 shell pairs
          la=3 lb=2:     68 shell pairs
          la=3 lb=3:     20 shell pairs

Calculating one electron integrals          ... done (  0.0 sec)
Calculating RI/J V-Matrix + Cholesky decomp.... done (  0.0 sec)
Calculating Nuclear repulsion               ... done (  0.0 sec) ENN=    242.514709262261 Eh

Diagonalization of the overlap matrix:
Smallest eigenvalue                        ... 2.736e-04
Time for diagonalization                   ...    0.005 sec
Threshold for overlap eigenvalues          ... 1.000e-07
Number of eigenvalues below threshold      ... 0
Time for construction of square roots      ...    0.003 sec
Total time needed                          ...    0.014 sec

-------------------
DFT GRID GENERATION
-------------------

General Integration Accuracy     IntAcc      ... 4.388
Radial Grid Type                 RadialGrid  ... OptM3 with GC (2021)
Angular Grid (max. ang.)         AngularGrid ... 4 (Lebedev-302)
Angular grid pruning method      GridPruning ... 4 (adaptive)
Weight generation scheme         WeightScheme... mBecke (2022)
Basis function cutoff            BFCut       ... 1.0000e-11
Integration weight cutoff        WCut        ... 1.0000e-14
Partially contracted basis set               ... off
Rotationally invariant grid construction     ... off
Angular grids for H and He will be reduced by one unit

Total number of grid points                  ...    58884
Total number of batches                      ...      926
Average number of points per batch           ...       63
Average number of grid points per atom       ...     4530

--------------------
COSX GRID GENERATION
--------------------

GRIDX 1
-------
General Integration Accuracy     IntAcc      ... 3.816
Radial Grid Type                 RadialGrid  ... OptM3 with GC (2021)
Angular Grid (max. ang.)         AngularGrid ... 1 (Lebedev-50)
Angular grid pruning method      GridPruning ... 4 (adaptive)
Weight generation scheme         WeightScheme... mBecke (2022)
Basis function cutoff            BFCut       ... 1.0000e-11
Integration weight cutoff        WCut        ... 1.0000e-14
Partially contracted basis set               ... on
Rotationally invariant grid construction     ... off
Angular grids for H and He will be reduced by one unit

Total number of grid points                  ...     7547
Total number of batches                      ...       67
Average number of points per batch           ...      112
Average number of grid points per atom       ...      581
UseSFitting                                  ... on

GRIDX 2
-------
General Integration Accuracy     IntAcc      ... 4.020
Radial Grid Type                 RadialGrid  ... OptM3 with GC (2021)
Angular Grid (max. ang.)         AngularGrid ... 2 (Lebedev-110)
Angular grid pruning method      GridPruning ... 4 (adaptive)
Weight generation scheme         WeightScheme... mBecke (2022)
Basis function cutoff            BFCut       ... 1.0000e-11
Integration weight cutoff        WCut        ... 1.0000e-14
Partially contracted basis set               ... on
Rotationally invariant grid construction     ... off
Angular grids for H and He will be reduced by one unit

Total number of grid points                  ...    16297
Total number of batches                      ...      134
Average number of points per batch           ...      121
Average number of grid points per atom       ...     1254
UseSFitting                                  ... on

GRIDX 3
-------
General Integration Accuracy     IntAcc      ... 4.338
Radial Grid Type                 RadialGrid  ... OptM3 with GC (2021)
Angular Grid (max. ang.)         AngularGrid ... 3 (Lebedev-194)
Angular grid pruning method      GridPruning ... 4 (adaptive)
Weight generation scheme         WeightScheme... mBecke (2022)
Basis function cutoff            BFCut       ... 1.0000e-11
Integration weight cutoff        WCut        ... 1.0000e-14
Partially contracted basis set               ... on
Rotationally invariant grid construction     ... off
Angular grids for H and He will be reduced by one unit

Total number of grid points                  ...    35831
Total number of batches                      ...      289
Average number of points per batch           ...      123
Average number of grid points per atom       ...     2756
UseSFitting                                  ... on
Initializing property integral containers    ... done (  0.0 sec)

SHARK setup successfully completed in   0.7 seconds

Maximum memory used throughout the entire STARTUP-calculation: 19.5 MB
[psid06:111413] 29 more processes have sent help message help-mpi-btl-openib.txt / ib port not selected
[psid06:111413] Set MCA parameter "orte_base_help_aggregate" to 0 to see all help / error messages
[psid06:111413] 29 more processes have sent help message help-mpi-btl-openib.txt / error in device init
--------------------------------------------------------------------------
By default, for Open MPI 4.0 and later, infiniband ports on a device
are not used by default.  The intent is to use UCX for these devices.
You can override this policy by setting the btl_openib_allow_ib MCA parameter
to true.

  Local host:              psid06
  Local adapter:           mlx4_0
  Local port:              1

--------------------------------------------------------------------------
--------------------------------------------------------------------------
WARNING: There was an error initializing an OpenFabrics device.

  Local host:   psid06
  Local device: mlx4_0
--------------------------------------------------------------------------


           ************************************************************
           *        Program running with 30 parallel MPI-processes    *
           *              working on a common directory               *
           ************************************************************
-------------------------------------------------------------------------------
                                 ORCA GUESS
                   Start orbitals & Density for SCF / CASSCF
-------------------------------------------------------------------------------

------------
SCF SETTINGS
------------
Hamiltonian:
 Density Functional     Method          .... DFT(GTOs)
 Exchange Functional    Exchange        .... B88
   X-Alpha parameter    XAlpha          ....  0.666667
   Becke's b parameter  XBeta           ....  0.004200
 Correlation Functional Correlation     .... LYP
 LDA part of GGA corr.  LDAOpt          .... VWN-5
 Gradients option       PostSCFGGA      .... off
 Hybrid DFT is turned on
   Fraction HF Exchange ScalHFX         ....  0.200000
   Scaling of DF-GGA-X  ScalDFX         ....  0.720000
   Scaling of DF-GGA-C  ScalDFC         ....  0.810000
   Scaling of DF-LDA-C  ScalLDAC        ....  1.000000
   Perturbative correction              ....  0.000000
   NL short-range parameter             ....  4.800000
 RI-approximation to the Coulomb term is turned on
   Number of AuxJ basis functions       .... 371
   RIJ-COSX (HFX calculated with COS-X)).... on


General Settings:
 Integral files         IntName         .... input
 Hartree-Fock type      HFTyp           .... RHF
 Total Charge           Charge          ....    0
 Multiplicity           Mult            ....    1
 Number of Electrons    NEL             ....   48
 Basis Dimension        Dim             ....  228
 Nuclear Repulsion      ENuc            ....    242.5147092623 Eh

Convergence Acceleration:
 AO-DIIS                CNVDIIS         .... on
   Start iteration      DIISMaxIt       ....    12
   Startup error        DIISStart       ....  0.200000
   # of expansion vecs  DIISMaxEq       ....     5
   Bias factor          DIISBfac        ....   1.050
   Max. coefficient     DIISMaxC        ....  10.000
 MO-DIIS                CNVKDIIS        .... off
 Trust-Rad. Augm. Hess. CNVTRAH         .... auto
   Auto Start mean grad. ratio tolernc. ....  1.125000
   Auto Start start iteration           ....    50
   Auto Start num. interpolation iter.  ....    10
   Max. Number of Micro iterations      ....    24
   Max. Number of Macro iterations      .... Maxiter - #DIIS iter
   Number of Davidson start vectors     ....     2
   Converg. threshold    (grad. norm)   ....   1.000e-05
   Grad. Scal. Fac. for Micro threshold ....   0.100
   Minimum threshold for Micro iter.    ....   1.000e-02
   NR start threshold (gradient norm)   ....   1.000e-04
   Initial trust radius                 ....   0.400
   Minimum AH scaling param. (alpha)    ....   1.000
   Maximum AH scaling param. (alpha)    .... 1000.000
   Quad. conv. algorithm                .... NR
   White noise on init. David. guess    .... on
   Maximum white noise                  ....   0.010
   Pseudo random numbers                .... off
   Inactive MOs                         .... canonical
   Orbital update algorithm             .... Taylor
   Preconditioner                       .... Diag
   Full preconditioner red. dimension   ....   250
 SOSCF                  CNVSOSCF        .... on
   Start iteration      SOSCFMaxIt      ....   150
   Startup grad/error   SOSCFStart      ....  0.003300
   Hessian update       SOSCFHessUp     .... L-BFGS
 Level Shifting         CNVShift        .... on
   Level shift para.    LevelShift      ....    0.2500
   Turn off err/grad.   ShiftErr        ....    0.0010
 Zerner damping         CNVZerner       .... off
 Static damping         CNVDamp         .... on
   Fraction old density DampFac         ....    0.7000
   Max. Damping (<1)    DampMax         ....    0.9800
   Min. Damping (>=0)   DampMin         ....    0.0000
   Turn off err/grad.   DampErr         ....    0.1000

SCF Procedure:
 Maximum # iterations   MaxIter         ....   125
 SCF integral mode      SCFMode         .... Direct
   Integral package                     .... SHARK and LIBINT hybrid scheme
 Reset frequency        DirectResetFreq ....    20
 Integral Threshold     Thresh          ....  2.500e-11 Eh
 Primitive CutOff       TCut            ....  2.500e-12 Eh

Convergence Tolerance:
 Convergence Check Mode ConvCheckMode   .... Total+1el-Energy
 Convergence forced     ConvForced      .... 0
 Energy Change          TolE            ....  1.000e-08 Eh
 1-El. energy change                    ....  1.000e-05 Eh
 Orbital Gradient       TolG            ....  1.000e-05
 Orbital Rotation angle TolX            ....  1.000e-05
 DIIS Error             TolErr          ....  5.000e-07

------------------------------
INITIAL GUESS: MODEL POTENTIAL
------------------------------
Loading Hartree-Fock densities                     ... done
Calculating cut-offs                               ... done
Initializing the effective Hamiltonian             ... done
Setting up the integral package (SHARK)            ... done
Starting the Coulomb interaction                   ... done (   0.0 sec)
Making the grid                                    ... done (   0.1 sec)
Mapping shells                                     ... done
Starting the XC term evaluation                    ... done (   0.0 sec)
  promolecular density results
     # of electrons  =     47.997562182
     EX              =    -40.474559184
     EC              =     -1.634190746
     EX+EC           =    -42.108749930
Transforming the Hamiltonian                       ... done (   0.0 sec)
Diagonalizing the Hamiltonian                      ... done (   0.0 sec)
Back transforming the eigenvectors                 ... done (   0.0 sec)
Now organizing SCF variables                       ... done
                      ------------------
                      INITIAL GUESS DONE (   0.2 sec)
                      ------------------
             **** ENERGY FILE WAS UPDATED (input.en.tmp) ****
Finished Guess after   1.0 sec
Maximum memory used throughout the entire GUESS-calculation: 12.7 MB
[psid06:111515] 29 more processes have sent help message help-mpi-btl-openib.txt / ib port not selected
[psid06:111515] Set MCA parameter "orte_base_help_aggregate" to 0 to see all help / error messages
[psid06:111515] 29 more processes have sent help message help-mpi-btl-openib.txt / error in device init
--------------------------------------------------------------------------
By default, for Open MPI 4.0 and later, infiniband ports on a device
are not used by default.  The intent is to use UCX for these devices.
You can override this policy by setting the btl_openib_allow_ib MCA parameter
to true.

  Local host:              psid06
  Local adapter:           mlx4_0
  Local port:              1

--------------------------------------------------------------------------
--------------------------------------------------------------------------
WARNING: There was an error initializing an OpenFabrics device.

  Local host:   psid06
  Local device: mlx4_0
--------------------------------------------------------------------------


           ************************************************************
           *        Program running with 30 parallel MPI-processes    *
           *              working on a common directory               *
           ************************************************************

-------------------------------------------------------------------------------------------
                                      ORCA LEAN-SCF
                              memory conserving SCF solver
-------------------------------------------------------------------------------------------

--------------------
CPCM SOLVATION MODEL
--------------------
CPCM parameters:
  Epsilon                                         ...      80.1510
  Refrac                                          ...       1.3328
  Rsolv                                           ...       1.3000
  Surface type                                    ... GAUSSIAN VDW
  Discretization scheme                           ... Constant charge density
    Threshold for H atoms                         ...       5.0000 (charges/Ang^2)
    Threshold for non-H atoms                     ...       5.0000 (charges/Ang^2)
  Epsilon function type                           ...         CPCM
Solvent:                                          ... WATER
Radii:
  Scheme                                          ... Element-dependent radii
  Radius for H  used is    2.4944 Bohr (=   1.3200 Ang.)
  Radius for C  used is    3.8550 Bohr (=   2.0400 Ang.)
  Radius for N  used is    3.5149 Bohr (=   1.8600 Ang.)
  Radius for O  used is    3.4469 Bohr (=   1.8240 Ang.)
Calculating surface                               ...        done! (  0.0s)
Cavity surface points                             ...         1155
Cavity Volume                                     ...     767.8392
Cavity Surface-area                               ...     477.9543
Calculating surface distance matrix               ...        done! (  0.0s)
Performing Cholesky decomposition & store         ...        done! (  0.0s)
Overall time for CPCM initialization              ...                 0.0s

----------------------------------------D-I-I-S--------------------------------------------
Iteration    Energy (Eh)           Delta-E    RMSDP     MaxDP     DIISErr   Damp  Time(sec)
-------------------------------------------------------------------------------------------
               ***  Starting incremental Fock matrix formation  ***
    1    -323.4267660681624079     0.00e+00  4.51e-03  3.92e-01  3.40e-01  0.700   0.5
    2    -323.5685131980182518    -1.42e-01  4.25e-03  4.09e-01  1.41e-01  0.700   0.4
                               ***Turning on AO-DIIS***
    3    -323.6172659797569509    -4.88e-02  1.46e-03  1.24e-01  3.58e-02  0.700   0.5
    4    -323.6479927835023886    -3.07e-02  1.22e-03  4.98e-02  1.52e-02  0.000   0.5
    5    -323.7180514063853138    -7.01e-02  1.10e-03  1.13e-01  8.15e-03  0.000   0.4
                              *** Initializing SOSCF ***
---------------------------------------S-O-S-C-F--------------------------------------
Iteration    Energy (Eh)           Delta-E    RMSDP     MaxDP     MaxGrad    Time(sec)
--------------------------------------------------------------------------------------
    6    -323.7184130763629923    -3.62e-04  4.03e-04  4.08e-02  1.62e-03     0.5
               *** Restarting incremental Fock matrix formation ***
    7    -323.7184442749698405    -3.12e-05  2.57e-04  2.53e-02  3.40e-04     0.5
    8    -323.7184462628254664    -1.99e-06  7.15e-05  6.40e-03  2.32e-04     0.4
    9    -323.7184473988918967    -1.14e-06  6.95e-05  6.73e-03  1.59e-04     0.5
   10    -323.7184476727344986    -2.74e-07  1.21e-05  9.78e-04  7.96e-05     0.4
[psid06:111611] 29 more processes have sent help message help-mpi-btl-openib.txt / ib port not selected
[psid06:111611] Set MCA parameter "orte_base_help_aggregate" to 0 to see all help / error messages
[psid06:111611] 29 more processes have sent help message help-mpi-btl-openib.txt / error in device init
   11    -323.7184478745312504    -2.02e-07  2.34e-05  2.29e-03  3.79e-05     0.4
   12    -323.7184478974178887    -2.29e-08  3.19e-06  3.05e-04  2.61e-05     0.4
   13    -323.7184479095367919    -1.21e-08  5.35e-06  5.10e-04  9.31e-06     0.4
   14    -323.7184479118801050    -2.34e-09  1.85e-06  1.82e-04  2.34e-06     0.4
                 **** Energy Check signals convergence ****

               *****************************************************
               *                     SUCCESS                       *
               *           SCF CONVERGED AFTER  14 CYCLES          *
               *****************************************************

Recomputing exchange energy using gridx3       ... done (    0.340 sec)
Old exchange energy                            :     -8.224513846 Eh
New exchange energy                            :     -8.224529495 Eh
Exchange energy change after final integration :     -0.000015649 Eh
Total energy after final integration           :   -323.718463561 Eh
             **** ENERGY FILE WAS UPDATED (input.en.tmp) ****

----------------
TOTAL SCF ENERGY
----------------

Total Energy       :       -323.71846356130555 Eh           -8808.82723 eV

Components:
Nuclear Repulsion  :        242.51470926226074 Eh            6599.16073 eV
Electronic Energy  :       -566.12431307259840 Eh          -15405.02574 eV
One Electron Energy:       -922.09928254651572 Eh          -25091.59711 eV
Two Electron Energy:        355.97496947391733 Eh            9686.57138 eV
CPCM Dielectric    :         -0.10884410154247 Eh              -2.96180 eV

Virial components:
Potential Energy   :       -646.00379528273470 Eh          -17578.65695 eV
Kinetic Energy     :        322.28533172142915 Eh            8769.82973 eV
Virial Ratio       :          2.00444677960434

DFT components:
N(Alpha)           :       23.999991994415 electrons
N(Beta)            :       23.999991994415 electrons
N(Total)           :       47.999983988831 electrons
E(X)               :      -32.720409707420 Eh       
E(C)               :       -1.933628593847 Eh       
E(XC)              :      -34.654038301266 Eh       

CPCM Solvation Model Properties:
Surface-charge          :         -0.01851110098094
Corrected charge        :          0.00000000000000
Outlying charge corr.   :          0.00002834496072 Eh               0.00077 eV
Free-energy (cav+disp)  :  This term is not implemented in the current solvation scheme

---------------
SCF CONVERGENCE
---------------

  Last Energy change         ...    2.3433e-09  Tolerance :   1.0000e-08
  Last MAX-Density change    ...    1.8195e-04  Tolerance :   1.0000e-07
  Last RMS-Density change    ...    1.8496e-06  Tolerance :   5.0000e-09
  Last DIIS Error            ...    1.6185e-03  Tolerance :   5.0000e-07
  Last Orbital Gradient      ...    2.3436e-06  Tolerance :   1.0000e-05
  Last Orbital Rotation      ...    6.5926e-06  Tolerance :   1.0000e-05


----------------
ORBITAL ENERGIES
----------------

  NO   OCC          E(Eh)            E(eV) 
   0   2.0000     -19.055617      -518.5297 
   1   2.0000     -19.048381      -518.3328 
   2   2.0000     -14.431190      -392.6926 
   3   2.0000     -10.243311      -278.7347 
   4   2.0000     -10.223301      -278.1902 
   5   2.0000     -10.168469      -276.6981 
   6   2.0000      -1.017019       -27.6745 
   7   2.0000      -0.997671       -27.1480 
   8   2.0000      -0.919079       -25.0094 
   9   2.0000      -0.773551       -21.0494 
  10   2.0000      -0.660931       -17.9848 
  11   2.0000      -0.578635       -15.7455 
  12   2.0000      -0.573489       -15.6054 
  13   2.0000      -0.507604       -13.8126 
  14   2.0000      -0.486731       -13.2446 
  15   2.0000      -0.439858       -11.9691 
  16   2.0000      -0.427041       -11.6204 
  17   2.0000      -0.411378       -11.1942 
  18   2.0000      -0.385548       -10.4913 
  19   2.0000      -0.366405        -9.9704 
  20   2.0000      -0.352069        -9.5803 
  21   2.0000      -0.245259        -6.6738 
  22   2.0000      -0.241544        -6.5727 
  23   2.0000      -0.221579        -6.0295 
  24   0.0000       0.013099         0.3564 
  25   0.0000       0.051022         1.3884 
  26   0.0000       0.067112         1.8262 
  27   0.0000       0.071933         1.9574 
  28   0.0000       0.078678         2.1409 
  29   0.0000       0.099598         2.7102 
  30   0.0000       0.116353         3.1661 
  31   0.0000       0.131165         3.5692 
  32   0.0000       0.149415         4.0658 
  33   0.0000       0.163343         4.4448 
  34   0.0000       0.182892         4.9767 
*Only the first 10 virtual orbitals were printed.

                    ********************************
                    * MULLIKEN POPULATION ANALYSIS *
                    ********************************

-----------------------
MULLIKEN ATOMIC CHARGES
-----------------------
   0 H :    0.138900
   1 C :   -0.093884
   2 H :    0.338636
   3 H :    0.157302
   4 N :   -0.272790
   5 H :    0.128617
   6 C :   -0.209422
   7 O :   -0.598131
   8 C :    0.194804
   9 H :    0.332257
  10 O :   -0.549759
  11 H :    0.334302
  12 H :    0.099166
Sum of atomic charges:   -0.0000000

--------------------------------
MULLIKEN REDUCED ORBITAL CHARGES
--------------------------------
  0 H s       :     0.838923  s :     0.838923
      pz      :     0.005173  p :     0.022177
      px      :     0.013463
      py      :     0.003542

  1 C s       :     3.225883  s :     3.225883
      pz      :     0.906541  p :     2.763078
      px      :     0.989322
      py      :     0.867215
      dz2     :     0.020547  d :     0.096647
      dxz     :     0.012352
      dyz     :     0.029253
      dx2y2   :     0.024464
      dxy     :     0.010031
      f0      :     0.001155  f :     0.008275
      f+1     :     0.000749
      f-1     :     0.001271
      f+2     :     0.001932
      f-2     :     0.001543
      f+3     :     0.000791
      f-3     :     0.000834

  2 H s       :     0.629126  s :     0.629126
      pz      :     0.017716  p :     0.032238
      px      :     0.008619
      py      :     0.005903

  3 H s       :     0.821047  s :     0.821047
      pz      :     0.006326  p :     0.021651
      px      :     0.004235
      py      :     0.011090

  4 N s       :     3.449499  s :     3.449499
      pz      :     1.261616  p :     3.774352
      px      :     1.270451
      py      :     1.242285
      dz2     :     0.011731  d :     0.046649
      dxz     :     0.007092
      dyz     :     0.008167
      dx2y2   :     0.015531
      dxy     :     0.004127
      f0      :     0.000195  f :     0.002289
      f+1     :     0.000428
      f-1     :     0.000297
      f+2     :     0.000603
      f-2     :     0.000179
      f+3     :     0.000321
      f-3     :     0.000266

  5 H s       :     0.848908  s :     0.848908
      pz      :     0.005559  p :     0.022476
      px      :     0.004492
      py      :     0.012424

  6 C s       :     3.192792  s :     3.192792
      pz      :     0.914748  p :     2.937583
      px      :     0.973553
      py      :     1.049282
      dz2     :     0.019940  d :     0.073184
      dxz     :     0.013951
      dyz     :     0.018820
      dx2y2   :     0.015650
      dxy     :     0.004823
      f0      :     0.000943  f :     0.005863
      f+1     :     0.001066
      f-1     :     0.000829
      f+2     :     0.001353
      f-2     :     0.000920
      f+3     :     0.000300
      f-3     :     0.000452

  7 O s       :     3.773798  s :     3.773798
      pz      :     1.621370  p :     4.797009
      px      :     1.596697
      py      :     1.578943
      dz2     :     0.004530  d :     0.025712
      dxz     :     0.007382
      dyz     :     0.003098
      dx2y2   :     0.004965
      dxy     :     0.005737
      f0      :     0.000145  f :     0.001611
      f+1     :     0.000373
      f-1     :     0.000066
      f+2     :     0.000286
      f-2     :     0.000311
      f+3     :     0.000230
      f-3     :     0.000200

  8 C s       :     3.031542  s :     3.031542
      pz      :     0.908092  p :     2.528573
      px      :     0.790195
      py      :     0.830287
      dz2     :     0.035549  d :     0.219557
      dxz     :     0.064813
      dyz     :     0.015896
      dx2y2   :     0.044092
      dxy     :     0.059208
      f0      :     0.002611  f :     0.025524
      f+1     :     0.005874
      f-1     :     0.001334
      f+2     :     0.004560
      f-2     :     0.003211
      f+3     :     0.003873
      f-3     :     0.004061

  9 H s       :     0.635161  s :     0.635161
      pz      :     0.008856  p :     0.032581
      px      :     0.006005
      py      :     0.017720

 10 O s       :     3.764443  s :     3.764443
      pz      :     1.710927  p :     4.757151
      px      :     1.416169
      py      :     1.630055
      dz2     :     0.003201  d :     0.026478
      dxz     :     0.007603
      dyz     :     0.000624
      dx2y2   :     0.007332
      dxy     :     0.007717
      f0      :     0.000180  f :     0.001686
      f+1     :     0.000307
      f-1     :     0.000027
      f+2     :     0.000308
      f-2     :     0.000084
      f+3     :     0.000344
      f-3     :     0.000436

 11 H s       :     0.633515  s :     0.633515
      pz      :     0.006241  p :     0.032183
      px      :     0.020145
      py      :     0.005797

 12 H s       :     0.878586  s :     0.878586
      pz      :     0.004389  p :     0.022248
      px      :     0.013185
      py      :     0.004674



                     *******************************
                     * LOEWDIN POPULATION ANALYSIS *
                     *******************************

----------------------
LOEWDIN ATOMIC CHARGES
----------------------
   0 H :    0.144328
   1 C :   -0.253660
   2 H :    0.232768
   3 H :    0.147207
   4 N :    0.188683
   5 H :    0.160004
   6 C :   -0.248815
   7 O :   -0.169395
   8 C :   -0.693007
   9 H :    0.232897
  10 O :   -0.120198
  11 H :    0.235233
  12 H :    0.143953

-------------------------------
LOEWDIN REDUCED ORBITAL CHARGES
-------------------------------
  0 H s       :     0.793160  s :     0.793160
      pz      :     0.014661  p :     0.062511
      px      :     0.036444
      py      :     0.011406

  1 C s       :     2.793953  s :     2.793953
      pz      :     0.990736  p :     2.975412
      px      :     1.045791
      py      :     0.938885
      dz2     :     0.080401  d :     0.431340
      dxz     :     0.072898
      dyz     :     0.127853
      dx2y2   :     0.102777
      dxy     :     0.047410
      f0      :     0.008970  f :     0.052955
      f+1     :     0.005605
      f-1     :     0.008019
      f+2     :     0.008123
      f-2     :     0.010379
      f+3     :     0.005899
      f-3     :     0.005959

  2 H s       :     0.670381  s :     0.670381
      pz      :     0.053137  p :     0.096851
      px      :     0.026751
      py      :     0.016963

  3 H s       :     0.791673  s :     0.791673
      pz      :     0.018132  p :     0.061120
      px      :     0.013243
      py      :     0.029745

  4 N s       :     2.978231  s :     2.978231
      pz      :     1.214001  p :     3.662904
      px      :     1.222081
      py      :     1.226822
      dz2     :     0.036784  d :     0.160092
      dxz     :     0.024325
      dyz     :     0.032149
      dx2y2   :     0.050520
      dxy     :     0.016314
      f0      :     0.001049  f :     0.010089
      f+1     :     0.001719
      f-1     :     0.001546
      f+2     :     0.001559
      f-2     :     0.001283
      f+3     :     0.001455
      f-3     :     0.001479

  5 H s       :     0.779014  s :     0.779014
      pz      :     0.015693  p :     0.060982
      px      :     0.013352
      py      :     0.031937

  6 C s       :     2.787155  s :     2.787155
      pz      :     1.007518  p :     3.068273
      px      :     1.020786
      py      :     1.039968
      dz2     :     0.092136  d :     0.355997
      dxz     :     0.079452
      dyz     :     0.082047
      dx2y2   :     0.080926
      dxy     :     0.021435
      f0      :     0.007331  f :     0.037390
      f+1     :     0.005937
      f-1     :     0.005714
      f+2     :     0.005408
      f-2     :     0.006944
      f+3     :     0.002605
      f-3     :     0.003451

  7 O s       :     3.441587  s :     3.441587
      pz      :     1.567784  p :     4.665075
      px      :     1.594165
      py      :     1.503127
      dz2     :     0.009156  d :     0.057731
      dxz     :     0.017301
      dyz     :     0.007897
      dx2y2   :     0.011808
      dxy     :     0.011570
      f0      :     0.000483  f :     0.005001
      f+1     :     0.000995
      f-1     :     0.000274
      f+2     :     0.000878
      f-2     :     0.001047
      f+3     :     0.000633
      f-3     :     0.000690

  8 C s       :     2.776943  s :     2.776943
      pz      :     0.923981  p :     2.743936
      px      :     0.994196
      py      :     0.825759
      dz2     :     0.172566  d :     1.009867
      dxz     :     0.282852
      dyz     :     0.091945
      dx2y2   :     0.221205
      dxy     :     0.241299
      f0      :     0.017099  f :     0.162261
      f+1     :     0.037965
      f-1     :     0.008044
      f+2     :     0.025207
      f-2     :     0.023711
      f+3     :     0.026288
      f-3     :     0.023946

  9 H s       :     0.669895  s :     0.669895
      pz      :     0.028056  p :     0.097208
      px      :     0.017584
      py      :     0.051568

 10 O s       :     3.422917  s :     3.422917
      pz      :     1.593412  p :     4.630610
      px      :     1.517087
      py      :     1.520110
      dz2     :     0.007434  d :     0.061215
      dxz     :     0.018210
      dyz     :     0.001209
      dx2y2   :     0.020189
      dxy     :     0.014172
      f0      :     0.000599  f :     0.005456
      f+1     :     0.001014
      f-1     :     0.000063
      f+2     :     0.001020
      f-2     :     0.000239
      f+3     :     0.001368
      f-3     :     0.001153

 11 H s       :     0.669396  s :     0.669396
      pz      :     0.017129  p :     0.095371
      px      :     0.061004
      py      :     0.017239

 12 H s       :     0.795700  s :     0.795700
      pz      :     0.012409  p :     0.060346
      px      :     0.033635
      py      :     0.014302



                      *****************************
                      * MAYER POPULATION ANALYSIS *
                      *****************************

  NA   - Mulliken gross atomic population
  ZA   - Total nuclear charge
  QA   - Mulliken gross atomic charge
  VA   - Mayer's total valence
  BVA  - Mayer's bonded valence
  FA   - Mayer's free valence

  ATOM       NA         ZA         QA         VA         BVA        FA
  0 H      0.8611     1.0000     0.1389     1.0108     1.0108     0.0000
  1 C      6.0939     6.0000    -0.0939     3.7575     3.7575    -0.0000
  2 H      0.6614     1.0000     0.3386     0.8827     0.8827     0.0000
  3 H      0.8427     1.0000     0.1573     0.9613     0.9613    -0.0000
  4 N      7.2728     7.0000    -0.2728     3.5370     3.5370     0.0000
  5 H      0.8714     1.0000     0.1286     0.9762     0.9762    -0.0000
  6 C      6.2094     6.0000    -0.2094     3.6184     3.6184    -0.0000
  7 O      8.5981     8.0000    -0.5981     1.8024     1.8024     0.0000
  8 C      5.8052     6.0000     0.1948     4.6298     4.6298    -0.0000
  9 H      0.6677     1.0000     0.3323     0.8893     0.8893     0.0000
 10 O      8.5498     8.0000    -0.5498     1.8384     1.8384    -0.0000
 11 H      0.6657     1.0000     0.3343     0.8885     0.8885     0.0000
 12 H      0.9008     1.0000     0.0992     1.0120     1.0120    -0.0000

  Mayer bond orders larger than 0.100000
B(  0-H ,  1-C ) :   0.9501 B(  1-C ,  3-H ) :   0.9603 B(  1-C ,  4-N ) :   0.9009 
B(  1-C ,  6-C ) :   0.9457 B(  2-H ,  4-N ) :   0.8693 B(  4-N ,  9-H ) :   0.8744 
B(  4-N , 11-H ) :   0.8696 B(  5-H ,  6-C ) :   0.9370 B(  6-C ,  8-C ) :   0.9196 
B(  6-C , 12-H ) :   0.9595 B(  7-O ,  8-C ) :   1.8295 B(  8-C , 10-O ) :   1.8476 


-------
TIMINGS
-------

Total SCF time: 0 days 0 hours 0 min 7 sec 

Total time                  ....       7.765 sec
Sum of individual times     ....       7.631 sec  ( 98.3%)

SCF preparation             ....       0.983 sec  ( 12.7%)
Fock matrix formation       ....       5.430 sec  ( 69.9%)
  Startup                   ....       0.195 sec  (  3.6% of F)
  Split-RI-J                ....       0.478 sec  (  8.8% of F)
  Chain of spheres X        ....       2.540 sec  ( 46.8% of F)
  XC integration            ....       1.374 sec  ( 25.3% of F)
    XC Preparation          ....       0.000 sec  (  0.0% of XC)
    Basis function eval.    ....       0.128 sec  (  9.3% of XC)
    Density eval.           ....       0.083 sec  (  6.1% of XC)
    XC-Functional eval.     ....       0.027 sec  (  2.0% of XC)
    XC-Potential eval.      ....       0.152 sec  ( 11.0% of XC)
  CPCM terms                ....       0.568 sec  ( 10.5% of F)
Diagonalization             ....       0.000 sec  (  0.0%)
Density matrix formation    ....       0.375 sec  (  4.8%)
Total Energy calculation    ....       0.237 sec  (  3.1%)
Population analysis         ....       0.049 sec  (  0.6%)
Orbital Transformation      ....       0.077 sec  (  1.0%)
Orbital Orthonormalization  ....       0.000 sec  (  0.0%)
DIIS solution               ....       0.283 sec  (  3.6%)
SOSCF solution              ....       0.198 sec  (  2.6%)
Finished LeanSCF after   7.8 sec

Maximum memory used throughout the entire LEANSCF-calculation: 20.9 MB


-------------------------------------------------------------------------------
                          DFT DISPERSION CORRECTION                            
                                                                               
                                DFTD4 V3.4.0                                   
-------------------------------------------------------------------------------
The B3LYP functional is recognized
Active option DFTDOPT                   ...         5   

-------------------------   ----------------
Dispersion correction           -0.013793749
-------------------------   ----------------


-------------------------   --------------------
FINAL SINGLE POINT ENERGY      -323.732257310733
-------------------------   --------------------

--------------------------------------------------------------------------
By default, for Open MPI 4.0 and later, infiniband ports on a device
are not used by default.  The intent is to use UCX for these devices.
You can override this policy by setting the btl_openib_allow_ib MCA parameter
to true.

  Local host:              psid06
  Local adapter:           mlx4_0
  Local port:              1

--------------------------------------------------------------------------
--------------------------------------------------------------------------
WARNING: There was an error initializing an OpenFabrics device.

  Local host:   psid06
  Local device: mlx4_0
--------------------------------------------------------------------------


           ************************************************************
           *        Program running with 30 parallel MPI-processes    *
           *              working on a common directory               *
           ************************************************************

------------------------------------------------------------------------------
                              ORCA PROPERTY CALCULATIONS
------------------------------------------------------------------------------

GBWName                                 ... input.gbw
Number of atoms                         ...     13
Number of basis functions               ...    228
Max core memory                         ...   5000 MB

Electric properties:
Dipole moment                           ... YES
Quadrupole moment                       ...  NO
Static polarizability (Dipole/Dipole)   ...  NO
Static polarizability (Dipole/Quad.)    ...  NO
Static polarizability (Quad./Quad.)     ...  NO
Static polarizability (Velocity)        ...  NO

Atomic electric properties:
Dipole moment                           ...  NO
Quadrupole moment                       ...  NO
Static polarizability                   ...  NO

Choice of electric origin               ... Center of mass
Position of electric origin             ...    -0.332088     1.438840     2.528114

General magnetic properties:
Magnetizability                         ...  NO

EPR properties:
g-Tensor (aka g-matrix)                 ...  NO
Zero-Field splitting spin-orbit         ...  NO
Zero-field splitting spin-spin          ...  NO
Hyperfine couplings                     ...  NO (   0 nuclei)
Quadrupole couplings                    ...  NO (   0 nuclei)
Contact density                         ...  NO (   0 nuclei)

NMR properties:
Chemical shifts                         ...  NO (   0 nuclei)
Spin-rotation constants                 ...  NO (   0 nuclei)
Spin-spin couplings                     ...  NO (   0 nuclei,    0 pairs)

Choice of magnetic origin               ... GIAO
Position of magnetic origin             ...     0.000000     0.000000     0.000000

Properties with geometric perturbations:
SCF Hessian                             ...  NO
IR spectrum                             ...  NO
VCD spectrum                            ...  NO
X-ray spectroscopy properties:
SCF XES/XAS/RIXS spectra                ...  NO


-------------
DIPOLE MOMENT
-------------

Method             : SCF
Type of density    : Electron Density
Multiplicity       :   1
Irrep              :   0
Energy             :  -323.7184635613055548 Eh
Relativity type    : 
Basis              : AO
                                X                 Y                 Z
Electronic contribution:      0.289819324       1.587625700       2.651463939
Nuclear contribution   :     -0.734662927      -1.988198596      -9.971465275
                        -----------------------------------------
Total Dipole Moment    :     -0.444843603      -0.400572896      -7.320001337
                        -----------------------------------------
Magnitude (a.u.)       :      7.344437626
Magnitude (Debye)      :     18.668076869



--------------------
Rotational spectrum 
--------------------
 
Rotational constants in cm-1:             0.224119             0.071099             0.065398 
Rotational constants in MHz :          6718.915903          2131.483966          1960.581024 

Dipole components along the rotational axes: 
x,y,z [a.u.] :    -7.300726     0.785817    -0.150505 
x,y,z [Debye]:   -18.556971     1.997388    -0.382553 

 

Dipole moment calculation done in   0.0 sec 

Maximum memory used throughout the entire PROP-calculation: 10.2 MB
[psid06:111793] 29 more processes have sent help message help-mpi-btl-openib.txt / ib port not selected
[psid06:111793] Set MCA parameter "orte_base_help_aggregate" to 0 to see all help / error messages
[psid06:111793] 29 more processes have sent help message help-mpi-btl-openib.txt / error in device init
--------------------------------------------------------------------------
By default, for Open MPI 4.0 and later, infiniband ports on a device
are not used by default.  The intent is to use UCX for these devices.
You can override this policy by setting the btl_openib_allow_ib MCA parameter
to true.

  Local host:              psid06
  Local adapter:           mlx4_0
  Local port:              1

--------------------------------------------------------------------------
--------------------------------------------------------------------------
WARNING: There was an error initializing an OpenFabrics device.

  Local host:   psid06
  Local device: mlx4_0
--------------------------------------------------------------------------
[psid06:111901] 29 more processes have sent help message help-mpi-btl-openib.txt / ib port not selected
[psid06:111901] Set MCA parameter "orte_base_help_aggregate" to 0 to see all help / error messages
[psid06:111901] 29 more processes have sent help message help-mpi-btl-openib.txt / error in device init

--------------------------------
SUGGESTED CITATIONS FOR THIS RUN
--------------------------------

Below you find a list of papers that are relevant to this ORCA run
We neither can nor want to force you to cite these papers, but we appreciate if you do
You receive ORCA, which is the product of decades of hard work by many enthusiastic individuals, for free
The only thing we kindly ask in return is that you cite our papers,
We deeply appreciate it, if you show your appreciation for ORCA by not just citing the generic ORCA reference.

Please note that relegating all ORCA citations to the supporting information does *not* help us.
SI sections are not indexed - citations you put there will not count into any citation statistics
But we need these citations in order to attract the funding resources that allow us to do what we are doing

Therefore, if you are a happy ORCA user, please consider citing a few of the papers listed below in the main body of your paper

In addition to the list printed below, the program has created the file input.bibtex that contains the list in bibtex format
You can import this file easily into all common literature databanks and citation aid programs


List of essential papers. We consider these as the minimum necessary citations

  1. Neese,F.
     Software update: the ORCA program system, version 5.0
     WIRES Comput. Molec. Sci., 2022 12(1)e1606
     doi.org/10.1002/wcms.1606

List of papers to cite with high priority. The work reported in these papers was absolutely
necessary for this run to complete.
Our perspective: the developers of density functionals and basis sets usually get cited in chemistry papers
Good! But without the algorithms to do something with them, the functionals or basis sets would not do anything.
Hence, in our opinion, the algorithm design and method developments papers are equally worthy of getting cited

  1. Neese,F.
     An improvement of the resolution of the identity approximation for the formation of the Coulomb matrix
     J. Comp. Chem., 2003 24(14)1740-1747
     doi.org/10.1002/jcc.10318
  2. Neese,F.; Wennmohs,F.; Hansen,A.; Becker,U.
     Efficient, approximate and parallel Hartree-Fock and hybrid DFT calculations. A 'chain-of-spheres' algorithm for the Hartree-Fock exchange
     Chem. Phys., 2009 356(1-3)98-109
     doi.org/10.1016/j.chemphys.2008.10.036
  3. Garcia-Rates,M.; Neese,F.
     Effect of the Solute Cavity on the Solvation Energy and its Derivatives within the Framework of the Gaussian Charge Scheme
     J. Comput. Chem., 2020 41 922-939
     doi.org/10.1002/jcc.26139
  4. Helmich-Paris,B.; de Souza,B.; Neese,F.; Izsák,R.
     An improved chain of spheres for exchange algorithm
     J. Chem. Phys., 2021 155 104109
     doi.org/doi: 10.1063/5.0058766.
  5. Neese,F.
     The SHARK Integral Generation and Digestion System
     J. Comp. Chem., 2022  1-16
     doi.org/10.1002/jcc.26942
  6. Caldeweyher,E.; Bannwarth,C.; Grimme,S.
     Extension of the D3 dispersion coefficient model
     J. Chem. Phys., 2017 147 034112
     doi.org/10.1063/1.4993215
  7. Caldeweyher,E.; Ehlert,S.; Hansen,A.; Neugebauer,H.; Spicher,S.; Bannwarth,C.; Grimme,S.
     A generally applicable atomic-charge dependent London dispersion correction
     J. Chem. Phys., 2019 150 154122
     doi.org/10.1063/1.5090222
  8. Caldeweyher,E.; Mewes,J.; Ehlert,S.; Grimme,S.
     Extension and evaluation of the D4 London-dispersion model for periodic systems
     Phys. Chem. Chem. Phys., 2020 22(16)8499-8512
     doi.org/10.1039/D0CP00502A
  9. Wittmann,L.; Gordiy,I.; Friede,M.; Helmich-Paris,B.; Grimme,S.; Hansen,A.; Bursch,M.
     Extension of the D3 and D4 London Dispersion Corrections to the full Actinides Series
     Phys. Chem. Chem. Phys., 2024 26(32)21379-21394
     doi.org/https://doi.org/10.1039/D4CP01514B 

List of suggested additional citations. These are papers that are important in the 'surrounding' of 
of this run, or papers that preceded the highly important papers. If you like your results we are grateful for a citation.

  1. Izsak,R.; Neese,F.
     An overlap fitted chain of spheres exchange method
     J. Chem. Phys., 2011 135 144105
     doi.org/10.1063/1.3646921
  2. Izsak,R.; Hansen,A.; Neese,F.
     The resolution of identity and chain of spheres approximations for the LPNO-CCSD singles Fock term
     Molec. Phys., 2012 110 2413-2417
     doi.org/10.1080/00268976.2012.687466
  3. Neese,F.
     The ORCA program system
     WIRES Comput. Molec. Sci., 2012 2(1)73-78
     doi.org/10.1002/wcms.81
  4. Izsak,R.; Neese,F.; Klopper,W.
     Robust fitting techniques in the chain of spheres approximation to the Fock exchange: The role of the complementary space
     J. Chem. Phys., 2013 139 
     doi.org/10.1063/1.4819264
  5. Neese,F.
     Software update: the ORCA program system, version 4.0
     WIRES Comput. Molec. Sci., 2018 8(1)1-6
     doi.org/10.1002/wcms.1327
  6. Neese,F.; Wennmohs,F.; Becker,U.; Riplinger,C.
     The ORCA quantum chemistry program package
     J. Chem. Phys., 2020 152 Art. No. L224108
     doi.org/10.1063/5.0004608

List of optional additional citations

  1. Neese,F.
     Approximate second-order SCF convergence for spin unrestricted wavefunctions
     Chem. Phys. Lett., 2000 325(1-3)93-98
     doi.org/10.1016/s0009-2614(00)00662-x

Timings for individual modules:

Sum of individual times          ...       11.712 sec (=   0.195 min)
Startup calculation              ...        1.627 sec (=   0.027 min)  13.9 %
SCF iterations                   ...        9.117 sec (=   0.152 min)  77.8 %
Property calculations            ...        0.967 sec (=   0.016 min)   8.3 %
                             ****ORCA TERMINATED NORMALLY****
TOTAL RUN TIME: 0 days 0 hours 0 minutes 12 seconds 892 msec
