34
 energy: -56.713520071113 gnorm: 0.009301442884 xtb: 6.7.1 (edcfbbe)
H            0.96102814859243       -1.30387944787571        0.53524229762410
C            0.15652108770658       -1.11816629936335       -0.17852350525780
H            1.52681631029114       -1.33497711699281       -1.75060684403802
H           -0.41140986625618       -2.03863146042415       -0.32122446931556
N            0.74655390770224       -0.69817751431389       -1.46038426784581
H           -1.20212857934190       -0.29255693981851        1.30779398844225
C           -0.74556104711530       -0.01184047294358        0.35910488900835
O            0.95540783166068        1.61541294789159       -0.16220666964710
C           -0.00691057600212        1.33657812261502        0.59371997795736
H            1.09852343232938        0.26627366364365       -1.28044465190701
O           -0.44163191720784        2.06662640105440        1.50399289522984
H            0.02010415372313       -0.66360574682865       -2.20087030365403
H           -1.54965687938265        0.20308748222850       -0.34831857553054
O            0.71096372955180       -4.44675411338344       -2.56529361767730
H            0.90022949659353       -5.38632809413151       -2.60485309820802
H            0.06461537407381       -4.32303132537982       -1.84817063407570
O            1.88628877914103       -1.42203778066289       -5.68912905040969
H            1.94059847357949       -1.57750267168097       -6.63437783074562
H            1.16002507916617       -2.01507108930114       -5.36025700146820
O            2.62961358415759       -2.52087577125466       -2.19962443494769
H            3.10466366217072       -2.36026887994457       -3.02453229384913
H            2.01545519893783       -3.26713589671404       -2.36461719632332
O            0.58342606827807        0.85735465751110       -5.00960868838214
H            1.13652304263653        0.09143978675724       -5.28359467020909
H            1.16898511452587        1.48052288356438       -4.56924705289051
O           -1.11843761923020       -0.56097135155039       -3.51403017056577
H           -2.01957907135829       -0.24241915537009       -3.57149527551260
H           -0.57256707788549        0.02309846383696       -4.09213250882526
O           -1.13905022412993       -4.23176801624200       -0.53196995228313
H           -2.07311425348575       -4.30378263492457       -0.75163799649430
H           -0.99634299613154       -4.72295977479433        0.28601470740601
O           -0.14221230123026       -2.87188379838460       -4.70298063996993
H            0.15245538924117       -3.46999224612458       -3.99253272604641
H           -0.58684745531678       -2.13257781067573       -4.24931262959495
