34
 energy: -56.575008142460 gnorm: 0.185387226104 xtb: 6.7.1 (edcfbbe)
H            1.51131700000000       -0.30682800000000       -0.55501400000000
C            0.42356400000000       -0.53272100000000       -0.60971700000000
H            0.15351800000000        0.48284000000000       -2.37712700000000
H            0.30622500000000       -1.51992900000000       -1.10801900000000
N           -0.26687200000000        0.47309100000000       -1.42055200000000
H            0.31243500000000       -1.51306200000000        1.31258500000000
C           -0.16516600000000       -0.64664900000000        0.80679900000000
O            0.75046400000000        1.63132300000000        1.24106600000000
C            0.05694300000000        0.56251400000000        1.67849900000000
H           -0.17036900000000        1.42768900000000       -1.01141000000000
O           -0.37805100000000        0.56237000000000        2.81853100000000
H           -1.27994500000000        0.22829700000000       -1.50380900000000
H           -1.25406300000000       -0.84893600000000        0.72816900000000
O            0.06743000000000       -3.49678600000000       -3.56104900000000
H           -0.52221900000000       -4.28913900000000       -3.48962500000000
H           -0.02896200000000       -3.03643400000000       -2.68961500000000
O            2.39527100000000       -1.93491300000000       -5.73174500000000
H            1.71790700000000       -1.45859700000000       -6.27480200000000
H            2.57567400000000       -1.32699300000000       -4.97115200000000
O            2.54978000000000       -4.36465200000000       -1.81130800000000
H            2.99844200000000       -3.53853500000000       -1.50011100000000
H            1.90986700000000       -4.05484900000000       -2.50061700000000
O           -0.58840800000000       -0.02882400000000       -5.39597800000000
H            0.39066500000000       -0.04206400000000       -5.24815500000000
H           -0.97056600000000        0.18463800000000       -4.50772000000000
O           -0.60315100000000       -2.33602300000000       -5.30476800000000
H           -1.18467400000000       -2.00170000000000       -4.57629700000000
H           -1.22952500000000       -2.74059600000000       -5.95637300000000
O           -1.67259300000000       -3.86275200000000       -1.24835500000000
H           -1.69595300000000       -2.87299200000000       -1.26930800000000
H           -0.88432500000000       -4.08055000000000       -0.68995500000000
O            1.71018700000000       -0.99593900000000       -2.90952200000000
H            2.02936900000000       -1.85966400000000       -2.54522300000000
H            0.94913200000000       -1.23943600000000       -3.49443100000000
34
 energy: -56.610919199673 gnorm: 0.094916250161 xtb: 6.7.1 (edcfbbe)
H            1.48434872609584       -0.29747959381770       -0.54392230386354
C            0.41635103235747       -0.54055969055262       -0.60358098170379
H            0.16596758563494        0.48746665289470       -2.36039451667741
H            0.30341372090850       -1.51338041266058       -1.09594740070919
N           -0.26675968354792        0.47327072941328       -1.41965626897018
H            0.29655035064833       -1.49258457736694        1.31758664584650
C           -0.16608747880370       -0.64167337235545        0.80136522550972
O            0.70769707427611        1.58810758797749        1.19993684521962
C            0.06691343049682        0.57264714462732        1.68852438477014
H           -0.16058872960065        1.40919307763226       -0.99219085091988
O           -0.39062502079901        0.57122064372496        2.83882342335434
H           -1.27137917965616        0.24955111984910       -1.50108689319366
H           -1.24623024165135       -0.83588363200294        0.75372707539042
O            0.15926845113221       -3.57672773608625       -3.45317776621100
H           -0.50790052126720       -4.29233010650808       -3.46520719366962
H           -0.05010264910332       -3.07042465227551       -2.64004289840849
O            2.41405871127528       -1.91568261063859       -5.74091612338343
H            1.71960335573759       -1.47829735599155       -6.26352960747090
H            2.57167293597672       -1.32912161174235       -4.97793942216085
O            2.51926625169391       -4.34755395020877       -1.79316859272472
H            3.00373696673228       -3.55020793879257       -1.51501885882516
H            1.92577783645362       -4.06067148584814       -2.51856474283710
O           -0.57407111525848        0.11191985256260       -5.40309999767140
H            0.38161181676466       -0.02369145456020       -5.23797800300470
H           -0.96515236889726        0.21355342111772       -4.51365592736254
O           -0.63695633044454       -2.35281876033575       -5.36257816809987
H           -1.19730855490299       -2.03672287674776       -4.63120957820928
H           -1.24631866418015       -2.75239502491496       -5.99194313978942
O           -1.64471591020677       -3.85795927624511       -1.26575451352292
H           -1.70887280520531       -2.88633704758026       -1.23882353866698
H           -0.90205212467490       -4.08336792990932       -0.67888396858648
O            1.70098918659193       -1.00179782145910       -2.95563121689978
H            2.04276446282175       -1.82974488812738       -2.57898001005024
H            0.96847748260153       -1.28631742307110       -3.53318911649812
34
 energy: -56.625313596148 gnorm: 0.035032649075 xtb: 6.7.1 (edcfbbe)
H            1.45950320608023       -0.28779388397224       -0.52160959461341
C            0.40673445529575       -0.55014777393306       -0.58979586434703
H            0.19070386003536        0.49593793349404       -2.33718239301762
H            0.30232165161401       -1.51133176435006       -1.08228808999900
N           -0.26351345670690        0.47643070570061       -1.41409467003433
H            0.27708604224971       -1.47465150429216        1.33561922941528
C           -0.18296371998557       -0.64424588295496        0.80115560820196
O            0.68486013360340        1.54299252585352        1.16736678611819
C            0.03421128911855        0.61149605573146        1.67255502482638
H           -0.14174561668218        1.39085730484448       -0.95660897228092
O           -0.38691448631173        0.56781635454117        2.84988835701618
H           -1.26378275328581        0.28029245196580       -1.49809520299192
H           -1.25618913272425       -0.83204260727828        0.77904717831712
O            0.21218077244062       -3.59911611942377       -3.38477056245401
H           -0.42633317034906       -4.31060216485151       -3.45483043979055
H           -0.06124081673528       -3.10857776847327       -2.59610111257836
O            2.43494758602416       -1.89705760651692       -5.74868448875812
H            1.72326960513175       -1.50239622179841       -6.26066891941436
H            2.57637949444117       -1.32346095957371       -4.98662004488777
O            2.49489863535766       -4.33266702835232       -1.78086332131339
H            3.00868457476386       -3.55900667555945       -1.53289738053681
H            1.92394686319876       -4.07772767694741       -2.52795091781679
O           -0.56060130460730        0.16406466276932       -5.38671650521968
H            0.37497720402194        0.03384982294944       -5.23440121356080
H           -0.96513138355822        0.27205745130227       -4.52768198166605
O           -0.66425104246581       -2.36990610834751       -5.38899604271046
H           -1.22523645173400       -2.06861498649866       -4.67097629143170
H           -1.24195078687237       -2.76594411671813       -6.02927335116720
O           -1.61631409243474       -3.85067478600330       -1.28331189446165
H           -1.73718954852437       -2.89508402768467       -1.17635115292846
H           -0.92260698836152       -4.10006996841207       -0.66379260755479
O            1.67070961275059       -1.00390162708531       -3.01777848723951
H            2.06988434616082       -1.78732274361971       -2.62690400391562
H            0.98401341905015       -1.36025226650394       -3.60249467720453
34
 energy: -56.633878820489 gnorm: 0.055261242132 xtb: 6.7.1 (edcfbbe)
H            1.44312132526829       -0.29505956492687       -0.49714522989128
C            0.39311738424954       -0.56441451025620       -0.57500650114165
H            0.21624824868621        0.50284936136988       -2.31293849928971
H            0.29358334287839       -1.51806230967056       -1.08154940521214
N           -0.25771681042258        0.48172972318243       -1.40047529301086
H            0.25770339787409       -1.48559805407372        1.35338812270248
C           -0.19971133035234       -0.66032638623874        0.81358058138832
O            0.60586725289322        1.57030891831352        1.09591039782740
C            0.07612009880557        0.61055104483532        1.68002495712088
H           -0.11585976920945        1.38037142585023       -0.91538754116689
O           -0.40059582698280        0.58997091433031        2.83857555941010
H           -1.26150652688610        0.31342342536864       -1.49378710190047
H           -1.27673990971041       -0.82583034303139        0.80761981980887
O            0.29670376530552       -3.61257970316124       -3.31964110173118
H           -0.33570580577152       -4.32699730267009       -3.48567362033577
H           -0.08825208527259       -3.14751080144622       -2.54403749923557
O            2.48597978473867       -1.87191048849751       -5.77241042428999
H            1.70646603832827       -1.54595001480266       -6.25240769036790
H            2.56952355943976       -1.31688742733080       -4.98387228257028
O            2.45341067751282       -4.31954650433882       -1.74734362413947
H            3.03382851379720       -3.56504101256288       -1.56320421644872
H            1.92010423756861       -4.08957829392469       -2.53617501114885
O           -0.54583182301339        0.25798798250463       -5.38818546377920
H            0.38144321875120        0.06519443432440       -5.21556007029141
H           -0.97853487913864        0.31421882937052       -4.53211954515182
O           -0.68143307390008       -2.37713240817476       -5.39725015690721
H           -1.27018664249562       -2.10301145018884       -4.69288368829924
H           -1.22431848111170       -2.78241994269441       -6.07124830627171
O           -1.58221454019524       -3.84625095659607       -1.30866861101361
H           -1.77235082993242       -2.90239436948633       -1.08783891876885
H           -0.94952116598003       -4.13085641998348       -0.62775773272925
O            1.62591919496893       -0.99574960205560       -3.09838829603159
H            2.10938690120428       -1.72772020578142       -2.67616256888531
H            0.98530055810314       -1.45257898755425       -3.68808903824770
34
 energy: -56.638822562194 gnorm: 0.063805258797 xtb: 6.7.1 (edcfbbe)
H            1.42836980061535       -0.31382974836124       -0.46711307840769
C            0.37746976006416       -0.58490435006869       -0.56130515878155
H            0.24336734151029        0.50572882833253       -2.28772217349019
H            0.28474315813970       -1.53321374026858       -1.08543705502353
N           -0.24895806164005        0.48400308994216       -1.38370570658846
H            0.23892338959717       -1.48433784589696        1.38343674674637
C           -0.22553012133449       -0.67273618613637        0.82631687170813
O            0.54945703477122        1.59414782532284        1.02876697988668
C            0.04381147859546        0.64006451243389        1.66058364609765
H           -0.08453834678837        1.36707215213252       -0.86783626221568
O           -0.37413443995438        0.60471750310993        2.83930509916279
H           -1.25826554886926        0.34563625008433       -1.49059624264265
H           -1.30289140534123       -0.83201664484470        0.82653061367062
O            0.34758696382378       -3.61128705212304       -3.27997326307362
H           -0.23011706321769       -4.35817296993771       -3.50942659823298
H           -0.07247098013281       -3.21637612666161       -2.49250570793873
O            2.52782497442107       -1.85106876817229       -5.79640959795837
H            1.70286291032873       -1.58003251125784       -6.25166360128726
H            2.56363207469526       -1.31195615703713       -4.98480537244883
O            2.45736355253004       -4.31452831524870       -1.72731900888982
H            3.05607085642861       -3.57065803718261       -1.57429191743388
H            1.90429622813516       -4.10681599921000       -2.50264543118067
O           -0.52560702848275        0.37880368445285       -5.39675840587395
H            0.39245315619077        0.09839702925948       -5.18599062990260
H           -0.99584874131522        0.35362046283231       -4.53782618332885
O           -0.70108057095862       -2.36880531597026       -5.42220149894305
H           -1.32546427237035       -2.14213127696859       -4.72285335642059
H           -1.20673339000274       -2.79234478912953       -6.12815105929070
O           -1.62790057109943       -3.83202797930514       -1.20928957597170
H           -1.75502652212246       -2.91423110070608       -1.06851158969946
H           -0.95520906310118       -4.15993321952784       -0.62142867003454
O            1.60639388264565       -0.99957060060666       -3.20446792187659
H            2.10997240806531       -1.68699875391217       -2.73166379889541
H            0.96852515617131       -1.51101484936587       -3.74914909144024
34
 energy: -56.643896288418 gnorm: 0.063976838073 xtb: 6.7.1 (edcfbbe)
H            1.42466262152836       -0.34468833144164       -0.44687761050334
C            0.36925471671557       -0.60578189044463       -0.55736568816556
H            0.26167574221808        0.50731759174210       -2.27081410620659
H            0.27651220672512       -1.55097927536332       -1.09598096505323
N           -0.23659976611413        0.48361149120078       -1.36893121431084
H            0.22655350738870       -1.47858965881228        1.40865668905381
C           -0.24273121258200       -0.67894389153719        0.83178398641107
O            0.51450048429561        1.61134265420432        0.99082880684212
C           -0.02314203231098        0.67350128687437        1.63063024648189
H           -0.05264004406308        1.35354654341443       -0.82450776560788
O           -0.33351988843870        0.61087177539730        2.84286761756760
H           -1.25089401682859        0.36955672709944       -1.48594018094087
H           -1.31870096051307       -0.84150760040724        0.82776453661404
O            0.36143700665470       -3.60244854850414       -3.26006281242827
H           -0.13866634419012       -4.39207285441169       -3.52054762007579
H           -0.05905439272118       -3.28511657231312       -2.45336882011065
O            2.52217428143038       -1.85468477925966       -5.79937272495881
H            1.72849573377081       -1.58357683939776       -6.26405380398165
H            2.56566721660374       -1.31571053392467       -4.99231629898186
O            2.47613524052844       -4.31282186212574       -1.69974380993818
H            3.07836733573740       -3.57543411699282       -1.57477607551093
H            1.90204412208453       -4.12259377058364       -2.46236472590965
O           -0.51694805335728        0.42806673911515       -5.38884780069561
H            0.39382838717603        0.17404983429030       -5.18065163175942
H           -1.00038975139664        0.42276233836068       -4.54774668891499
O           -0.71673326429670       -2.36995162335535       -5.44727466926393
H           -1.36468162146844       -2.17009439482013       -4.75177501607816
H           -1.20410675523810       -2.79728665325866       -6.16836936159981
O           -1.56190481012200       -3.81949581522133       -1.27975283767896
H           -1.80054701148261       -2.91113017308130       -0.93444658789438
H           -0.99076264083645       -4.20103777777455       -0.57696390816160
O            1.59149604009519       -1.00519757236599       -3.28295738662004
H            2.08516067156974       -1.66548787453431       -2.79082045190650
H            0.94740525143493       -1.52679557176364       -3.78200931971223
34
 energy: -56.648275002667 gnorm: 0.055335148384 xtb: 6.7.1 (edcfbbe)
H            1.42871325427053       -0.38579343043508       -0.44629436814850
C            0.37004128421962       -0.62271178601001       -0.56208223430109
H            0.26829623991591        0.51053586737485       -2.26392149301444
H            0.25921229967545       -1.56285760195374       -1.10301035501336
N           -0.22232971420389        0.48169696399575       -1.36054074195713
H            0.21225882389544       -1.48197733892510        1.41067331653178
C           -0.24305710129103       -0.68273356153990        0.82612909771105
O            0.45403425471240        1.62595200829057        0.97753513700045
C           -0.01308813215992        0.65904593438867        1.63108584095203
H           -0.02444674560793        1.33929622339835       -0.79394326047997
O           -0.34570096291630        0.62051951183394        2.82711545213924
H           -1.23677295789721        0.38419250600864       -1.47659787999897
H           -1.32040349204560       -0.83834937898194        0.81953567686945
O            0.38812813597003       -3.60497113960953       -3.24841691591461
H           -0.06209687547630       -4.41474325858989       -3.54149101272893
H           -0.09422343023457       -3.32804888024307       -2.43795397909975
O            2.54740556028471       -1.84231935012407       -5.82126955032574
H            1.72956577774754       -1.60246817968961       -6.26507852988024
H            2.55474164120272       -1.32308468523275       -4.99528237145499
O            2.47772872434221       -4.30817622224512       -1.64896910341762
H            3.11604655943632       -3.57983306339839       -1.57899295532862
H            1.91974295165505       -4.12860369038106       -2.43470321819390
O           -0.51749377198888        0.41827171474452       -5.36864492906516
H            0.38609747550951        0.25966074392938       -5.18694352339383
H           -0.99651269894806        0.50637781573159       -4.56311249344529
O           -0.72893442858638       -2.38054231697742       -5.45887059122077
H           -1.37393920430717       -2.17606843975633       -4.77158753094641
H           -1.21799236386828       -2.78942601709744       -6.17548286222434
O           -1.57930286265954       -3.82414545959394       -1.21250714195605
H           -1.78893343670515       -2.92807106939440       -0.92601935219880
H           -0.97997367611994       -4.21342247682449       -0.56855628477170
O            1.53757997141391       -0.98697118212464       -3.31455994141413
H            2.08704283613271       -1.61778111684291       -2.83201755168014
H            0.92191406462834       -1.55925064372055       -3.81133234962856
34
 energy: -56.651431055592 gnorm: 0.065361632122 xtb: 6.7.1 (edcfbbe)
H            1.43382961624801       -0.43598783361416       -0.44974404583029
C            0.37056757132510       -0.63943862186955       -0.56668467682077
H            0.28044191051230        0.51417995620101       -2.25936088700662
H            0.23361507095158       -1.57433103500705       -1.10577514811400
N           -0.20184324327043        0.47994115594965       -1.35444883591787
H            0.19166062951507       -1.47987169289232        1.41294668586673
C           -0.24895535797968       -0.68406382537224        0.81723096319388
O            0.38772850722241        1.63539032255964        0.96617003647094
C           -0.00772561468847        0.64435024112735        1.62719108941883
H            0.00822682671060        1.32170520819400       -0.76119235014162
O           -0.35352324309508        0.62829044165700        2.81096158449896
H           -1.21431038671407        0.39950462557907       -1.46873249914270
H           -1.32764067011521       -0.83527179859194        0.80440624691533
O            0.39876022948963       -3.61758278074470       -3.25117740032601
H           -0.00222343991666       -4.43279126530575       -3.54645226151349
H           -0.10001541113170       -3.38782324628637       -2.43875534416673
O            2.60870458388454       -1.81342096863319       -5.86287139093382
H            1.70272760880560       -1.66052520358173       -6.25850401298154
H            2.54106760650058       -1.31891668802467       -5.00860704196211
O            2.53471104024983       -4.30933068295663       -1.64425228783683
H            3.12915494989267       -3.58995832475606       -1.53781586326926
H            1.92659456156218       -4.11757513100069       -2.37879873691266
O           -0.49425627894319        0.51148965354577       -5.38891466883196
H            0.40142788608638        0.25826194933231       -5.11968179438882
H           -1.03669598141518        0.54393760477287       -4.59525571178883
O           -0.74727218434666       -2.36209079372960       -5.47227468364376
H           -1.40053503315713       -2.18435707465655       -4.79036690109359
H           -1.22226748617968       -2.76515605129696       -6.19431190148990
O           -1.54136113526235       -3.82015059205473       -1.20293938128361
H           -1.78401780734854       -2.94448817575221       -0.87044072819958
H           -0.99022918611176       -4.23231019003744       -0.52212506135748
O            1.47811566480720       -0.96445762418408       -3.35395688307213
H            2.07396809816973       -1.56282055190407       -2.87429059082345
H            0.88491809773736       -1.58113200666041       -3.83728351751386
34
 energy: -56.649513763206 gnorm: 0.106135679545 xtb: 6.7.1 (edcfbbe)
H            1.44145342409706       -0.48616036799290       -0.46429225475206
C            0.37175346288730       -0.65379373100884       -0.57453723578128
H            0.28897904263476        0.52254023697238       -2.25844504611826
H            0.20550083703159       -1.58397716734577       -1.11186500845063
N           -0.18109750940929        0.47872410166151       -1.34915827901581
H            0.18279558562747       -1.47963781473655        1.41181728605705
C           -0.25033958323322       -0.68869283167335        0.80731832617701
O            0.33715978591365        1.63453691414795        0.95449544840401
C           -0.01055807154607        0.62879573430384        1.61447062647456
H            0.03399719667219        1.30295146497678       -0.72640010058108
O           -0.32128829039020        0.62079548638921        2.80632726825812
H           -1.19009287670905        0.41018505509077       -1.45992365891876
H           -1.33024785267016       -0.84252420155881        0.78685988081692
O            0.42351382532437       -3.62609464076794       -3.23248445856955
H            0.06371170694552       -4.44219961637557       -3.56871988364324
H           -0.13000873924130       -3.45476046967949       -2.42442325218043
O            2.51667565527122       -1.86420942547724       -5.80804073300382
H            1.76014250286641       -1.64360769984148       -6.29506691461850
H            2.56701029935601       -1.31938787457822       -5.03914323240762
O            2.50572842339245       -4.29880961452351       -1.57681006104382
H            3.19901267756483       -3.60811044166367       -1.56575101088789
H            1.93959156628901       -4.09766686889985       -2.35022927803431
O           -0.48155355267275        0.62994659363286       -5.41864729113622
H            0.41134553286327        0.25332754220174       -5.05882906735079
H           -1.07974670869014        0.57187629912054       -4.61781733114649
O           -0.76773594568993       -2.33796936250360       -5.46693796809799
H           -1.43656824869425       -2.19251155416791       -4.79319601369783
H           -1.22309334418208       -2.73843975235759       -6.20433382619557
O           -1.49764445066109       -3.81594069842513       -1.19564913069359
H           -1.78258802447858       -2.96998516287719       -0.82375017619167
H           -0.99814148981651       -4.24859619714843       -0.48146895540058
O            1.45119535436820       -0.94817649397688       -3.41426103239956
H            2.04363370536751       -1.52004433130537       -2.92427752007382
H            0.85085210360600       -1.56918410960642       -3.85293811579545
34
 energy: -56.656942238923 gnorm: 0.057207841856 xtb: 6.7.1 (edcfbbe)
H            1.43907804429324       -0.50216709454817       -0.46305596442828
C            0.36543153139320       -0.66293599583045       -0.57195020648840
H            0.30143401953089        0.51981264106913       -2.25708005501076
H            0.19432216005592       -1.59401839309565       -1.11258449600419
N           -0.17353096398127        0.47558707286550       -1.34736159226671
H            0.18086572185664       -1.48085839351804        1.42258265737398
C           -0.25915851047498       -0.69343329905197        0.81290046582931
O            0.32649437173891        1.63851178838962        0.93327594417507
C           -0.06192997286910        0.64788088855079        1.59474462841949
H            0.04094708000280        1.29709546583699       -0.71965675770486
O           -0.27964337998280        0.60940720146465        2.82637405428889
H           -1.18537323249360        0.41262906628358       -1.46371358573979
H           -1.33788324369539       -0.85272090613909        0.78436424962081
O            0.43656501190771       -3.63417040956520       -3.20637929671171
H            0.07975221284196       -4.45700839392580       -3.59364756950342
H           -0.14088632560836       -3.48558886369703       -2.40433742102510
O            2.55253036585335       -1.84770709374226       -5.82478718666368
H            1.75125741008672       -1.67963981376924       -6.30505730693969
H            2.55133547054820       -1.29762553524603       -5.04344939832103
O            2.50808511133389       -4.29735866004718       -1.56779551308810
H            3.21071354787896       -3.61298071511060       -1.55893212812717
H            1.94200487267573       -4.08688568726024       -2.33883104082380
O           -0.50036170706688        0.56673186771067       -5.38339214940077
H            0.39594610117138        0.36025678316986       -5.11240177342323
H           -1.04575078906188        0.62919567142407       -4.59790480826924
O           -0.76425999057644       -2.35480116447520       -5.46074015791856
H           -1.44945547877821       -2.20321397309029       -4.79899290968883
H           -1.21049922311824       -2.73824462604790       -6.22628405589702
O           -1.47302550520273       -3.81603970963364       -1.19531924089030
H           -1.79367215453411       -2.97920429387268       -0.80022589730856
H           -0.98408568627789       -4.24972978999828       -0.47934511988490
O            1.42658786759023       -0.93833805824339       -3.42837248344818
H            2.03382632965520       -1.49297779549499       -2.93001034825938
H            0.83568693330071       -1.57626078135503       -3.85874153647076
34
 energy: -56.653584624135 gnorm: 0.101759746249 xtb: 6.7.1 (edcfbbe)
H            1.43645343837436       -0.53865431674139       -0.46185408652933
C            0.35939210178973       -0.68151923775157       -0.57025062917536
H            0.32342824788928        0.51036583338019       -2.25541150085821
H            0.17192932121647       -1.61169483762249       -1.10955309429503
N           -0.15909794654856        0.46662137029670       -1.34805002991970
H            0.16602257989752       -1.49076346695692        1.42909250768667
C           -0.26435035022578       -0.69970598711728        0.81740562457819
O            0.27375580333779        1.65900824568295        0.91537894439564
C           -0.05531819191764        0.63805130180508        1.59783167717659
H            0.05738554966837        1.28314108493980       -0.71183208709983
O           -0.28487009989705        0.61200253242249        2.82028734422507
H           -1.17330438272262        0.41515952148020       -1.47183329878442
H           -1.34466219889427       -0.85188079331810        0.78237140047831
O            0.41191243617988       -3.67123487726931       -3.22114427396688
H            0.05608056128508       -4.46547442340713       -3.53198761746402
H           -0.05864870880896       -3.50494356283677       -2.44055115284257
O            2.59233190261070       -1.83495326477357       -5.85170975648046
H            1.76924000672718       -1.70882548229447       -6.33695930064829
H            2.51485854322288       -1.28664753825596       -5.04483842843637
O            2.57781696458092       -4.30145697106532       -1.58938843660891
H            3.18879348001536       -3.61107702006778       -1.50140746778929
H            1.94458362293240       -4.08360380806327       -2.29892151196019
O           -0.48812825106652        0.57885562081707       -5.37775788195312
H            0.39095438307859        0.40584663045819       -5.08202285217489
H           -1.05419955128947        0.67765983399976       -4.62144047558387
O           -0.77199083234438       -2.35131173508498       -5.47194334151916
H           -1.45973359471802       -2.20838798347741       -4.81218304071034
H           -1.21452515246379       -2.71562272435186       -6.24582049721265
O           -1.46734970523765       -3.81551482058556       -1.14416099584073
H           -1.76794220251221       -2.98858809671724       -0.79633943914091
H           -0.95963613718261       -4.26485033336637       -0.47501240417948
O            1.38549397237072       -0.91517147308255       -3.44383360256402
H            2.00677285142392       -1.45476817034100       -2.94956830893941
H            0.80989953922112       -1.56686205072669       -3.87269998586139
34