34
 energy: -56.576965627804 gnorm: 0.194872379554 xtb: 6.7.1 (edcfbbe)
H            1.51131700000000       -0.30682800000000       -0.55501400000000
C            0.42356400000000       -0.53272100000000       -0.60971700000000
H            0.15351800000000        0.48284000000000       -2.37712700000000
H            0.30622500000000       -1.51992900000000       -1.10801900000000
N           -0.26687200000000        0.47309100000000       -1.42055200000000
H            0.31243500000000       -1.51306200000000        1.31258500000000
C           -0.16516600000000       -0.64664900000000        0.80679900000000
O            0.75046400000000        1.63132300000000        1.24106600000000
C            0.05694300000000        0.56251400000000        1.67849900000000
H           -0.17036900000000        1.42768900000000       -1.01141000000000
O           -0.37805100000000        0.56237000000000        2.81853100000000
H           -1.27994500000000        0.22829700000000       -1.50380900000000
H           -1.25406300000000       -0.84893600000000        0.72816900000000
O            2.61328000000000       -3.20056900000000        2.18929800000000
H            3.32442800000000       -2.83807700000000        1.60322600000000
H            1.78341200000000       -3.11201200000000        1.65629800000000
O            3.78904400000000        1.48191100000000       -1.25288100000000
H            3.25449200000000        1.03368200000000       -0.55006100000000
H            3.52486200000000        1.02839800000000       -2.09261100000000
O            3.19978700000000        0.56402200000000        1.59705500000000
H            4.16722800000000        0.48022600000000        1.79108600000000
H            2.80112000000000        0.86943900000000        2.45051700000000
O            3.21921400000000       -1.74437500000000       -0.30122200000000
H            2.64191000000000       -2.13996100000000       -1.00182300000000
H            3.78165600000000       -1.08812500000000       -0.78455200000000
O            2.40648800000000        3.08177200000000        0.52807100000000
H            3.29136600000000        3.14891200000000        0.08864700000000
H            1.77145500000000        2.92541300000000       -0.21550000000000
O            2.71614200000000        3.04057400000000        2.78618400000000
H            1.75014700000000        2.82289700000000        2.79517900000000
H            2.82076800000000        3.73382200000000        3.48552200000000
O            2.44756800000000       -0.92698100000000        3.66734900000000
H            1.85507100000000       -1.44954000000000        4.26441700000000
H            3.21254900000000       -1.52956600000000        3.48760500000000
34
 energy: -56.611377926604 gnorm: 0.099364772581 xtb: 6.7.1 (edcfbbe)
H            1.48458809737053       -0.29624447439154       -0.52755623733445
C            0.41928193225055       -0.54460573235271       -0.61414246296898
H            0.14227829495614        0.50005510134875       -2.37073542274385
H            0.30606731688930       -1.51801080037285       -1.10809945418360
N           -0.26793456295778        0.47350436094923       -1.42379613061494
H            0.30572246520238       -1.49393556177675        1.31184657216417
C           -0.16419229216544       -0.64986143617723        0.79355227244554
O            0.62650817795349        1.60225480669852        1.19589094061193
C            0.05723473588513        0.55574902141335        1.69535239044804
H           -0.16408037273631        1.40507404755536       -0.98506240235751
O           -0.41289389779448        0.55316054268449        2.84286947103979
H           -1.27206638820593        0.24510492279110       -1.50021131796603
H           -1.24351653088098       -0.84915827792354        0.74741675117645
O            2.63200399611174       -3.23594228734870        2.16279646605384
H            3.30500156766083       -2.82444059607908        1.58960453040161
H            1.80036622372627       -3.11145699651650        1.67541651867349
O            3.80277578281965        1.45371664181229       -1.26582720918505
H            3.27694805822578        1.06117717455265       -0.53783898719898
H            3.51121767038432        1.01705403861182       -2.08411051176559
O            3.23347941001508        0.52449924549710        1.57540624524534
H            4.17830636103302        0.49224288771746        1.79862701044999
H            2.80524393146454        0.87056834140513        2.37937909698298
O            3.22789867347045       -1.76054087889730       -0.31891219454469
H            2.67192137975580       -2.15160875251675       -1.01384191213309
H            3.78539493743037       -1.10424211881685       -0.77063437127289
O            2.41510266252714        3.17181494894744        0.47103075330085
H            3.29960639882424        3.14416788716036        0.05888538368916
H            1.79484114896468        2.93600408350869       -0.24164542577156
O            2.73890473444202        3.02951499351422        2.87436261356647
H            1.78321812935651        2.83370789280270        2.76918019438983
H            2.79578348309394        3.75179777258313        3.52241251934920
O            2.46162616336792       -0.91625573379401        3.73205759579149
H            1.85392335636279       -1.45146716453994        4.26768654370124
H            3.18142595519648       -1.53153690005013        3.49044517056011
34
 energy: -56.624394582190 gnorm: 0.066614001822 xtb: 6.7.1 (edcfbbe)
H            1.45987050882831       -0.28289008303871       -0.49285619128872
C            0.41444959415523       -0.55481586283440       -0.60837348068614
H            0.13145828443723        0.52460657442387       -2.35800224264637
H            0.30996209748972       -1.51498802149941       -1.10224754128261
N           -0.27022823535074        0.47639261610590       -1.41956232712091
H            0.29648270492970       -1.46767331097909        1.32552742587747
C           -0.18408839071645       -0.65734290964772        0.78203818787829
O            0.57063123204658        1.55102664584517        1.16271667346888
C           -0.03994759217153        0.61406598006651        1.65498955874226
H           -0.15669480262958        1.37992721260652       -0.93542000245055
O           -0.40799498474398        0.52518228233556        2.85714019875852
H           -1.26752755746678        0.26509809786248       -1.48906482136075
H           -1.25014711171684       -0.87240708648089        0.75774243148150
O            2.65731833730507       -3.23317423953068        2.14698404229632
H            3.29203008399662       -2.81300940480570        1.55891089059079
H            1.81969665386229       -3.12562645544529        1.69868418433991
O            3.80619009917614        1.43094145343218       -1.27126200133640
H            3.31683432952913        1.07038710429146       -0.51438633562372
H            3.50175073441943        1.00414260293048       -2.07127201463432
O            3.27048980742685        0.50419727003275        1.53411913761477
H            4.19147914895521        0.50365052000268        1.79463424215364
H            2.80600874668539        0.86105095948407        2.29571524798030
O            3.23425450532616       -1.78211754388865       -0.33941036142061
H            2.71217824278218       -2.17674790803590       -1.03803381118424
H            3.79833805768940       -1.12447388325719       -0.74869461278616
O            2.43107885550884        3.27365810164486        0.41615776630332
H            3.30840819012467        3.14024421574898        0.02214976291344
H            1.80887945632110        2.95541009716272       -0.24891007848399
O            2.75054010679368        3.00636520858109        2.95509422713852
H            1.81311052319552        2.83482619330530        2.74895073948063
H            2.77138609301212        3.76571002218644        3.54333007656007
O            2.47320383177703       -0.91504949953039        3.78964541753834
H            1.85243573333260       -1.44240470731987        4.28748192967709
H            3.15014971569032       -1.54230124175536        3.49728868151220
34
 energy: -56.635836999348 gnorm: 0.050566967100 xtb: 6.7.1 (edcfbbe)
H            1.44774616432492       -0.28538401963808       -0.46639118765329
C            0.40557374968115       -0.56511797166827       -0.59537308783813
H            0.12859424981513        0.54990993161044       -2.33835464920288
H            0.30991998048767       -1.51803996639793       -1.10463937602780
N           -0.27239470276215        0.48220117869193       -1.40038078638205
H            0.28659863170695       -1.48186309829638        1.33764003802914
C           -0.20192232692377       -0.68206773645229        0.78972394457382
O            0.46653255118667        1.59471195107339        1.08058853372238
C           -0.01117046768065        0.60588039840662        1.65475808094278
H           -0.14801836203369        1.36803062895583       -0.88202893082327
O           -0.45032790596412        0.54421903275787        2.82807910884736
H           -1.27206948957497        0.28335560502992       -1.47239427009355
H           -1.26904651655042       -0.89428352739656        0.77089379791356
O            2.69719274699384       -3.23990399721737        2.12896799675070
H            3.28578004402830       -2.78150823895735        1.51098251498165
H            1.82349897575177       -3.13936271065405        1.73665804930639
O            3.82004618928193        1.41302206109806       -1.26782335352728
H            3.36197829002174        1.07169150009505       -0.48083758484392
H            3.47864728866920        0.98683258303492       -2.05574534248747
O            3.30788951303452        0.48546806286526        1.47573373446101
H            4.21787049014032        0.52192025682336        1.79460433978801
H            2.78551622615162        0.85488079940713        2.20085420471064
O            3.23713728303406       -1.81192693692714       -0.35279242061324
H            2.75641066657518       -2.21087372627607       -1.08219995464936
H            3.81958420901629       -1.13995085212455       -0.71885602462428
O            2.43767461051831        3.37480989984732        0.38409928768651
H            3.31481577262975        3.14321941408767        0.00023006307534
H            1.81231684505979        2.97013967967071       -0.24765314806417
O            2.75909004100555        2.97813132309994        3.01039579699200
H            1.83365538578455        2.82599093128219        2.73645326028587
H            2.74628002693967        3.77854735457496        3.55528810040448
O            2.50268256712970       -0.89833130153992        3.86501262615104
H            1.83347084817056       -1.43540679384887        4.30420963435744
H            3.12043342435188       -1.56708071501819        3.49210200385208
34
 energy: -56.640958635176 gnorm: 0.061759677801 xtb: 6.7.1 (edcfbbe)
H            1.43528814443597       -0.30105409549220       -0.43957534076204
C            0.39401923395119       -0.58627013401760       -0.58335538438879
H            0.12677789744672        0.58406256867752       -2.30606267524475
H            0.31185412158095       -1.53162614165995       -1.11465985975140
N           -0.27562259108475        0.48590680483540       -1.36859833004642
H            0.28385489485777       -1.48770763585268        1.36261101606218
C           -0.22265856741821       -0.70866416568979        0.79897897605397
O            0.33825061769424        1.63578728866095        0.98482639320109
C           -0.03842463656332        0.61176686244157        1.63835759465062
H           -0.13616021014369        1.34844733459023       -0.80193230439690
O           -0.46386820120071        0.55959722961245        2.81117420645277
H           -1.27989314617554        0.30274354607227       -1.44702710306173
H           -1.28814744942757       -0.93254170351494        0.78214541346202
O            2.74713019842835       -3.21861378090089        2.11612209932075
H            3.27769991013246       -2.75030640704513        1.44047282342356
H            1.83377933426368       -3.16951538345586        1.78264380723093
O            3.84089693221737        1.39262703942781       -1.25563702946274
H            3.42477885672282        1.06182880202380       -0.43656989264070
H            3.44634964772946        0.96771306589788       -2.02798467824114
O            3.34395910118044        0.47795207634034        1.40673908168746
H            4.23814304121563        0.53555312928277        1.77838725166052
H            2.77390418662095        0.83822191447104        2.10272300232843
O            3.23275418617054       -1.84420037738500       -0.36574030032526
H            2.82315710173047       -2.25632740973345       -1.14521838962225
H            3.84885638994819       -1.16345490943289       -0.67706628014087
O            2.47315706842598        3.39190749134553        0.34215933134633
H            3.31315769385663        3.22659341889211       -0.04886031422436
H            1.80874688401893        3.05901605121849       -0.24353778348444
O            2.75125138233563        2.95467649139741        3.05897223908371
H            1.84811612938368        2.81459971852076        2.74004369847729
H            2.72292165323455        3.78087440757170        3.56404795830456
O            2.49757549086753       -0.91977566787239        3.86580556674243
H            1.82942752693215       -1.40154021862345        4.34562355517943
H            3.11095417663367       -1.57641621060448        3.53179665112826
34
 energy: -56.647983453977 gnorm: 0.053115029775 xtb: 6.7.1 (edcfbbe)
H            1.42978688823884       -0.32231070297324       -0.42895546365754
C            0.38726693036740       -0.60412363589851       -0.58171827384029
H            0.12782908383165        0.61678023852385       -2.27900462489565
H            0.31143247541013       -1.54495134743134       -1.12675004773990
N           -0.27686226593758        0.48864164327131       -1.34373594617141
H            0.27949517621666       -1.47204851093572        1.38631956911787
C           -0.23783947123594       -0.71337727576285        0.79831595696943
O            0.27271593470104        1.65410294082681        0.94133332775578
C           -0.10588676112205        0.64330554174947        1.60493143590138
H           -0.12420612420779        1.32869425133060       -0.72769087139361
O           -0.47239665398951        0.58281513276608        2.79268165469856
H           -1.28472304809741        0.31790526397153       -1.42776911423162
H           -1.29957965010265       -0.95730993097581        0.77537025423296
O            2.78042923016739       -3.17707256217297        2.11225238756611
H            3.27507379433512       -2.72919683112467        1.39315525599672
H            1.85471939262313       -3.18891779920555        1.80390976127685
O            3.85635827611948        1.38420613119633       -1.23813524848068
H            3.47634661373047        1.05023927523047       -0.40040953841063
H            3.42903822209609        0.95335950979827       -1.99442990184418
O            3.36412832963055        0.47992909863241        1.35348465118611
H            4.24383361071411        0.53886820593782        1.74910751161710
H            2.77600575715017        0.82458821498485        2.03451392520039
O            3.24162001569973       -1.87723242024412       -0.38281721804504
H            2.87496548951893       -2.29270835255009       -1.18765117052625
H            3.86669164470803       -1.18774592332258       -0.66087049287980
O            2.48617165826994        3.51427033986411        0.30922481708511
H            3.32418767922861        3.19787217307611       -0.09094970631661
H            1.79429962934043        3.05382118175254       -0.21437668673812
O            2.73740223478637        2.93581759307335        3.09393625217588
H            1.85209738059783        2.81128859323599        2.73685729711942
H            2.70922991394724        3.76341218876758        3.57964092217101
O            2.53599883558734       -0.90420449472988        3.92772893399772
H            1.81321276012145       -1.36850164553172        4.36779805080300
H            3.07314401755787       -1.61835508513150        3.51650734030313
34
 energy: -56.650452169534 gnorm: 0.067751799386 xtb: 6.7.1 (edcfbbe)
H            1.42823487464061       -0.35581927496780       -0.42975686733123
C            0.38121127390739       -0.61813432606108       -0.58049700478245
H            0.13179272644798        0.64095500417950       -2.25326335518180
H            0.29783190160504       -1.55694866042209       -1.12623326504089
N           -0.27698911205182        0.48551745657260       -1.32528745568435
H            0.25710846350785       -1.44928320895095        1.40923831196742
C           -0.25514634825646       -0.70697860437889        0.79526230303411
O            0.23507625314391        1.65074962451578        0.95057930011869
C           -0.16819260122197        0.66198377074770        1.58392165772582
H           -0.11638556450743        1.30233707509485       -0.65900387432609
O           -0.52558499952592        0.61888586846828        2.76464151057783
H           -1.28508345601463        0.32274386682165       -1.41440516569189
H           -1.31300520377248       -0.96881323029835        0.75762593266314
O            2.78806208080289       -3.12760000605484        2.11933868551038
H            3.28537196855926       -2.72917187723073        1.39503179999531
H            1.89537165869024       -3.19077628727539        1.78346568435350
O            3.85218904553515        1.39994478515928       -1.22238946674892
H            3.52417095412938        1.03011987554180       -0.37665050852871
H            3.44098107490579        0.93429793688064       -1.95486904289936
O            3.37947739267180        0.46763313954621        1.31097610090497
H            4.24708357763657        0.54325001977513        1.72197917164902
H            2.77622605280785        0.82138232635263        1.97138238806439
O            3.29475256926844       -1.92714324758336       -0.41146772885171
H            2.90683574412620       -2.31838313724387       -1.19041555061764
H            3.87861447590272       -1.22031556491303       -0.69002345404941
O            2.51663459353969        3.54890036040476        0.28989419811755
H            3.33445221448262        3.20041033140487       -0.12852578120535
H            1.78216680509479        3.13171671854442       -0.18313911118708
O            2.73770796842712        2.87856376802193        3.15135663224547
H            1.85261254643226        2.82495962619573        2.68799428584338
H            2.68967760939603        3.76788388453114        3.56783377896410
O            2.55022770718654       -0.90400041108487        3.95505674277330
H            1.80928025904060       -1.32942991033697        4.40802118110807
H            3.03922249346582       -1.64757669195821        3.51413296651394
34
 energy: -56.649689796653 gnorm: 0.099334594436 xtb: 6.7.1 (edcfbbe)
H            1.43118858122945       -0.38970768289994       -0.43678324099304
C            0.37714106024036       -0.62394712965656       -0.57731424383403
H            0.14054358116993        0.66192342346903       -2.22791447779567
H            0.27818234216426       -1.56232720978140       -1.11717540979274
N           -0.27314949726472        0.48440058739405       -1.31084675317205
H            0.24192314254225       -1.42558636966139        1.42784863540929
C           -0.26436196636797       -0.69748359111265        0.79644163252944
O            0.18107152782906        1.65679701126098        0.95256106910727
C           -0.20868271802043        0.66752843413234        1.57382231929346
H           -0.10964036376632        1.27997976081011       -0.60316630097445
O           -0.55932745891572        0.65295180725226        2.74835596871293
H           -1.27891577370785        0.32627568691369       -1.40512624730772
H           -1.31827488620917       -0.97932915955079        0.74867001314993
O            2.81280908893279       -3.08341008174994        2.12622132303621
H            3.28143740673277       -2.71720580062670        1.36844673823084
H            1.92920052288531       -3.21754619839086        1.79483681320996
O            3.85412805386185        1.42135603473243       -1.21673588052493
H            3.57346546902315        1.02343628439046       -0.36260586472481
H            3.45379279188146        0.91392633369600       -1.91820858415616
O            3.39350643166060        0.45429484358632        1.28092942960476
H            4.24966120002894        0.55033477443352        1.70399053350595
H            2.77416268195736        0.81424146010603        1.92177002206110
O            3.31592571115494       -1.96060873730414       -0.43484600970996
H            2.96078826991948       -2.34831375710655       -1.22181588264564
H            3.89497623525344       -1.25084827634694       -0.69222271480874
O            2.52713679719053        3.59036086934318        0.24490282092436
H            3.32733302509999        3.22085616470956       -0.17654310720747
H            1.76930873257867        3.17286013384095       -0.18059774934426
O            2.68721422929113        2.93158922459265        3.11451807194628
H            1.85646420331085        2.76588492348335        2.76246307526731
H            2.69417113259114        3.72599144104343        3.59790630814976
O            2.53686242609772       -0.92677841665353        3.93120388853717
H            1.81932365501478       -1.29742615032667        4.44829629812519
H            3.02262136461461       -1.65260963802413        3.53052250619444
34
 energy: -56.655085748313 gnorm: 0.058636305567 xtb: 6.7.1 (edcfbbe)
H            1.42935838371177       -0.39912877499953       -0.43731135047836
C            0.37172762570378       -0.62468403493344       -0.57092942564586
H            0.14794799504296        0.66632096427518       -2.22027854743790
H            0.26375257334182       -1.56367253642068       -1.11009807306344
N           -0.26947888590402        0.48746059779745       -1.30724786163819
H            0.24761749551850       -1.42436593798372        1.43436644939091
C           -0.26678823031537       -0.70208376958150        0.80583096479158
O            0.11920972249328        1.68864370798698        0.89176705630142
C           -0.20823598527124        0.66531462825691        1.57320510109521
H           -0.11011064320571        1.28171355920221       -0.60370926786758
O           -0.52900337247205        0.65397869081167        2.76541472351892
H           -1.27405648128143        0.32983080531216       -1.40719483565113
H           -1.31934842279265       -0.98981804050651        0.76069639268535
O            2.84940163942480       -3.05622745810255        2.13369134861936
H            3.26921364124777       -2.68528096326285        1.31536442502104
H            1.92408790671870       -3.26344646480938        1.84545841314300
O            3.85966633943045        1.42847479991992       -1.22020341034168
H            3.59095852382845        1.04042800837969       -0.35378072001169
H            3.44078150814866        0.90599780020215       -1.91066129990367
O            3.39246444978920        0.44188622776662        1.27492096348126
H            4.24776922203002        0.54836322621296        1.70179013886071
H            2.76881200708673        0.81997734037182        1.90546506349400
O            3.27651287927844       -1.95944814862899       -0.43524529583927
H            3.01712234498732       -2.38380509670692       -1.29094069418061
H            3.91425225048716       -1.25673770266160       -0.64498700967729
O            2.53939463675087        3.60012425901132        0.25278550602577
H            3.31573579787495        3.24628519016072       -0.19166795596232
H            1.76361945633921        3.16242200405493       -0.14697933955349
O            2.70424842443481        2.89438994750559        3.14899845195228
H            1.85867958693668        2.77172658429066        2.71468792250784
H            2.68458816536057        3.72892355329825        3.60205920857876
O            2.54348694445851       -0.91828648732911        3.94674286419933
H            1.81903995367574       -1.27932096309385        4.46129868244100
H            2.98955954714639       -1.67409451579863        3.50849641114929
34
 energy: -56.654212809754 gnorm: 0.070178709518 xtb: 6.7.1 (edcfbbe)
H            1.42563846228383       -0.40387143154885       -0.43414259202589
C            0.36478977252161       -0.62422236008919       -0.56440590048713
H            0.16402521649109        0.66800841697494       -2.21894075520469
H            0.24765875034454       -1.56825216241898       -1.09707649187684
N           -0.26553192714867        0.48740637880309       -1.31189678230317
H            0.25008962767083       -1.41319969688931        1.44549770920478
C           -0.27101671459312       -0.69480705031836        0.81643720923502
O            0.08681895726305        1.71545221048043        0.88410725380392
C           -0.22068695335939        0.67404552834558        1.57730232479685
H           -0.11933438894341        1.28403648249308       -0.61152673548643
O           -0.51793998301184        0.65232249473511        2.78272014288752
H           -1.26853856622410        0.32651810828761       -1.42337213381207
H           -1.32186702077500       -0.98945981542927        0.77072175172792
O            2.84094098474627       -3.14866520522229        2.09651921188299
H            3.29282134010512       -2.66915227885828        1.39277694394195
H            1.94537849121010       -3.18271363348270        1.81190174311894
O            3.87614080464250        1.43120546930305       -1.21663830655422
H            3.59676208308096        1.06163524374941       -0.35258560952096
H            3.43938519253080        0.90972743779906       -1.90589659663107
O            3.39915644637633        0.43548018549087        1.26576714723022
H            4.25086823033810        0.54504221251716        1.71084800054801
H            2.75916616773676        0.81128225803107        1.88643262026135
O            3.33130379469970       -2.00471458562950       -0.45868885112595
H            3.00918065887390       -2.38632525716814       -1.27786189737888
H            3.92568060998663       -1.27414831234917       -0.67728336912003
O            2.53641528737759        3.63661921358520        0.25541374006632
H            3.30863804488045        3.20712921918779       -0.19996476582014
H            1.75927938903929        3.18426996586658       -0.12795520103607
O            2.70367400857028        2.84029647272049        3.17887941441780
H            1.84574470815557        2.77065225574307        2.70000584775905
H            2.67166315053230        3.75069237048761        3.56750692868355
O            2.53562379170051       -0.91483154257712        3.94107321036696
H            1.81850240621465       -1.26408636409839        4.47204436935691
H            2.97155617668788       -1.67151122852394        3.51408541909770
34
 energy: -56.654552833829 gnorm: 0.067170683238 xtb: 6.7.1 (edcfbbe)
H            1.42548690339716       -0.41671060061408       -0.43498421194406
C            0.36129274835373       -0.62555968700049       -0.56285539853916
H            0.17836788507186        0.66806383090117       -2.21753204896365
H            0.23381106717306       -1.57471243168459       -1.08395056337675
N           -0.26276577259091        0.48196443773002       -1.31795018168664
H            0.23893794550120       -1.39462438745303        1.45643980336511
C           -0.27733397580427       -0.67977632282152        0.81818889692746
O            0.10310455263916        1.70150952120784        0.93863856555971
C           -0.24393257414484        0.67923299847800        1.58056343484468
H           -0.12945701270315        1.27762957192285       -0.60820594036843
O           -0.55248865655243        0.66336357422532        2.77699423883154
H           -1.26350173958010        0.31775403676202       -1.43965337278202
H           -1.32615357574529       -0.98140299191056        0.76703768037230
O            2.87493244092022       -3.14613360837917        2.09235058582205
H            3.28311903551752       -2.64069503978893        1.36186620805672
H            1.94973893688729       -3.19079830913771        1.85866981352011
O            3.87578043393639        1.44613115264360       -1.21848784292040
H            3.60932597606928        1.06717146177152       -0.35616678595095
H            3.44814130396817        0.91231497031197       -1.89874180222545
O            3.40047899789278        0.43204304613142        1.26418881551634
H            4.24823074428260        0.53492226698973        1.70386370623117
H            2.76674876006904        0.80413547341863        1.88288115769184
O            3.33616571555273       -2.01028580430320       -0.46863397660439
H            3.03733960729420       -2.40678695143333       -1.28467712271226
H            3.93857832558423       -1.29969004355375       -0.68920936763284
O            2.54055712339082        3.61190533015934        0.24327749028425
H            3.29728401708499        3.24576052552473       -0.21495854729124
H            1.75891744988212        3.22276989376774       -0.13184374284414
O            2.69061948808644        2.84870750547961        3.16129020219014
H            1.84316589575720        2.76798813283039        2.70784448096831
H            2.68691394705399        3.71762071996559        3.57983280794280
O            2.57260340653550       -0.88947263265190        3.99000320098983
H            1.80798718533104       -1.24403516758358        4.47226793141234
H            2.91999041389384       -1.71844347190828        3.46345688532028
34