37
 energy: -59.883624010022 gnorm: 0.000746977235 xtb: 6.7.1 (edcfbbe)
N            0.37154345057073       -1.46766390419409        0.68885532435653
C            0.69721201880374       -0.04676522929458        0.92372181141109
C           -0.05122777817722        0.85060126511491       -0.06086121090665
C            0.14139331575694        0.43380307596219       -1.52154196136087
C           -0.88652770074569       -0.59429254263185       -2.01862531969963
O           -0.95281010468473       -0.80103781765337       -3.25015048868356
O           -1.58886703249444       -1.19497338780107       -1.16744228928516
H            0.29706583745621       -2.04150419567510        1.55495271732200
H           -0.53118077230466       -1.51567528901386        0.17231587716170
H            0.41505287526091        0.23273990799288        1.93830002942143
H            1.77132218959873        0.09431518274883        0.80345483813661
H            0.29497439830758        1.87551886546787        0.06917520150027
H           -1.12019425974258        0.82643693047770        0.16360894079603
H            1.12593049523280       -0.01227437831075       -1.67951222303784
H            0.06662879871929        1.29077389200461       -2.19320472104420
H            1.09095103907298       -1.89146145298175        0.06724652418846
O           -2.37179766784008       -3.79006259638110       -1.31343855620154
H           -2.25944339951718       -2.82069904485675       -1.23130658461337
H           -1.98854590459822       -3.99296026193594       -2.17920049460981
O            2.38172862970342       -4.13401077304179        3.94072711311939
H            2.88408015202607       -3.31662754527433        4.01311110049882
H            1.54274084296106       -3.89401603253066        3.50824499685370
O           -1.41314292074903       -4.84065520080425        1.03799259968729
H           -1.74502522400517       -4.45998831981339        0.20017242436182
H           -2.00958061201550       -5.56132082743440        1.25729164155310
O           -1.00402761789814       -3.43384821956774       -3.81201597969979
H           -1.04467659775268       -2.46360970409533       -3.64804285987140
H           -1.23404444262838       -3.55097375481976       -4.73894263439143
O            2.40129177058019       -2.28767738007802       -0.99403433340073
H            2.10211358771524       -2.87032724689554       -1.71666215571079
H            3.18192933828951       -2.70979730622669       -0.62126332341554
O           -0.04273111993126       -3.22884632411132        2.76379350135197
H           -0.71433518469333       -2.99954355847929        3.41378123974857
H           -0.46156541189058       -3.88133922072923        2.16673178278716
O            1.53473828941660       -4.08560471850085       -2.88720237412996
H            0.65242436518753       -3.85636275748105       -3.23272492348908
H            1.51169935701303       -5.02741812918881       -2.68830523071918
