37
 energy: -59.707498940479 gnorm: 0.211470832183 xtb: 6.7.1 (edcfbbe)
N            0.05814800000000       -0.92758300000000        1.46960700000000
C            0.21195900000000        0.51002000000000        1.25738900000000
C           -0.42029600000000        1.02660100000000       -0.05399500000000
C            0.23290900000000        0.51099500000000       -1.35178600000000
C           -0.12525300000000       -0.89643600000000       -1.75561800000000
O            0.43258500000000       -1.42088200000000       -2.86197900000000
O           -0.94795900000000       -1.55110300000000       -1.13717200000000
H            0.42854800000000       -1.16686800000000        2.41684100000000
H           -0.95187600000000       -1.19383100000000        1.43153800000000
H           -0.27873900000000        1.04478500000000        2.10014800000000
H            1.29199600000000        0.77262900000000        1.27882300000000
H           -0.26331200000000        2.12751800000000       -0.03828000000000
H           -1.51695700000000        0.85134800000000       -0.07337000000000
H            1.33463900000000        0.61768200000000       -1.26361400000000
H           -0.10456000000000        1.15854300000000       -2.18948000000000
H            0.61816600000000       -1.46341800000000        0.77094700000000
O           -2.57723000000000       -4.38675900000000       -2.46642100000000
H           -2.85917600000000       -3.43760900000000       -2.48162500000000
H           -1.90217700000000       -4.43349700000000       -1.74341900000000
O            3.38455900000000       -3.64312800000000        2.76232700000000
H            3.67240500000000       -2.85332400000000        2.23891000000000
H            2.42039200000000       -3.49175000000000        2.92989800000000
O           -1.89640300000000       -4.10827600000000        1.86783300000000
H           -2.55801900000000       -3.52376000000000        1.41926100000000
H           -1.97118600000000       -3.87661000000000        2.82770400000000
O           -0.98048000000000       -3.79970900000000       -3.85201700000000
H           -1.39712800000000       -2.91948900000000       -4.03153800000000
H           -1.23364100000000       -4.35736300000000       -4.63018400000000
O            1.67972400000000       -3.99149800000000       -1.28522500000000
H            2.66939800000000       -4.00184800000000       -1.25286000000000
H            1.40151400000000       -4.61571000000000       -0.56858600000000
O            0.20468900000000       -3.76660400000000        2.65296100000000
H            0.12124600000000       -4.68923600000000        3.00281500000000
H            0.27686600000000       -3.87891600000000        1.67174300000000
O            1.31481900000000       -3.77729500000000       -3.43598600000000
H            1.12028100000000       -3.33744800000000       -4.30160800000000
H            2.15464600000000       -4.27731900000000       -3.59498200000000
37
 energy: -59.756923930958 gnorm: 0.109071876282 xtb: 6.7.1 (edcfbbe)
N            0.06042424444073       -0.92759247966528        1.47351053373903
C            0.21083830441909        0.51890613758292        1.25762119408637
C           -0.41119510497101        1.03351503127317       -0.04748574445525
C            0.23723110109375        0.51785324949784       -1.34166853080121
C           -0.13444182383568       -0.89737841076556       -1.76464061640601
O            0.41100662202461       -1.33997806656902       -2.84651340597771
O           -0.95833869760284       -1.55856567849373       -1.11601647080090
H            0.41898489038715       -1.18425293026886        2.40810500141006
H           -0.93331624294798       -1.19992410452070        1.41566082827970
H           -0.27501832468515        1.04438518142946        2.09064508527482
H            1.27897559476431        0.77274537051379        1.27091269222513
H           -0.27443071897152        2.12311062977898       -0.03988392178889
H           -1.49169568808430        0.83766302767760       -0.07208532781003
H            1.32938172500884        0.61162942680625       -1.27757218308174
H           -0.09001617996012        1.15383262233188       -2.17793147523138
H            0.59002707338719       -1.46175602775432        0.76768901149517
O           -2.69949670168838       -4.41480519689471       -2.35200761241272
H           -2.85684843959480       -3.45054605096812       -2.46496089413551
H           -1.90643533859672       -4.43028301336233       -1.76418893548352
O            3.37403667147281       -3.63414547432292        2.75967993619682
H            3.66805021026679       -2.85870717770543        2.25278463128948
H            2.42201239989130       -3.49255388237513        2.92439574630437
O           -1.96805336660302       -4.11816007733297        1.85853799585269
H           -2.58775140738555       -3.52369036946867        1.41306568972826
H           -2.00001316118734       -3.87464080369636        2.80219295819796
O           -0.95839136330555       -3.78374238733172       -3.93402643065033
H           -1.38397898630779       -2.92053043878681       -4.05693689108998
H           -1.25878496831161       -4.35043580772795       -4.66265505751193
O            1.69506283881348       -3.97415990939463       -1.19922827287458
H            2.66815954350333       -4.01809913810676       -1.23348839769683
H            1.42530326697970       -4.64280629831557       -0.54585453144867
O            0.34986011172507       -3.76997257728153        2.66794427392526
H            0.12832121935436       -4.66718308591290        2.99766744477221
H            0.27048062747274       -3.87237034214956        1.69261700828284
O            1.36822271702076       -3.78764644179556       -3.47852614072209
H            1.14332553370367       -3.33939092273409       -4.30956942420033
H            2.18359881830967       -4.28747158319079       -3.63878976648056
37
 energy: -59.776708271841 gnorm: 0.042525845923 xtb: 6.7.1 (edcfbbe)
N            0.06004432557546       -0.92729890852643        1.47089115966709
C            0.21530468408020        0.52905763333975        1.26096890851462
C           -0.40424472187086        1.04077558395337       -0.03649106788930
C            0.24150534382316        0.52749514357444       -1.32626745272370
C           -0.14839514110172       -0.89745370262253       -1.78071066514099
O            0.36849200276808       -1.27018654141429       -2.83777614860005
O           -0.96154980282739       -1.55293285945239       -1.08309261314014
H            0.40716816783864       -1.20939198258025        2.39373515861015
H           -0.92243345626086       -1.20072926780604        1.38578735152586
H           -0.26985860964664        1.04284419954126        2.08816570740270
H            1.27592027130339        0.77045333582164        1.26655899764796
H           -0.29121092034329        2.12339021979532       -0.03227088997614
H           -1.47018559367218        0.81490493488888       -0.06945748421762
H            1.32848466994715        0.59485753630366       -1.28502501570896
H           -0.07557596400588        1.15628412410037       -2.16147752699905
H            0.55605077938432       -1.45849196774698        0.74909622711241
O           -2.73613165892040       -4.40820294923431       -2.31131510836092
H           -2.88264665995980       -3.46902903548941       -2.42276866127099
H           -1.94199391645842       -4.44085268832944       -1.76780230366144
O            3.36606468184198       -3.61952918232462        2.76189086466770
H            3.66348343484454       -2.85685884823677        2.26490869518258
H            2.41400980822766       -3.50884011133289        2.90134038989812
O           -2.00998370195707       -4.11574434887053        1.85348163919967
H           -2.61513979129413       -3.53576762279325        1.40177380235438
H           -2.03105913490275       -3.87654338585432        2.78477307068304
O           -0.98728343648025       -3.78447474956454       -3.99850828922992
H           -1.37323052927837       -2.91565746333649       -4.08785276113676
H           -1.31163814223896       -4.34856116216154       -4.70021267871285
O            1.71370842605756       -3.94010134615967       -1.08299796234299
H            2.67118939451575       -4.03168295780920       -1.20767294524056
H            1.45839788021306       -4.68824129085384       -0.51825956398880
O            0.39142285467659       -3.76200291567490        2.66235578624223
H            0.18537521071999       -4.63290439267876        2.99726451394677
H            0.28889157928441       -3.85943756876896        1.70972246031226
O            1.45123352073851       -3.80756753933069       -3.51129461503139
H            1.17983721651032       -3.33791280546514       -4.30202842911956
H            2.24107392886807       -4.31081311690081       -3.70043255047534
37
 energy: -59.788055447892 gnorm: 0.065090695537 xtb: 6.7.1 (edcfbbe)
N            0.05538752415796       -0.92923955845532        1.45763030144502
C            0.22353644234237        0.53277956510685        1.26960354443102
C           -0.40235216918815        1.04515914491651       -0.02136636663428
C            0.24647076795326        0.53611738118843       -1.30578206347723
C           -0.14922880546639       -0.89963813965082       -1.78263310009883
O            0.30050324199588       -1.21650130979982       -2.88843964683585
O           -0.95921992981341       -1.54167317237978       -1.06390355273494
H            0.39573984040466       -1.24040439343094        2.37404021757735
H           -0.92816964366590       -1.19490218920117        1.34918771611479
H           -0.26160461083302        1.03811418881389        2.10154790281868
H            1.28592012974770        0.76447090573698        1.27002417162133
H           -0.31238267075379        2.13056106718467       -0.01540254215102
H           -1.46193565110019        0.78957892965993       -0.06095128305874
H            1.33517892425888        0.58015499584956       -1.27360191648442
H           -0.06463390626049        1.16743454749258       -2.14159273077502
H            0.53054788572483       -1.45334354845769        0.71442067102800
O           -2.80630369952535       -4.40507140388945       -2.24086313357549
H           -2.87478854552508       -3.44965980582669       -2.40166573422068
H           -1.92312554394490       -4.45421765158516       -1.79959806020730
O            3.35378923082123       -3.60752974205759        2.77667405560074
H            3.66212772804390       -2.84572832889484        2.28492058937823
H            2.38928106508119       -3.52563793391870        2.87024446480361
O           -2.01664935356712       -4.10232184424358        1.85664107175386
H           -2.63562617576576       -3.55169753532348        1.38005819366009
H           -2.07067177515399       -3.87018211068669        2.78483733171299
O           -1.02215016102847       -3.81028401464820       -4.05316387989729
H           -1.35732718432922       -2.91216386641650       -4.10743745760873
H           -1.40059441171463       -4.35208950822830       -4.75083228619589
O            1.72965553831382       -3.90573445821525       -0.96237750210884
H            2.67526672877826       -4.03704639975807       -1.17727566034857
H            1.49296323727626       -4.73875915248689       -0.48621181386561
O            0.50427453458108       -3.74748289097170        2.65123386739266
H            0.20101128380514       -4.60011360781888        3.00551087328769
H            0.26543392321290       -3.84252880679221        1.69733903642484
O            1.54014243384078       -3.83358961467092       -3.51825541000783
H            1.19650222989510       -3.33633490016992       -4.27332389371659
H            2.30812854740051       -4.34764283797141       -3.79023597504757
37
 energy: -59.797155487432 gnorm: 0.055454056440 xtb: 6.7.1 (edcfbbe)
N            0.04956389984541       -0.93431331963134        1.44190660173404
C            0.23187977516271        0.53119345346296        1.28005505481879
C           -0.40037045031078        1.04489446508674       -0.00595055688474
C            0.25016611549159        0.54682310782797       -1.28864198198681
C           -0.18052761583935       -0.88684081638113       -1.80014181459290
O            0.22950150144504       -1.17119528997120       -2.94235726289351
O           -0.94922074298096       -1.53603355835544       -1.04256890697160
H            0.38442105351784       -1.27774928080587        2.35112651221092
H           -0.93811941817136       -1.18783758780671        1.31020212723902
H           -0.24957586550676        1.03020208390464        2.12049383977475
H            1.29753707836001        0.75494793325718        1.27584564931434
H           -0.33593562109677        2.13489590751254        0.00347701311087
H           -1.45503985090440        0.76304082615522       -0.04814748248796
H            1.34237580821608        0.56009508266824       -1.25759511917319
H           -0.04751342586503        1.19144367864036       -2.12122815544634
H            0.50681733877039       -1.44856782921086        0.67578100201852
O           -2.83796537489431       -4.39802689329353       -2.18787192771022
H           -2.90039788891645       -3.45066429515145       -2.36745569806104
H           -1.97120163688722       -4.47846015581689       -1.77066843654864
O            3.35312660141483       -3.58940581778557        2.79515669732237
H            3.66139046032193       -2.83081862011626        2.29330585154802
H            2.36894584923903       -3.55231260858605        2.81913477575777
O           -2.06084378647557       -4.10081714798949        1.85114132524795
H           -2.68575569041183       -3.56388536431047        1.35312777370662
H           -2.13190119040515       -3.86191478056124        2.77929958585405
O           -1.01223122575961       -3.82695112993251       -4.13930086370744
H           -1.32217406435105       -2.90764332780656       -4.13806214941680
H           -1.48822293081563       -4.34529691077241       -4.81942588500792
O            1.75231983292950       -3.94329004532864       -0.86809958893250
H            2.67324351452389       -4.00897606126316       -1.09877447358256
H            1.52264354038685       -4.73309382697740       -0.39675246584215
O            0.54402773787414       -3.72239784463219        2.63816912064472
H            0.26035337895824       -4.56049797866333        3.01852738716140
H            0.32972426991798       -3.80768969480400        1.70595522233398
O            1.64892092235868       -3.86676120542982       -3.53237809896193
H            1.21906271233322       -3.34065214646111       -4.24179997639892
H            2.38607238852428       -4.39259100067190       -3.91648469519085
37
 energy: -59.801304277912 gnorm: 0.091303826093 xtb: 6.7.1 (edcfbbe)
N            0.04394255788811       -0.94463404329681        1.42576548153983
C            0.23695254179783        0.52001293816212        1.28594017164774
C           -0.39997130063472        1.03756945272019        0.00214617935962
C            0.25221665123979        0.55644632105849       -1.28620593161150
C           -0.23461771146597       -0.86010332740765       -1.82712128595676
O            0.17158368501306       -1.15507919094490       -2.96302992013929
O           -0.95511636568338       -1.52412636280672       -1.04196698168979
H            0.37721212160723       -1.31345779202555        2.32674172565754
H           -0.94829597588159       -1.18339931357783        1.28191119522272
H           -0.23463811619009        1.01516309943020        2.13718117648053
H            1.30515914012823        0.73963823072881        1.28141968801193
H           -0.35345849666702        2.13004349603566        0.01988358558171
H           -1.45233742244603        0.74600893442846       -0.03415546518300
H            1.34585543911226        0.53725206313026       -1.23628741709364
H           -0.01842104893061        1.22492924170075       -2.11159740044595
H            0.49205828569470       -1.44696243536324        0.64366677928083
O           -2.86172803087753       -4.38138335543615       -2.14741932527639
H           -2.93364660151932       -3.44837089627328       -2.32506308806346
H           -2.00991945558862       -4.50275223517885       -1.75575679052034
O            3.35310942279577       -3.58173622182417        2.80238005203005
H            3.65877928514940       -2.81895344772195        2.30049554322823
H            2.36592709892711       -3.56191721940356        2.79575736282000
O           -2.07650576405450       -4.08751274524389        1.84422507396854
H           -2.72543273879204       -3.58630553606754        1.33076756419802
H           -2.19671393617299       -3.86024549580645        2.77602475553140
O           -1.00332135208977       -3.83410582889734       -4.20537412135497
H           -1.30039310062722       -2.91405176354243       -4.18079189616264
H           -1.51992179357927       -4.32562100964118       -4.87506732179765
O            1.75157265196124       -3.86747421326735       -0.70587594114820
H            2.66089581847719       -4.00066042715670       -1.10804648204182
H            1.56973988501763       -4.81131367009142       -0.37840580523705
O            0.58212857394317       -3.69539997244346        2.61630616690356
H            0.32076044215997       -4.51605107356859        3.02954856035873
H            0.34974148230275       -3.77565035709723        1.69906224734824
O            1.73246912913159       -3.87779641622442       -3.51934426085207
H            1.26604125562411       -3.38397790562544       -4.21090760758584
H            2.43339074322861       -4.41516952146182       -3.95780626700879
37
 energy: -59.807693057148 gnorm: 0.066221999451 xtb: 6.7.1 (edcfbbe)
N            0.04016273263683       -0.95562671947887        1.41302472530833
C            0.23863834341288        0.50527921868684        1.28549683509793
C           -0.40150139475565        1.02903598251221        0.00289447835169
C            0.25552434151825        0.55940229841290       -1.29180725774911
C           -0.25952136947280       -0.84463667252545       -1.83069569935028
O            0.11654517875589       -1.15049982895754       -2.96685188298024
O           -0.97570069364872       -1.50663606299134       -1.06247020035077
H            0.37446617313992       -1.33843624769186        2.30619424983092
H           -0.95433501588392       -1.18206888272913        1.26942868403189
H           -0.22243349324532        0.99893139186585        2.14456691235003
H            1.30735299910657        0.72494178012791        1.28422516674572
H           -0.36385577310358        2.12104330639275        0.02981724008410
H           -1.45286517770827        0.73768760479843       -0.02423229685857
H            1.34611350038103        0.52133571512016       -1.21469513035470
H            0.01263478267157        1.24610905938715       -2.11204305685576
H            0.48747762917063       -1.44818584307984        0.62580677838772
O           -2.92065716252834       -4.36539404157767       -2.09423676086811
H           -2.93303834095007       -3.42229861287902       -2.29558085584113
H           -1.98293188747438       -4.52413705948212       -1.80201834939307
O            3.35270953788108       -3.58033516311570        2.80175097828878
H            3.65432781230428       -2.81232721881362        2.30496294778037
H            2.37684604314969       -3.55391843915850        2.79738240856157
O           -2.05479081979326       -4.05965887507233        1.84017987323910
H           -2.74201609353182       -3.61150264277260        1.32207698509876
H           -2.24637408917854       -3.86537302816088        2.77604514915961
O           -1.03387787944862       -3.84999843045579       -4.22645343696453
H           -1.29485717877275       -2.93046791248889       -4.21513481025157
H           -1.51786935833004       -4.30191069364249       -4.90799499357467
O            1.76149539663293       -3.90799473246344       -0.66332407659445
H            2.65171808924736       -3.94881595282002       -1.04443664136228
H            1.58225209347503       -4.78694637478977       -0.30664143902293
O            0.64504076055673       -3.67515112714358        2.59479662686769
H            0.34694171639942       -4.47842922864444        3.03795165993820
H            0.29603882143258       -3.75869209431176        1.67303039008688
O            1.77274273885955       -3.90786597805949       -3.53869271730836
H            1.32204821414612       -3.42937559623251       -4.21034347803222
H            2.46064582294632       -4.41423089776659       -3.97297900549661
37
 energy: -59.811541101569 gnorm: 0.067032993735 xtb: 6.7.1 (edcfbbe)
N            0.03857172938385       -0.96879058436441        1.40015476424414
C            0.24034715682723        0.49057509188581        1.28035026347495
C           -0.40433922819150        1.02846965546355        0.00539314822004
C            0.25613421044865        0.55625288145020       -1.28920965979024
C           -0.24264015047320       -0.85014668184214       -1.80418203558679
O            0.02596580903202       -1.10899672907646       -3.01462829477966
O           -1.00254926954358       -1.49220152939793       -1.07706430507700
H            0.37523297139020       -1.36160903955768        2.28617040588011
H           -0.95516685045713       -1.18906636180599        1.26350325136653
H           -0.21536003164259        0.98095169086581        2.14213830489854
H            1.30806268975914        0.70957598433760        1.27906037438992
H           -0.36840922036352        2.11796919034264        0.03772591797994
H           -1.45418861953466        0.73237136288025       -0.02004168370626
H            1.34193672655458        0.50861232492908       -1.20168275355108
H            0.03274325735502        1.24913294644182       -2.10760266311648
H            0.48459191263907       -1.45616515161342        0.61212482145970
O           -2.92505228955118       -4.36187350207985       -2.07600687028943
H           -2.92284327679983       -3.41667903189844       -2.31151394563758
H           -2.02555454531930       -4.52417431251810       -1.77006642968194
O            3.38049591033473       -3.56731189360844        2.81507322930956
H            3.66208066397923       -2.80897031990964        2.29763670070182
H            2.40204391535612       -3.56237631823640        2.78363785022023
O           -2.07129660943342       -4.04723421492079        1.83411644176071
H           -2.76269851679432       -3.61726952736858        1.31954041095688
H           -2.28296144579645       -3.86832090423068        2.76470728402155
O           -1.00789645546714       -3.87041971944138       -4.26207814711293
H           -1.24300645905474       -2.93367369451272       -4.20192520860366
H           -1.55496960973747       -4.27770828194565       -4.94696499057379
O            1.76774683176369       -3.91436754952213       -0.60255009820052
H            2.63971444229259       -3.91861137900243       -0.98418238895056
H            1.59066939164369       -4.79608006545199       -0.26826204073644
O            0.63750508560828       -3.64386801524594        2.57913583309697
H            0.33820208280197       -4.43889563129310        3.04530075474221
H            0.32378121265138       -3.74562199679646        1.66947100240787
O            1.85334504158783       -3.93045208045689       -3.52360445816100
H            1.27123587880450       -3.44846010522161       -4.16161259705557
H            2.51362265794473       -4.42171450727867       -4.06306218852112
37
 energy: -59.816551820752 gnorm: 0.052876972363 xtb: 6.7.1 (edcfbbe)
N            0.03622266496451       -0.98550741895444        1.38409639590985
C            0.24364607457038        0.47361794961179        1.27568270759425
C           -0.40686783263868        1.02595314942617        0.00908348188326
C            0.24251830226842        0.55841046868769       -1.29400144867620
C           -0.31250768687196       -0.81795122826478       -1.84201520356873
O           -0.00264525216880       -1.10389053218200       -3.00961753279178
O           -1.01139896093669       -1.49427886558850       -1.06361233097833
H            0.37482408476832       -1.39305636113522        2.26349349291995
H           -0.95872262186433       -1.19934150855817        1.25115284373829
H           -0.20778667469232        0.95942655640666        2.14191134822055
H            1.31205102838615        0.68931885476922        1.27120236207592
H           -0.36871359129105        2.11377285946321        0.04877335185942
H           -1.45653884133231        0.72843181197145       -0.01583921501768
H            1.32992672380243        0.47320364340135       -1.19984461722724
H            0.04678086503332        1.27522977435151       -2.09931834471853
H            0.47861138830921       -1.46807457844226        0.59160154812993
O           -2.94119913039796       -4.34377882384821       -2.05079620113074
H           -2.93078120736046       -3.40437115447758       -2.28028002109281
H           -2.03471768298002       -4.53383865551179       -1.77844413171324
O            3.40814073013518       -3.55373646894983        2.82835486756648
H            3.67806259824534       -2.80340846209412        2.29317012976315
H            2.42239165406745       -3.57494034160733        2.75848174656696
O           -2.08580365204440       -4.03306161057611        1.83283534865683
H           -2.78413621819490       -3.62908776355007        1.30814942447491
H           -2.32352234270251       -3.86805018516180        2.75739178154166
O           -0.99120359167062       -3.88492284404297       -4.30661612857649
H           -1.19570278066777       -2.93110759475721       -4.19999482306352
H           -1.60213058111864       -4.25305160377150       -4.99077696766286
O            1.75813031334173       -3.89015759628401       -0.50982570348032
H            2.61481127116298       -3.88766357923870       -0.97329757053652
H            1.61864913332194       -4.80171674226170       -0.21792897907660
O            0.63573990595119       -3.61134766364365        2.56009799352698
H            0.34613514701529       -4.39524991477133        3.04660272892087
H            0.33654751198715       -3.72474060007988        1.66459906069717
O            1.90503526139646       -3.96185687695861       -3.52160517286509
H            1.31836301490284       -3.47836923555596       -4.13958527147397
H            2.55288797530115       -4.43795485782240       -4.06428095039629
37
 energy: -59.817016713259 gnorm: 0.081184423917 xtb: 6.7.1 (edcfbbe)
N            0.03444012799384       -1.00698190841525        1.36675203367099
C            0.24797760476312        0.45148756561567        1.27381784941019
C           -0.40619934472815        1.01632924124453        0.01421625178526
C            0.23483729490912        0.54983385506725       -1.29502746767164
C           -0.36307821713280       -0.79524191806744       -1.86809463081110
O           -0.08798049652147       -1.06940783092519       -3.05467628659115
O           -1.01825306393361       -1.50219224920599       -1.06009498365284
H            0.37516398343960       -1.43332431859204        2.23862664963227
H           -0.96289125865678       -1.21416333375228        1.23902206220260
H           -0.20000376820086        0.93189170713254        2.14494452452810
H            1.31748606628980        0.66383308194305        1.26410069510656
H           -0.36496701294419        2.10342019942371        0.05974297368013
H           -1.45670648212695        0.71990910662761       -0.01107861495639
H            1.32079975663690        0.43376161854060       -1.19795813024117
H            0.06376132232811        1.28506324432759       -2.08726914095449
H            0.47464941051056       -1.48388846693502        0.56966945317007
O           -2.94739671524776       -4.31835631043393       -2.03183018985500
H           -2.96651691648642       -3.40175773382761       -2.23512550983960
H           -2.08506947811954       -4.54477658085724       -1.76009799729411
O            3.41709316144089       -3.55326672219481        2.81052585911082
H            3.70343885979278       -2.78677627307185        2.30723333558431
H            2.45184378452840       -3.54527688927849        2.77465241549345
O           -2.08528345814756       -4.00956763656926        1.83433232592203
H           -2.79917671678120       -3.65678785487820        1.28246349724423
H           -2.37801406787558       -3.86748700062331        2.75003286839095
O           -0.98044867044605       -3.85367013802831       -4.33251797615148
H           -1.19589967853918       -2.93744238308484       -4.27084767921056
H           -1.52655087132079       -4.23362945256813       -5.00175518430598
O            1.76037079387227       -3.85287696860414       -0.40360632946029
H            2.58823435874443       -3.85500593289173       -0.92645982541437
H            1.63478880607824       -4.80855365470000       -0.18642158299860
O            0.67151200510506       -3.57764726984935        2.53644502052090
H            0.36797067530553       -4.34232939930445        3.04309350787942
H            0.28981765704739       -3.70375522081562        1.64466092032529
O            1.96186070377458       -3.97671676669251       -3.51867001144270
H            1.38616871047850       -3.51720629856214       -4.11583117759180
H            2.56731813416723       -4.47459110719473       -4.06796952521529
37
 energy: -59.819638898223 gnorm: 0.083389792261 xtb: 6.7.1 (edcfbbe)
N            0.03371516358915       -1.02026952460187        1.35612484947953
C            0.24860225064817        0.43776629601936        1.27221264169786
C           -0.40825336868205        1.00818477636615        0.01622980754410
C            0.22910202929304        0.54165956432111       -1.29617742314677