34
 energy: -56.603736291616 gnorm: 0.173839339503 xtb: 6.7.1 (edcfbbe)
H            1.42053100000000       -0.69343900000000       -0.45759400000000
C            0.31562500000000       -0.64091500000000       -0.57275600000000
H            0.37944700000000        0.34125600000000       -2.37510200000000
H           -0.02020400000000       -1.57726700000000       -1.06978300000000
N           -0.04283300000000        0.48932200000000       -1.43082700000000
H           -0.10434400000000       -1.52577500000000        1.34227500000000
C           -0.35607200000000       -0.58177200000000        0.80987700000000
O           -0.15503900000000        1.84564400000000        1.27779400000000
C            0.09900500000000        0.57829600000000        1.65429800000000
H            0.33459400000000        1.38391400000000       -1.05046800000000
O            0.66999200000000        0.37333800000000        2.71201200000000
H           -1.08151800000000        0.54834700000000       -1.53303300000000
H           -1.45918500000000       -0.54094800000000        0.69330800000000
O            2.97424300000000       -1.23221000000000       -3.85154700000000
H            2.21633700000000       -1.74158400000000       -4.23459700000000
H            3.19102800000000       -1.70579700000000       -3.00932800000000
O            2.62515000000000       -2.83402800000000        3.40454200000000
H            2.05873800000000       -2.71363500000000        2.60124000000000
H            2.01248600000000       -2.67531200000000        4.16616200000000
O            2.90571600000000        1.22915400000000        3.76574500000000
H            2.97099900000000        0.32510200000000        3.36695000000000
H            2.02190400000000        1.24012600000000        4.21225300000000
O            0.87306600000000        4.99604700000000       -1.12856600000000
H            0.48883600000000        5.18794600000000       -0.23629200000000
H            0.71586300000000        4.02767900000000       -1.26333900000000
O            0.46463400000000       -4.00358500000000       -5.05398400000000
H            0.35841300000000       -3.96560100000000       -4.07017200000000
H            0.88843600000000       -3.14062500000000       -5.29127000000000
O            1.74625900000000       -3.60761300000000       -2.40177500000000
H            2.57961600000000       -3.53597800000000       -1.87168500000000
H            1.41665300000000       -4.52417500000000       -2.22320900000000
O            2.89494600000000        3.47737400000000        0.84767900000000
H            2.02463300000000        3.79242100000000        0.49566800000000
H            3.18959900000000        2.78830000000000        0.20039900000000
34
 energy: -56.626053184042 gnorm: 0.088135608732 xtb: 6.7.1 (edcfbbe)
H            1.40167092675621       -0.68818084365444       -0.45216740933481
C            0.31315568906275       -0.65671718597491       -0.58127135071996
H            0.38238247252435        0.37103785226480       -2.36869751572354
H           -0.00705804221539       -1.58120856605020       -1.07653497581060
N           -0.04248274532442        0.48732618947176       -1.43364919777044
H           -0.12089869970963       -1.50190729902283        1.34537724686077
C           -0.36183190892084       -0.58630373748293        0.79069545655736
O           -0.13810147079084        1.78271224465587        1.20566305182767
C            0.07410082248011        0.58527870579056        1.65570799120022
H            0.30483922162267        1.36616058022268       -1.01448840811435
O            0.63595406359903        0.36701209459264        2.73376051199385
H           -1.06779821492816        0.55245021831012       -1.53305595580097
H           -1.45147054335282       -0.53702875160666        0.67806598990746
O            2.94074053192640       -1.21037903073884       -3.82787236188092
H            2.23908440480142       -1.75545985251297       -4.22331155320712
H            3.20217222344148       -1.70227001036067       -3.03058026742778
O            2.61491221151743       -2.83468794215381        3.40260239285907
H            2.05886958130456       -2.71284843638191        2.61647190260652
H            2.02313605725687       -2.68038749374576        4.15684374630954
O            2.96231200768279        1.20766479908019        3.83767102621428
H            2.97835200337643        0.35104244241602        3.37091678767014
H            2.03835406715703        1.26424070198390        4.16329309708009
O            0.88801675577340        4.98411485026740       -1.10744335035184
H            0.47498610513075        5.19415787461242       -0.25303360917826
H            0.68962982153629        4.04498634281523       -1.26168954857109
O            0.44890607025219       -3.99771949205589       -5.05090024476821
H            0.37708919604574       -3.95111832444009       -4.08151152851656
H            0.87889240842644       -3.16639056163467       -5.30961760537964
O            1.72972299959094       -3.60850013705786       -2.36073819644984
H            2.57185141020106       -3.55549880558634       -1.87975989680646
H            1.43155486585075       -4.52243407332185       -2.22285629928577
O            2.90373903109023        3.47877093833751        0.83598230237394
H            2.04436308299994        3.78842553915212        0.50196584218174
H            3.19840759383497        2.80766616980927        0.19903692945537
34
 energy: -56.633030581237 gnorm: 0.045185212748 xtb: 6.7.1 (edcfbbe)
H            1.39112566774444       -0.68958405596182       -0.45366896246825
C            0.31425256300539       -0.67901730936240       -0.59150636894386
H            0.39452486095069        0.41487831620498       -2.35582342073212
H            0.00527563307668       -1.59088227011161       -1.09161459320048
N           -0.04412373049791        0.48473273334317       -1.43090251144564
H           -0.14185994733432       -1.49884617405521        1.34360917313733
C           -0.36331053618957       -0.60300905947665        0.76935101877716
O           -0.14461312809912        1.72490686004046        1.14518441076209
C            0.11251730890167        0.60497034520270        1.60788198159230
H            0.26080938914389        1.34462684185813       -0.94640091492761
O            0.57252358351435        0.35982919549768        2.75003339831270
H           -1.05948998063465        0.54821078166053       -1.53259861377468
H           -1.44401511156893       -0.52424588508685        0.66386671940712
O            2.90929226211226       -1.19047881750027       -3.80597496668221
H            2.25481238573431       -1.76710705578096       -4.20765424030427
H            3.21639025172980       -1.68255562783878       -3.04096754247147
O            2.60294383346871       -2.84188205212930        3.40113381063792
H            2.05529630517926       -2.71080953857211        2.62880045289680
H            2.03834864629216       -2.68419545543502        4.15724061555668
O            2.97878716548506        1.21097249177986        3.85411965262240
H            3.01344186069529        0.36770085405477        3.40864050114741
H            2.06285702884982        1.27345155289700        4.14225455846682
O            0.89591596341667        4.97054374116575       -1.08307017324009
H            0.45728733918399        5.20960813774776       -0.26428396887511
H            0.64940340263433        4.05935084419738       -1.26033877047096
O            0.44128848288684       -3.99785929016070       -5.04603940132460
H            0.39998349493782       -3.92712023570093       -4.08825835472463
H            0.85664425268737       -3.19006435217993       -5.35081810876282
O            1.72954546057629       -3.62745050864886       -2.34513314765769
H            2.55622097062214       -3.56867068257364       -1.87108005954583
H            1.42910362371593       -4.52230077946278       -2.20405388871244
O            2.91444327646383        3.47137682799095        0.83181933318093
H            2.07538294746635        3.79940847857235        0.50315908485881
H            3.22654847384943        2.83551814782415        0.18796829690814
34
 energy: -56.638699827991 gnorm: 0.052781202147 xtb: 6.7.1 (edcfbbe)
H            1.39050663673019       -0.68862857751622       -0.44671567430517
C            0.31419437790256       -0.69373030459944       -0.59071591936673
H            0.41469497279819        0.45574068533593       -2.33292195309323
H            0.02177066111070       -1.60126267812554       -1.11025870190192
N           -0.04981748913544        0.48374555170299       -1.41613727116080
H           -0.16045849691289       -1.51702774886922        1.34696213622238
C           -0.37751956036544       -0.62772833398252        0.76394232415879
O           -0.05521390985790        1.71581961585901        1.03276618520400
C            0.05486002715982        0.61307525055293        1.60890337382644
H            0.21677908730773        1.33313944014871       -0.87788911327699
O            0.54872798778415        0.37190710748212        2.73256122039080
H           -1.06382923058889        0.53228112234501       -1.53594172360895
H           -1.45514476587914       -0.54212598762542        0.64399191420547
O            2.85099362897503       -1.14624457107874       -3.76786176309761
H            2.27067912800620       -1.80004753034654       -4.20246953860296
H            3.25015974720232       -1.66968781896690       -3.04903287505678
O            2.59973674381873       -2.85455754254080        3.39605994174362
H            2.04565977166798       -2.70435569564398        2.63146698189832
H            2.05623030306702       -2.68842586854913        4.16657220740511
O            3.02998906391524        1.19182503272924        3.92712103077607
H            3.04930156174897        0.37930734432169        3.41162526531225
H            2.05550134705385        1.30095037515197        4.08147784523368
O            0.93904932057771        4.95452465310370       -1.04542455810990
H            0.42051107460361        5.23848637382182       -0.27444154121092
H            0.58361781921768        4.07111176940589       -1.26505564531739
O            0.41758029773569       -4.00234742621725       -5.04036513195351
H            0.43388850328018       -3.89786304262191       -4.07957622594538
H            0.83675445027355       -3.21580346567444       -5.40674437938376
O            1.70813627327903       -3.63471691355353       -2.30952254725107
H            2.55679430840207       -3.58389572735011       -1.86920575098538
H            1.42462837076910       -4.54080428240072       -2.19506103795626
O            2.91896856917166        3.45543518335536        0.84189236266471
H            2.10456575937504        3.82687289833256        0.49250526171899
H            3.26525765980625        2.86903811201316        0.16236830082380
34
 energy: -56.640145212629 gnorm: 0.062742241740 xtb: 6.7.1 (edcfbbe)
H            1.38999861074196       -0.69811694151688       -0.44038569307507
C            0.31212459420455       -0.71641890807014       -0.59278124851457
H            0.44582760100989        0.49529984571564       -2.30207431641214
H            0.03733565563908       -1.62250370127446       -1.13195450577462
N           -0.05625602227982        0.47495705557665       -1.39891380503574
H           -0.18095870033273       -1.53527546762887        1.35391388332377
C           -0.39241166818845       -0.65328365274556        0.75664158284047
O            0.02029537953057        1.70742601499034        0.92480901252388
C            0.03425857602616        0.61424909869949        1.58556804303198
H            0.16516501225121        1.31158088727681       -0.79740558593530
O            0.50937833766130        0.39398503290863        2.71728520680603
H           -1.06993472552861        0.50003128531322       -1.55129171760233
H           -1.46982983099198       -0.56331019089464        0.62427982005557
O            2.86827794729524       -1.16596365533646       -3.78645897586074
H            2.25380339401385       -1.78242099548071       -4.17507587740645
H            3.24441471473422       -1.61602514378901       -3.03308447968750
O            2.59558393378475       -2.87576529260721        3.39782405225454
H            2.02585710009076       -2.68750887101785        2.64603373192428
H            2.08074090680075       -2.69081478143724        4.19071109377715
O            3.01100141521241        1.22161807258593        3.89719740523973
H            3.09674451744195        0.39095868196930        3.43112102175845
H            2.09322561800511        1.28184291981633        4.12402899565457
O            0.89928958153580        4.94953973950542       -1.03120814239429
H            0.40730505174971        5.25472545665450       -0.26283025642938
H            0.55778794960622        4.07458346861653       -1.24081195142638
O            0.39717450984346       -4.00152001538276       -5.03940857749249
H            0.48613726077617       -3.85577772854579       -4.07498946669869
H            0.81459889153460       -3.23669699191800       -5.47492021215406
O            1.67689779618442       -3.63673844055005       -2.27248581951522
H            2.56162757128065       -3.59596563462666       -1.88189925615842
H            1.42262333417478       -4.56417048489523       -2.19310055005255
O            2.91553110109221        3.42116743954943        0.86597519425397
H            2.15054977593106        3.87661418943606        0.46333100008460
H            3.31338880916972        2.91370470910324        0.12723539409668
34
 energy: -56.645502695158 gnorm: 0.044294085824 xtb: 6.7.1 (edcfbbe)
H            1.39004866264831       -0.70967766189945       -0.44526239170415
C            0.30920010945912       -0.73102310160549       -0.60256264760640
H            0.47076139069467        0.52491047255678       -2.27895754728575
H            0.04186757508697       -1.63957528230100       -1.14841393515443
N           -0.06236710530558        0.46805045666145       -1.39105562073587
H           -0.18607710461176       -1.53823609685569        1.35424082868357
C           -0.39369558685572       -0.65939887014376        0.74667306470836
O            0.00522783799118        1.70366670841156        0.91810138651104
C            0.09455819847360        0.61583335005372        1.53349212894457
H            0.12473301877065        1.29115398426889       -0.73510463546311
O            0.48631234300991        0.41531070242988        2.70352691715272
H           -1.07590585333432        0.47175905980043       -1.57470793963211
H           -1.47533054460011       -0.56780447409257        0.61989462037345
O            2.83333130965169       -1.14572538117589       -3.77103862859327
H            2.25281419672112       -1.80451403014806       -4.15850483292810
H            3.26489092445728       -1.57901801062673       -3.02852729035660
O            2.59532209002163       -2.89327538345025        3.39300947953447
H            2.01039275464540       -2.67528385617592        2.65140359505194
H            2.09887630641078       -2.69918090437135        4.20280055509825
O            3.03608165261051        1.20953969973547        3.95300481265725
H            3.13699361272819        0.40018100526752        3.42772920207034
H            2.07675565699660        1.28711724345125        4.08133586603292
O            0.90513709947617        4.93521621626014       -1.00001468194839
H            0.38525104528524        5.27242624580390       -0.25777296228888
H            0.51961084980554        4.07902677035312       -1.22421385267250
O            0.39903731774736       -4.00314926325300       -5.04027527464441
H            0.50744143268793       -3.83684106789563       -4.08042314837877
H            0.79401332968887       -3.24178920294985       -5.50095509689906
O            1.66153844126454       -3.65402592692707       -2.26566553040748
H            2.55107591048794       -3.60413409222824       -1.88029068661369
H            1.40730175990421       -4.58378538260394       -2.17794705983654
O            2.94148217872588        3.44843029070602        0.84009033937594
H            2.17912460752339        3.90513640468021        0.43456407161914
H            3.33174858173420        2.92268637826368        0.12670189533536
34
 energy: -56.647229988694 gnorm: 0.063172602499 xtb: 6.7.1 (edcfbbe)
H            1.38380610674517       -0.72414509644369       -0.45332188705263
C            0.30375883005914       -0.74284686411608       -0.61062325067236
H            0.48455542114704        0.54155512636657       -2.25434282349550
H            0.04236444313153       -1.65361075699185       -1.15312108026301
N           -0.07183944951559        0.45643337413603       -1.39080524291038
H           -0.18773309156133       -1.53415286982502        1.35273459743474
C           -0.39720329215873       -0.66210881955682        0.73828512361521
O            0.04992257351613        1.69564132748093        0.88223498395709
C            0.10438346474517        0.61690647063044        1.51140567333200
H            0.07649799952361        1.26251068986190       -0.68721370345798
O            0.48626216239258        0.43980725972435        2.67765148568910
H           -1.07809423954511        0.44144228274242       -1.60690268555837
H           -1.47933506664498       -0.58043702785220        0.61522581712744
O            2.75926067779746       -1.09010185684204       -3.72392816800921
H            2.27051452344535       -1.85396958185792       -4.13820720259954
H            3.30295193842497       -1.53713371756553       -3.02739292931862
O            2.59872011438845       -2.88199061878768        3.39586290913020
H            2.00553252192445       -2.68135822313358        2.66315129253483
H            2.10386664218621       -2.72160790821380        4.20696784657265
O            3.03049575744584        1.21912092823144        3.94300721657846
H            3.19486740531597        0.39758049992726        3.46839033011301
H            2.08008687332347        1.28457857461063        4.05440690242508
O            0.91782730808973        4.91418063306420       -0.94685032937669
H            0.36261242928063        5.28546581891465       -0.24045882429414
H            0.46321953443472        4.08653557761494       -1.20412086889865
O            0.43958010068861       -4.00324427518550       -5.04794366867672
H            0.50485785763738       -3.84043696689704       -4.10770859716191
H            0.77026881095864       -3.22396793268259       -5.49034143067510
O            1.67770495929767       -3.70645946528810       -2.31381814133211
H            2.50660654685671       -3.60993808018660       -1.85181315521939
H            1.36643062947962       -4.59357299853662       -2.13262968007778
O            2.96759887411230        3.49655243308248        0.79392607702685
H            2.21182781593484        3.93573549414354        0.38265972317249
H            3.36537681714394        2.95104356943119        0.12050869034062
34
 energy: -56.646334339161 gnorm: 0.086445802619 xtb: 6.7.1 (edcfbbe)
H            1.37881389226690       -0.74394463719798       -0.46549430224075
C            0.30045279391454       -0.75325289491552       -0.61740122395173
H            0.49315124585350        0.54738740440746       -2.22827284785057
H            0.03896620275046       -1.66643988660750       -1.14955201613053
N           -0.07886347779846        0.44121592669568       -1.39471052252936
H           -0.18115442012188       -1.53043947965979        1.35168844963428
C           -0.39440761955413       -0.66423311573654        0.73407334519878
O            0.10353276995992        1.68270926467918        0.85527816985025
C            0.09588991610078        0.61160944593816        1.50896329042501
H            0.03366868961384        1.22669931316332       -0.65169511006071
O            0.48917640679739        0.46379470495422        2.65825247483954
H           -1.07314700498152        0.41162130916007       -1.64302428411829
H           -1.47609690579205       -0.59698193587856        0.61419197548623
O            2.80512721800177       -1.13025386141700       -3.74580838343941
H            2.24157767285575       -1.80092835925764       -4.10107429541221
H            3.26788612717186       -1.48968073276320       -2.99932220831144
O            2.60290447712534       -2.87247157826553        3.40379014303158
H            2.00200860001632       -2.68796151517469        2.68358772525481
H            2.11145448421243       -2.74720710582231        4.21435471717811
O            3.06542312259292        1.19107355147011        4.02102378364087
H            3.24888336829099        0.40205690919882        3.49310499573851
H            2.03727632953660        1.29828478342555        3.94977269095387
O            0.87808486454330        4.90503745961881       -0.90533051542199
H            0.35439614688117        5.29289123331131       -0.20687232478444
H            0.44130734388962        4.09226847570082       -1.16498892010448
O            0.46667867625614       -4.00035682502994       -5.05309390211684
H            0.53675798830211       -3.82077632379759       -4.12798691485105
H            0.73425380121992       -3.21409995291500       -5.51323929204521
O            1.68285321348678       -3.74960050886650       -2.36202079679952
H            2.46474811932425       -3.61139911557739       -1.84250928071554
H            1.32849985013263       -4.60059869407238       -2.09697407356365
O            2.96844553521430        3.52841914973252        0.76849158887643
H            2.24234371349693        3.97413668678991        0.32386522001802
H            3.40666085844164        2.99542790471025        0.11380764432161
34
 energy: -56.650912930687 gnorm: 0.058487651427 xtb: 6.7.1 (edcfbbe)
H            1.37943628386711       -0.75079045640407       -0.47378327822608
C            0.30020264911940       -0.76043700776434       -0.62306495792539
H            0.50056092082310        0.55050846214092       -2.22887121895032
H            0.03177163886953       -1.67458800016840       -1.15085604800990
N           -0.07999296111476        0.43395270774959       -1.40051094304974
H           -0.17744534667838       -1.53298039367111        1.35595210510915
C           -0.38743254823447       -0.66799688701554        0.73302730439265
O            0.10108731308532        1.67547754960788        0.84082682867098
C            0.09935624149943        0.60471637943982        1.50424677103267
H            0.02681366967117        1.21711729703483       -0.65663162947297
O            0.45661888397866        0.47033054332410        2.67915748769157
H           -1.07014090135367        0.40082490028284       -1.66072644125600
H           -1.46917224287092       -0.59435773506955        0.61198478791492
O            2.79659465665015       -1.12038716652863       -3.73792338398531
H            2.24249986540097       -1.80705017121284       -4.08703758829139
H            3.27598899042528       -1.47786127446236       -2.99746852460394
O            2.60379131386032       -2.87840782875035        3.40333176849223
H            1.98640436888591       -2.67586797228741        2.69527313623808
H            2.12683961301630       -2.75654696450417        4.22941587344204
O            3.04382422943503        1.21497642333859        3.97236614974779
H            3.24712813665635        0.40829167076125        3.48399010743655
H            2.07658762344326        1.27231251252339        4.00951384705436
O            0.91505347966570        4.88597383045476       -0.87056468358954
H            0.32847789680997        5.30605816282178       -0.20570361760362
H            0.41391025792743        4.08850770961481       -1.14954535683870
O            0.43667916524352       -4.00951097329398       -5.03753079419800
H            0.62159256876502       -3.78007758535812       -4.09205941977220
H            0.69744523999662       -3.23581887994903       -5.58675920659504
O            1.65239608170506       -3.74684826761640       -2.34217415900185
H            2.46666134086494       -3.61313794400536       -1.85668775074593
H            1.32900249623133       -4.61551369622009       -2.09454055346993
O            2.94121165278525        3.51117854099443        0.78788794603413
H            2.26152438698849        4.01181742034185        0.27188464852467
H            3.44227703458367        3.03014209385204        0.09845579380409
34
 energy: -56.639797102038 gnorm: 0.151762791738 xtb: 6.7.1 (edcfbbe)
H            1.38201097850417       -0.75278253982214       -0.48258795852954
C            0.29909072832998       -0.76681934642269       -0.62653258279070
H            0.51628876977663        0.56096802928676       -2.23149080294168
H            0.01978820240238       -1.68310263996486       -1.15145278044777
N           -0.08190195067284        0.42857159646028       -1.40567804827788
H           -0.17295849889291       -1.53993766391961        1.36394677546219
C           -0.37989126163573       -0.67318450461513        0.73709481967795
O            0.10247307384673        1.67514016216638        0.81517416491300
C            0.10749188104200        0.59965609580930        1.49501002456866
H            0.02088192675894        1.21406992954143       -0.66820308204547
O            0.41501001028745        0.48193242833079        2.70633234868399
H           -1.06884132320314        0.38912454121262       -1.68384393422754
H           -1.46312248926224       -0.58709849888855        0.61429717818970
O            2.71592911777061       -1.05271605621102       -3.69228712909666
H            2.26391880075782       -1.87903136053702       -4.07185731270268
H            3.32902845591845       -1.45907082367419       -3.00829842211433
O            2.60444702350007       -2.88970923787336        3.39459312359972
H            1.96395744699362       -2.66349672768406        2.69975648480445
H            2.14411115495152       -2.77127969987965        4.24279332252859
O            3.02261895680854        1.23558975079621        3.93180319298118
H            3.25038590645424        0.41262477316669        3.47825202032414
H            2.10771114073963        1.24219898318567        4.05006689403858
O            0.76749463425989        4.91311931788851       -0.91286765120446
H            0.38709107400487        5.27349935989270       -0.15416386896867
H            0.50297274411308        4.07434976065522       -1.10369369171710
O            0.41331830013673       -3.99248915413220       -5.06059298318129
H            0.63616222512458       -3.81081731394743       -4.10475136196814
H            0.71611406651938       -3.22789347147493       -5.56621700008301
O            1.59794248116951       -3.73264898043086       -2.29424900716427
H            2.47654627777950       -3.62411297766982       -1.87797527045506
H            1.32761659272861       -4.63779816378772       -2.09599504437112
O            2.98732889265369        3.58460208696730        0.72649240484296
H            2.26063727843840        4.01287010582937        0.26613849165828
H            3.44590138189832        3.02967923974677        0.09586168601364
34
 energy: -56.652829651906 gnorm: 0.040196113351 xtb: 6.7.1 (edcfbbe)
H            1.38110218495261       -0.75608897297091       -0.48564694600496
C            0.29908587961681       -0.76763164603235       -0.62639140257460
H            0.51738970121222        0.55365585010633       -2.23209119376269
H            0.01882301517202       -1.68474942027526       -1.14685512250931
N           -0.08066107139697        0.42436208810238       -1.41063438699083
H           -0.16881525676213       -1.53903619016074        1.35970042080864
C           -0.37999939811241       -0.67194863496056        0.73728521607998
O            0.09549736390572        1.67299322211362        0.83597591579983
C            0.09793087051582        0.59911850895704        1.50057387019793
H            0.02036884986145        1.21029040748748       -0.67573260313417
O            0.42984536537394        0.47765917637448        2.69135678732889
H           -1.06534416187914        0.38427866870277       -1.69126797351711
H           -1.46269637864353       -0.59189823262786        0.61889340611666
O            2.76456807022327       -1.08981624655136       -3.71380884037652
H            2.24698095838809       -1.83237766525518       -4.05961522497232
H            3.29561716666675       -1.45249193158924       -2.99336215083146
O            2.60407198769063       -2.88653748707402        3.39988947028100
H            1.96645327173069       -2.66850297135299        2.70747707895705
H            2.14246297296582       -2.77727419748715        4.24235758226538
O            3.03372580218176        1.22746386933234        3.95735721524763
H            3.26517785474462        0.41916970776048        3.48390219605753
H            2.08287487064109        1.23788722761907        4.01739156890031
O            0.85217278859311        4.89077616213423       -0.87231368451838
H            0.37265704022301        5.29928005272525       -0.15626700489359
H            0.42975668458663        4.06391726751202       -1.10614362765947
O            0.44614087653706       -3.98598476710339       -5.07186880942083
H            0.60134981678900       -3.82777503737058       -4.13727091544105
H            0.72748328538422       -3.21036573091982       -5.53351481520909
O            1.59654490033699       -3.73282502603156       -2.29957065185582
H            2.46455008756775       -3.62694308011241       -1.88132214366413
H            1.32164258874115       -4.63264022710804       -2.09997212856622
O            2.98774305002184        3.59603179271443        0.71777893464558
H            2.26476433264829        4.02169150965433        0.25382301278744
H            3.44828862952435        3.04031895368837        0.09476195042863
34