37
 energy: -59.877243147975 gnorm: 0.000275942844 xtb: 6.7.1 (edcfbbe)
N           -0.96832686743287       -0.23539082596487        1.83683502598169
C           -0.23521839204214       -0.84430033110210        0.71175998120957
C            0.04165073628804        0.17030909731936       -0.39158119464594
C            0.79936418791214       -0.49980174043633       -1.52805851040316
C            1.12541320866966        0.42309248198432       -2.71697571148575
O            0.72171718422118        1.59969094059025       -2.71138804176715
O            1.80050661194209       -0.10109428322185       -3.64761226705901
H           -0.41385448948486        0.53671758460622        2.25040627756626
H           -1.85736075178105        0.14332499963672        1.50922436798837
H           -0.81874966705231       -1.66993198726811        0.30527448563402
H            0.71395837649534       -1.23785958447743        1.07300885259401
H            0.63761843876376        1.00392988975480       -0.01590947102952
H           -0.88402854012243        0.58534637809403       -0.79475973168751
H            0.22052257053326       -1.33156626980229       -1.93445711832197
H            1.74957578223213       -0.90169343514332       -1.17429354650442
H           -1.16591621826700       -0.95836539876778        2.58187307012482
O            2.86791537116683       -2.30158150104102        1.08523069714022
H            3.09524779026409       -2.81997787859840        1.86539496615871
H            3.68104494275531       -1.89844720024544        0.77018185334383
O           -1.61724654309535       -4.33958072709442        2.02135253660942
H           -1.08434228731619       -5.12940563500018        2.14718546750819
H           -1.49428780370973       -4.07963689574515        1.08647133486689
O           -1.49980815065267       -2.15644982181254        3.65710770196839
H           -0.84693001260999       -2.39115719350444        4.32253926654663
H           -1.64005960671781       -2.95323817217008        3.10704383596615
O            0.53549866691622        1.83492102649243        2.98751838390256
H            1.24814818591200        1.66399315294941        3.60987660867619
H            0.18460919385989        2.70922716345790        3.17532896465134
O           -1.07744811345616       -3.71436443776863       -0.59869199784086
H           -0.10354181850620       -3.78869224931767       -0.71568524631653
H           -1.47421292612079       -4.21308440912394       -1.31662348586335
O            2.50950919106387       -2.66171559884876       -3.30820310294937
H            2.28042887084772       -1.70696148483490       -3.42713338528099
H            2.47636806497479       -3.04702782139769       -4.18839522301679
O            1.61017797274549       -3.84965620961311       -0.92680914456167
H            2.02247865010032       -3.30218002189116       -0.23393945611304
H            1.92252019063807       -3.47845960066379       -1.76953304354379
