34
 energy: -56.595931908514 gnorm: 0.185719487163 xtb: 6.7.1 (edcfbbe)
C            0.00071700000000       -0.52255800000000        0.67804400000000
C            0.00015500000000        0.09392700000000        2.05036800000000
O           -0.00019500000000       -0.63013100000000        3.03226200000000
O           -0.00079700000000        1.43155900000000        2.21643300000000
C            0.00098900000000        0.52531100000000       -0.44326000000000
N           -0.00030100000000       -0.11659100000000       -1.75665200000000
H            0.90259300000000       -1.16292800000000        0.57888800000000
H           -0.90264000000000       -1.16023800000000        0.57901700000000
H           -0.90200200000000        1.16741300000000       -0.35103700000000
H            0.90366600000000        1.16894900000000       -0.35172000000000
H           -0.85706900000000       -0.70553200000000       -1.86752300000000
H            0.85322800000000       -0.71006900000000       -1.86779500000000
H            0.00165600000000        0.62088700000000       -2.49702600000000
O            1.99931800000000        2.91331900000000        1.32237400000000
H            1.86319500000000        2.97770500000000        2.30111600000000
H            2.54892900000000        2.09851600000000        1.20139700000000
O           -0.43818400000000        2.38213700000000        5.23065800000000
H           -0.51289400000000        1.39470400000000        5.22857500000000
H            0.51816600000000        2.55819300000000        5.41777500000000
O            1.88958400000000       -2.01625500000000        2.42718700000000
H            2.07556700000000       -1.04365000000000        2.43506300000000
H            2.56714700000000       -2.40335900000000        3.03683600000000
O            2.96856800000000        0.83105100000000        3.14584400000000
H            3.72185500000000        0.19048200000000        3.19914500000000
H            2.37440600000000        0.57834900000000        3.89666100000000
O           -2.72209700000000        1.59275400000000        3.16055700000000
H           -2.44229600000000        1.46789400000000        4.10222200000000
H           -2.46021400000000        2.52316000000000        2.94520800000000
O           -0.11431800000000        0.69343700000000        7.41966200000000
H           -1.05294400000000        0.50493600000000        7.16656300000000
H           -0.03268300000000        1.67815400000000        7.35422000000000
O            1.34596200000000        2.32711500000000       -3.96096200000000
H            1.03580800000000        3.15551900000000       -4.40611800000000
H            1.38486900000000        1.65491700000000       -4.68708100000000
34
 energy: -56.624994539919 gnorm: 0.094422436555 xtb: 6.7.1 (edcfbbe)
C           -0.01205339297660       -0.50316123180012        0.67161688229762
C           -0.04066586705416        0.11530486014843        2.06485919137932
O           -0.06235232396359       -0.61718485403291        3.06430411005543
O           -0.01513608315373        1.39797662765011        2.17411102294298
C           -0.00116740639607        0.53595668681719       -0.44304949819322
N            0.00219837290611       -0.11028693926337       -1.76689038980090
H            0.87208606602296       -1.15131694809865        0.60274515351968
H           -0.89643625821425       -1.14820166631265        0.59418489060876
H           -0.88550823062215        1.17233403699234       -0.33859005815467
H            0.88007669546213        1.17814174157078       -0.33695024002710
H           -0.84173762656701       -0.69526199045933       -1.87791001418302
H            0.84187548542157       -0.70205967137039       -1.87073097420151
H            0.01325567476826        0.61669805298336       -2.50048482110506
O            2.07712227000138        2.95739800941935        1.31450292141253
H            1.82229832230611        2.96605041950864        2.26044217583488
H            2.54169643032224        2.10485644920079        1.22128122740844
O           -0.44726331294596        2.38246134271729        5.28322349433907
H           -0.48310959151672        1.41002032933570        5.17327715806744
H            0.50418497299262        2.56885062779982        5.38223938442394
O            1.99794540441612       -2.05458774174532        2.36444065837020
H            2.08867594723754       -1.08096332583493        2.46602632587177
H            2.58303573010150       -2.42529584952280        3.05244563105089
O            2.96911290308045        0.79685921147756        3.13865435350075
H            3.73306197731692        0.19929629529522        3.22678110577413
H            2.37676874355776        0.57381404551788        3.87544093955901
O           -2.78146519733477        1.61766610310699        3.17957245452829
H           -2.43273963824764        1.47485560776466        4.07711193184984
H           -2.43969930040910        2.49933213849274        2.93742716550039
O           -0.11973232481181        0.69400616366467        7.43195219710239
H           -1.03940416594697        0.49855326548310        7.18911709908139
H           -0.04743245628807        1.66292971843751        7.36867268317868
O            1.30613660211675        2.30590226158360       -3.96167972539500
H            1.05151536296211        3.14409098869255       -4.38457798846308
H            1.40260021545617        1.67404223478033       -4.69666544813455
34
 energy: -56.635180724854 gnorm: 0.037925246186 xtb: 6.7.1 (edcfbbe)
C           -0.02306605100858       -0.49417097329824        0.66703360234160
C           -0.04726349354190        0.14954975968846        2.07734503243655
O           -0.10845768934277       -0.60858705599687        3.07719230815441
O           -0.04457472721423        1.37634388895184        2.14690065659619
C           -0.00617298960340        0.54834046494450       -0.43313040752723
N            0.00829877632172       -0.09480084449150       -1.77079519757026
H            0.85024750569206       -1.14445448012989        0.62543652169947
H           -0.90162751120443       -1.13659221245188        0.61127368950344
H           -0.88098961394695        1.18080473296498       -0.33124869619253
H            0.86492307329775        1.18603122471946       -0.32176945248040
H           -0.82630605897702       -0.67545690352977       -1.88765027706139
H            0.83700393685576       -0.68822705395893       -1.86265810532841
H            0.03611309358340        0.62751905618622       -2.49764549582866
O            2.09491971667554        2.95886968749495        1.29949775110968
H            1.80117486062157        2.98796817813391        2.21324502130847
H            2.56897831257792        2.12943096102294        1.24565430774478
O           -0.44664968466477        2.37886961568682        5.26508839205635
H           -0.45599604271528        1.42546410361363        5.11796789340521
H            0.48073200371993        2.59639577789570        5.35893501013437
O            2.07389317501476       -2.08327674301809        2.33934681395345
H            2.11395511851974       -1.12336610296724        2.46813579738019
H            2.60450106980200       -2.45734049750048        3.04790461697471
O            2.95532550673164        0.74251138970066        3.12093901969038
H            3.75724939519382        0.21713665320089        3.26152218630113
H            2.37462706581786        0.56007545045932        3.86039589211093
O           -2.80446304528994        1.63579219567625        3.18294026005186
H           -2.44883373599594        1.48926275049487        4.05897878913640
H           -2.44210431540106        2.48835486173209        2.92625820209884
O           -0.12680789856124        0.68580388447034        7.47409490748022
H           -1.02535410895807        0.47138895326774        7.22257512268922
H           -0.06319079320448        1.64179601672167        7.38865079424486
O            1.26519613943998        2.27022339408865       -3.95988043871664
H            1.05810355302925        3.12915449680122       -4.34068928000440
H            1.42435945673565        1.68826236942617       -4.71494423789310
34
 energy: -56.638915451727 gnorm: 0.097418868217 xtb: 6.7.1 (edcfbbe)
C           -0.04401432403469       -0.49738435041137        0.67001449577575
C           -0.09645137001176        0.17606051632196        2.08477766711763
O           -0.11534264293655       -0.59782976716685        3.07706613140392
O           -0.04351908015258        1.39939357237497        2.13507799511626
C           -0.01390215413804        0.55322360038260       -0.42112407968157
N            0.01818978973286       -0.07683452748011       -1.77046243556396
H            0.83527918361262       -1.13972452114129        0.65174136386899
H           -0.92339727647218       -1.13622127918619        0.61397310489498
H           -0.89143101831424        1.18578756737670       -0.33083556095486
H            0.85777002952129        1.19103068828042       -0.29957870323119
H           -0.81666478173652       -0.65328353540396       -1.90212692100717
H            0.84412209488862       -0.67593441893945       -1.84929900108418
H            0.06597181901606        0.65044724005331       -2.49286585436930
O            2.19032320426830        3.00335608174067        1.27749649881715
H            1.71171657248606        3.00157506575726        2.15865767293813
H            2.58940568724840        2.11652558792782        1.28236661458306
O           -0.47212353475280        2.37155295748240        5.32979001078696
H           -0.41321990247445        1.42219103144230        5.01901837553603
H            0.46699554506694        2.64117190567125        5.30161736061653
O            2.17870955783168       -2.11470205334465        2.26277213861089
H            2.12890575564641       -1.15077471661585        2.49839638208997
H            2.60637472243993       -2.50013491144615        3.06463889711798
O            2.93690405659638        0.67739114433041        3.08600480539735
H            3.78958427342247        0.23188646574374        3.30710941763910
H            2.36668100519690        0.54936128666756        3.84956539564696
O           -2.89407941905833        1.67695152053693        3.20165076912602
H           -2.43775080466229        1.49063605395333        4.04039966849767
H           -2.41203047605821        2.47830024233185        2.89193063400373
O           -0.12627902987867        0.68135227777001        7.51715606304721
H           -1.01498766843590        0.43050421148924        7.25695810541484
H           -0.08449446408637        1.63648569905895        7.40040047911755
O            1.19874874570722        2.21558927584703       -3.94582302622254
H            1.07346338802341        3.12123845626890       -4.28435509747550
H            1.45828651649847        1.69988863232674       -4.74520836757528
34
 energy: -56.644865390042 gnorm: 0.039537873480 xtb: 6.7.1 (edcfbbe)
C           -0.06415898634301       -0.49434044372910        0.67764551928580
C           -0.13378886722545        0.19774329652744        2.09252786918347
O           -0.14189330457381       -0.57279406698065        3.08560972230214
O           -0.04954003568079        1.43771782342521        2.12576959636967
C           -0.01834403910025        0.55562135264924       -0.41520116906581
N            0.03044814130092       -0.06189628832388       -1.77204099462310
H            0.81771438673881       -1.13478089883047        0.67489780668160
H           -0.94580173729471       -1.12916193408236        0.61711449707626
H           -0.89854203094772        1.19002951327607       -0.33383004919196
H            0.85411719508696        1.19446710689253       -0.27927020554171
H           -0.80763360006443       -0.63306161311928       -1.92058257822141
H            0.85524109229559       -0.66734785461778       -1.83903747901573
H            0.09756971138328        0.67127718150687       -2.49141125393491
O            2.17914244987820        2.99362696981417        1.26061393190064
H            1.72146973925666        3.04301438645275        2.12473364658823
H            2.61389592449528        2.12781020441089        1.29483811832538
O           -0.46010931569904        2.36197533527221        5.25083846946537
H           -0.41129359318346        1.42834175254581        5.01998951128918
H            0.45478446612039        2.66258396024457        5.28931927403898
O            2.20668264003022       -2.14151609778263        2.28936256933628
H            2.18778655613043       -1.19639256571297        2.46687119179074
H            2.65346505588852       -2.54608220948991        3.03746907779890
O            2.94459071611623        0.65197915332672        3.08676533066913
H            3.78765178861621        0.21762028363691        3.31734998376576
H            2.35784966522540        0.53672255476649        3.84131841699348
O           -2.89924367354997        1.68901788480990        3.19300927891086
H           -2.45981534869267        1.50126535786826        4.03341797466971
H           -2.43744106880541        2.48583093801002        2.87924254771284
O           -0.12466542281343        0.67853566997630        7.55646839912357
H           -1.00593785838020        0.39207437067846        7.28681651670623
H           -0.10729269535004        1.63512811922050        7.41104844977368
O            1.22141494241932        2.19467632054137       -3.94532010269670
H            1.05846592789606        3.09978739248820       -4.24065702512667
H            1.44095517882626        1.68960404432834       -4.73878584234035
34
 energy: -56.645449536418 gnorm: 0.078615166912 xtb: 6.7.1 (edcfbbe)
C           -0.07384690092068       -0.48143185256834        0.68444473183164
C           -0.08642158322913        0.21595545734852        2.10231325890352
O           -0.17002317024277       -0.55591871885254        3.08817900906844
O           -0.10760115175166        1.46441358172919        2.13604426271555
C           -0.01946809132554        0.56392552492836       -0.41193314013763
N            0.04970769358567       -0.04242997692967       -1.77373423237951
H            0.79997863911355       -1.13015649627675        0.68504863625050
H           -0.96635856554830       -1.10468511744587        0.63232402085932
H           -0.90285369480780        1.19892079485576       -0.33905772611719
H            0.85356497684933        1.20164238647903       -0.25925735588777
H           -0.79306361740238       -0.60454239131228       -1.94489137607297
H            0.87210169832691       -0.65641385252699       -1.82499485381304
H            0.14352365039238        0.69667854024510       -2.48930276985207
O            2.13529968467528        2.96251016814736        1.24230675074147
H            1.74843468357282        3.08626322397259        2.07966862465638
H            2.64927816691843        2.15391143605267        1.30258670840698
O           -0.47449239792889        2.34081411683501        5.26859417529612
H           -0.37646286550180        1.42066944233387        4.93309037343956
H            0.43315576584967        2.69821694516245        5.24664982215726
O            2.29011377319121       -2.17047325583435        2.23870629112148
H            2.19232084840272       -1.22258696276921        2.49974821311096
H            2.66067082663082       -2.59372257655396        3.03691065214853
O            2.95804419983053        0.62555223235670        3.09555716128228
H            3.77681705482794        0.19896601847914        3.32270279900191
H            2.34787762006180        0.52004557459558        3.83109253818050
O           -2.86843338234607        1.69919642803824        3.17176578083419
H           -2.50646339334135        1.52594404149011        4.02900300960244
H           -2.48862016664680        2.50377461649949        2.86897289532360
O           -0.12425150661925        0.67870119174904        7.59886765880486
H           -0.99448847891696        0.34826570203177        7.32670055478187
H           -0.13815058578118        1.63362562743725        7.41164324268340
O            1.19340617745681        2.14036811979698       -3.93227054285456
H            1.05114534903095        3.06370102310191       -4.17954552175660
H            1.45330274359381        1.67937600740369       -4.74103265233208
34
 energy: -56.650919461072 gnorm: 0.054007671463 xtb: 6.7.1 (edcfbbe)
C           -0.08415162264718       -0.46489775450150        0.69028459303448
C           -0.08244134953901        0.23143802595078        2.10949021533939
O           -0.17733689845563       -0.53920832402868        3.09182719923127
O           -0.13099940511042        1.47257524387083        2.14865314292268
C           -0.02162322090626        0.57619999087107       -0.40842891823756
N            0.06398545761022       -0.02612595065523       -1.77110339048786
H            0.78457091118502       -1.11972344793910        0.69668439981872
H           -0.98065809254776       -1.08338337814532        0.64020993610436
H           -0.90687025789312        1.20908287155403       -0.34362373110516
H            0.84932934446343        1.21300301048077       -0.24315011309237
H           -0.78077720550035       -0.58049101985425       -1.95960126483385
H            0.88314831271517       -0.64537361231107       -1.81196149215351
H            0.17649134838911        0.71528861141255       -2.48345098383598
O            2.20791608497880        2.97767840821793        1.21448885881813
H            1.65567771587702        3.10233485354357        2.02098809069596
H            2.68227550626738        2.13748308471243        1.35333865984521
O           -0.46671658460173        2.32968380645004        5.23277603952877
H           -0.37666315655461        1.42584118037772        4.89642610212717
H            0.42238400384303        2.70089725945099        5.23477793786862
O            2.30693969811962       -2.18575665120087        2.25369390681312
H            2.23626839956868       -1.25496411498707        2.46786122046768
H            2.68622159628232       -2.63253130214739        3.00551480121106
O            2.93234892014309        0.56475838940942        3.05957566337215
H            3.80294266674795        0.22056628485425        3.36213939413131
H            2.34458106762087        0.50862126157423        3.82504319015034
O           -2.93966117165475        1.73255432492992        3.18777220127383
H           -2.50602160479962        1.53694677927588        4.02036126014776
H           -2.46405070898956        2.49568635148416        2.83212412210245
O           -0.12656566111316        0.67604544975303        7.62124668615082
H           -0.98900968955101        0.32782387810318        7.35583649780961
H           -0.15531084943468        1.62599651933993        7.41723948498372
O            1.15777171031298        2.09925899813890       -3.91237813215955
H            1.04579194287019        3.03717532260227       -4.13117065753837
H            1.46795679230399        1.67459264941231       -4.73658392050502
34
 energy: -56.647366676903 gnorm: 0.106477436631 xtb: 6.7.1 (edcfbbe)
C           -0.09971558290998       -0.44484880740526        0.69319135474742
C           -0.18200566821767        0.24951848915419        2.11321745641703
O           -0.12985808685779       -0.52213323502180        3.09320535576357
O           -0.08870515647758        1.47559544167506        2.15743945390967
C           -0.02162413627358        0.59415160531433       -0.40599829127456
N            0.08638220184392       -0.00930804668160       -1.76694020216590
H            0.77354591012691       -1.09776371160150        0.72089526606945
H           -0.98958393621858       -1.06774919851398        0.63278944558239
H           -0.90987834153503        1.22078597845137       -0.35693443041722
H            0.84285432350844        1.23302450934066       -0.22843215924639
H           -0.75767295622525       -0.55487716868988       -1.97453631693647
H            0.89986743902257       -0.63360562158234       -1.79535161865606
H            0.21868088425002        0.73036050402546       -2.47723434413668
O            2.23267154536011        2.98414593376430        1.19636788339164
H            1.63619871007609        3.09704841575063        1.98233358542481
H            2.69118869943462        2.14428130950747        1.35421276025779
O           -0.46445555610277        2.31182443492975        5.21382094770689
H           -0.37788617081352        1.42932781538881        4.84758302872608
H            0.40862490589489        2.69789731909080        5.21099851308518
O            2.37316957781503       -2.20156933562892        2.19857871338152
H            2.25355519793574       -1.27376387107616        2.48430536963878
H            2.66156495142168       -2.67142436111066        3.01848407035836
O            2.94264441895576        0.56246327857960        3.08211005024613
H            3.79071472563150        0.21348968343693        3.35536050484478
H            2.33581337047079        0.48778222063222        3.81625099118521
O           -3.04653229900493        1.77773918702319        3.21322182555861
H           -2.48862066979240        1.54103920376225        4.00584941398794
H           -2.42912294969736        2.48477431958096        2.79386493267595
O           -0.13348268593335        0.66936003105490        7.64187009561321
H           -0.98585750181753        0.31139001888995        7.38588675045538
H           -0.17037647141554        1.60922587773161        7.42368176623131
O            1.19450394158861        2.08019809220455       -3.90442693850562
H            1.02068233067568        2.99125840013772       -4.09655811153584
H            1.43045903528022        1.63943828788464       -4.69220612238422
34
 energy: -56.651860050750 gnorm: 0.075980835952 xtb: 6.7.1 (edcfbbe)
C           -0.10490509331865       -0.43611369265683        0.69653193990140
C           -0.21594906834669        0.25458231263106        2.11445570706297
O           -0.11847374738704       -0.51157281909856        3.09839272596866
O           -0.07834013402495        1.48501649813057        2.15799170746255
C           -0.01898271359861        0.60313617044428       -0.40369675991666
N            0.09941984629031       -0.00106688784439       -1.76198540297864
H            0.76763509374144       -1.09169803680911        0.72733646668378
H           -0.99472606497020       -1.05793024007459        0.63059054395990
H           -0.90883517482364        1.22741036308387       -0.36230920239513
H            0.84196759602227        1.24440648463805       -0.22050656856265
H           -0.74480149327366       -0.54114387019915       -1.98061085319565
H            0.90960615558594       -0.62870779908126       -1.78536213094533
H            0.24200486555818        0.73759770787889       -2.47143283288250
O            2.22389666882447        2.98498037312029        1.19720681171719
H            1.65057350402239        3.08370284207433        1.97114110377678
H            2.68190089568397        2.15308731333634        1.34832817710519
O           -0.47880617559638        2.30162544312079        5.25689856251554
H           -0.36073696600144        1.42650145462534        4.78964538335580
H            0.40204337228096        2.71021917564071        5.17682841073205
O            2.37563953224040       -2.21235785702460        2.21346823740165
H            2.26832702159543       -1.29235546807046        2.47086180990136
H            2.68197790539664       -2.68908272154604        2.99257298778267
O            2.92719572672877        0.53048607525716        3.06471275239374
H            3.80095576792179        0.22640947122330        3.37869615315552
H            2.33021045485186        0.48235315133780        3.81351367076373
O           -2.93941624980392        1.75539078144555        3.16982740326888
H           -2.54243396318805        1.56431130236263        4.01102005508213
H           -2.51003889983328        2.51737981913190        2.81893550700717
O           -0.13483886570300        0.67389847155013        7.65283933661634
H           -0.98174414205954        0.30393670735406        7.39861220284702
H           -0.17958083976999        1.60858816212734        7.41760269378271
O            1.12260142633467        2.02425607140404       -3.87983741196326
H            1.03560455789336        2.97691162032624       -4.04960093725893
H            1.46879320072577        1.64491862015928       -4.71576725014660
34
 energy: -56.647854344116 gnorm: 0.105028190703 xtb: 6.7.1 (edcfbbe)
C           -0.09970683390519       -0.42984051110049        0.70046487693198
C           -0.02944713868600        0.25431495772306        2.11542250323414
O           -0.18175009728479       -0.50756803693568        3.09987270110556
O           -0.17951032665643        1.51087379542892        2.16236767816053
C           -0.01728972640290        0.61002102233483       -0.40246712490743
N            0.10830218043512        0.00872605982886       -1.75834807206709
H            0.75744492199580       -1.09838306962949        0.70629811651338
H           -1.00801055492054       -1.03648091660092        0.64534855656624
H           -0.90869174992805        1.23843301616742       -0.36316853538428
H            0.84626800496042        1.25197914502241       -0.21479003204479
H           -0.73899342719147       -0.52767169682801       -1.98751024543966
H            0.91867736873144       -0.62433593389494       -1.77455850032391
H            0.26356818963858        0.74912275864105       -2.46921970840126
O            2.23146266518174        2.98682611775086        1.19290714077645
H            1.63472164591917        3.07701909689594        1.94136146481198
H            2.68461480742675        2.14680843784010        1.36135415826603
O           -0.46057383073769        2.28868398104669        5.17061652973959
H           -0.38128077961009        1.42948357595029        4.82688860671530
H            0.39990098828247        2.70508631849712        5.17715211498168
O            2.39655424530051       -2.22479689577209        2.19495983230850
H            2.24703710857775       -1.29585810548425        2.49027660691691
H            2.68841768972109       -2.69826214036838        2.97636104563232
O            2.93143107867629        0.51481543795061        3.05629471433112
H            3.80019354188048        0.22449225402935        3.39006809647091
H            2.32373457735475        0.48429784941155        3.80944364283451
O           -2.93972388143459        1.76491250803349        3.16872390513484
H           -2.55753715535613        1.57846898932192        4.00997264790185
H           -2.51400326001326        2.51488634120208        2.80689327860941
O           -0.13297108527248        0.67939426546532        7.67651360893047
H           -0.97694327425376        0.27916388714966        7.41022004389539
H           -0.19386136766698        1.61540235208002        7.40553308082537
O            1.10895004903434        1.99967041370799       -3.86164634528173
H            1.03029692666185        2.95911004350387       -4.02208481408800
H            1.46646249954120        1.63028168162973       -4.70462057365676
34
 energy: -56.654721337512 gnorm: 0.089174450239 xtb: 6.7.1 (edcfbbe)
C           -0.10259434950532       -0.41841855625996        0.70206107312691
C           -0.08800283227322        0.26759548346613        2.11594013131356
O           -0.16428962680123       -0.49287179033076        3.10201696492647
O           -0.14452154222949        1.51084534331342        2.16228099477916
C           -0.01438654378178        0.61974454663187       -0.40124824324081
N            0.11927655189834        0.01639208983383       -1.75576268842580
H            0.75343558143461       -1.09095050595436        0.71308147405168
H           -1.00949463413986       -1.02354618849981        0.64393694372370
H           -0.90621124070754        1.24529977426866       -0.36748478943439
H            0.84598194033054        1.26209988619988       -0.20968157744901
H           -0.72722013251543       -0.51564158688257       -1.99127617594548
H            0.92585924892410       -0.61957008448338       -1.76629850011325
H            0.28287668014353        0.75472937402335       -2.46651247723895
O            2.23686665554695        2.97875396300821        1.18501722404903
H            1.61500867459580        3.07356327115167        1.92339919816272
H            2.69646638313671        2.14729358442636        1.36637142091232
O           -0.48564342586293        2.27955345648705        5.25683468370053
H           -0.35180163618081        1.41670883085019        4.73213177030729
H            0.38700864314253        2.71816481036659        5.15212313653473
O            2.38334493277610       -2.22432729675255        2.22375331468348
H            2.28612134321661       -1.31591294349471        2.45350885593201
H            2.69275483397689       -2.71528849141913        2.96337508497819
O            2.93489564632172        0.51366807033371        3.06534173952386
H            3.79164000900504        0.22144075963711        3.38693827393832
H            2.31943241022865        0.47738280755386        3.80442329106061
O           -3.00056857124221        1.78295606813733        3.18583092710280
H           -2.54903600114992        1.58738978287173        4.01222334088953
H           -2.48458090932945        2.50855161092169        2.77838308161406
O           -0.13686533657683        0.67892741955814        7.68449982087535
H           -0.97403093118797        0.27305695272257        7.42066679512002
H           -0.19971632531678        1.60786962066705        7.39825549745451
O            1.15202805808354        2.00181899385499       -3.86173375438259
H            1.00721163706282        2.92855826354043       -4.01175526229522
H            1.42649880897533        1.60323968024970       -4.66374057023570
34