34
 energy: -56.606426020250 gnorm: 0.184186232946 xtb: 6.7.1 (edcfbbe)
H            1.51131700000000       -0.30682800000000       -0.55501400000000
C            0.42356400000000       -0.53272100000000       -0.60971700000000
H            0.15351800000000        0.48284000000000       -2.37712700000000
H            0.30622500000000       -1.51992900000000       -1.10801900000000
N           -0.26687200000000        0.47309100000000       -1.42055200000000
H            0.31243500000000       -1.51306200000000        1.31258500000000
C           -0.16516600000000       -0.64664900000000        0.80679900000000
O            0.75046400000000        1.63132300000000        1.24106600000000
C            0.05694300000000        0.56251400000000        1.67849900000000
H           -0.17036900000000        1.42768900000000       -1.01141000000000
O           -0.37805100000000        0.56237000000000        2.81853100000000
H           -1.27994500000000        0.22829700000000       -1.50380900000000
H           -1.25406300000000       -0.84893600000000        0.72816900000000
O           -2.53251300000000       -2.53681800000000       -3.92515500000000
H           -1.95320900000000       -2.20635500000000       -4.65714800000000
H           -2.06344800000000       -3.33766400000000       -3.57984800000000
O           -2.29995700000000        3.02580000000000        2.83201600000000
H           -2.53338100000000        2.51680100000000        2.01528900000000
H           -2.14383700000000        2.33167300000000        3.52080200000000
O           -1.88629100000000       -2.88486700000000       -0.93595300000000
H           -2.81336500000000       -2.61041200000000       -1.15000800000000
H           -1.79241500000000       -3.78185500000000       -1.34486900000000
O            1.98702400000000       -2.95172200000000       -2.89591700000000
H            1.09750300000000       -2.81822700000000       -3.31009300000000
H            1.84679300000000       -3.67557600000000       -2.23487000000000
O            1.76885400000000        2.73980600000000       -3.83966700000000
H            0.94823300000000        3.09043900000000       -3.41042400000000
H            2.23999500000000        2.25552200000000       -3.11571300000000
O           -2.51813900000000       -2.84605000000000        1.16830300000000
H           -2.58996400000000       -2.55560200000000        2.11228000000000
H           -2.33664300000000       -3.81811000000000        1.22093800000000
O           -1.53214100000000        2.86122800000000       -3.37721200000000
H           -2.42343600000000        2.43185900000000       -3.33425200000000
H           -1.57382100000000        3.58719900000000       -2.70502000000000
34
 energy: -56.634779203389 gnorm: 0.091292196094 xtb: 6.7.1 (edcfbbe)
H            1.49784650318803       -0.30390146148640       -0.55157548198666
C            0.43049952226875       -0.54546196050629       -0.61665440078308
H            0.14320578883477        0.50353870323480       -2.37163592619989
H            0.30770488989407       -1.51892293140846       -1.10471490749871
N           -0.26123502942056        0.47122251653972       -1.42276463841545
H            0.30339165525177       -1.49376252572057        1.30683570214514
C           -0.15241200972575       -0.64036577351461        0.79143065819791
O            0.71125131053893        1.58865727169632        1.19682188391093
C            0.07639037251611        0.56934592513662        1.68348250299030
H           -0.16159406780533        1.40390633112974       -0.98845544905297
O           -0.39213413552421        0.57160875790974        2.83123303578395
H           -1.26280148609458        0.23391657573022       -1.49698009470314
H           -1.22822999089971       -0.85001304177900        0.73780646498308
O           -2.51404826943101       -2.53037057601394       -3.91819283116965
H           -1.97377988451470       -2.21590619428132       -4.66231915722650
H           -2.06774203382893       -3.33369329910558       -3.60280412937022
O           -2.34152746384191        3.02260333894299        2.84174460668791
H           -2.52915124350426        2.52385275090730        2.02927989650886
H           -2.11285585544945        2.34069229088933        3.49941482650804
O           -1.85240352863190       -2.86589576250613       -1.06398336034921
H           -2.79635617569054       -2.62887711961888       -1.16095024899605
H           -1.80956816042765       -3.79582789724576       -1.35890563910192
O            1.97636812388182       -2.94237472782874       -2.88091392825847
H            1.11050734347624       -2.82977102807223       -3.30722103592414
H            1.85676098475182       -3.66902684589958       -2.24721408666521
O            1.75885331074002        2.71880298431039       -3.83565697249437
H            0.95541570440035        3.08262642541181       -3.42534461554052
H            2.24245465334469        2.27952963769534       -3.11509196802775
O           -2.54753231415166       -2.84562664972123        1.23953111413689
H           -2.60172990609940       -2.56944937039852        2.16638015842586
H           -2.34121196214915       -3.79568095048282        1.25684310328842
O           -1.51808654195410        2.83470274853533       -3.32307702576049
H           -2.41513441231103        2.45260470579090       -3.35388278973704
H           -1.59527369163165        3.59438515172951       -2.71898526630589
34
 energy: -56.643680017773 gnorm: 0.035559570853 xtb: 6.7.1 (edcfbbe)
H            1.49214211712064       -0.29978941157123       -0.54718081755810
C            0.43909112941009       -0.55696794030901       -0.61758504259579
H            0.13755326195121        0.53477267801301       -2.36280492692726
H            0.31156383086653       -1.51874298941888       -1.10285696096851
N           -0.25430094109390        0.47189484197285       -1.41935013064602
H            0.30370093903881       -1.47699418484075        1.31269206113564
C           -0.15311186319511       -0.64582207298353        0.77766195229340
O            0.70869800790655        1.53874272334857        1.16253923011706
C            0.03739739474774        0.61149645021558        1.64740685455752
H           -0.14936106208390        1.37957524717174       -0.94642808738421
O           -0.38983174381031        0.56705548540578        2.82466700163075
H           -1.24721649451985        0.23872647363684       -1.48727590710960
H           -1.21825934574748       -0.86792408851559        0.73698043825127
O           -2.51098635262887       -2.53380367752331       -3.93777528688790
H           -1.99725989557492       -2.21453549359870       -4.68078641575526
H           -2.06852034902179       -3.32304804999088       -3.62434334316561
O           -2.38641576781365        3.02043702609125        2.85574907218952
H           -2.53551587940012        2.53693761760197        2.04018305685010
H           -2.06444469668742        2.34782334839387        3.47798476531470
O           -1.83219062866890       -2.87406516417683       -1.12510800459210
H           -2.75434901916975       -2.61719514360915       -1.18571765538364
H           -1.81774379788260       -3.80326869709248       -1.36953881468147
O            1.96917615642421       -2.92793673838682       -2.86534153890922
H            1.12236771406326       -2.83751876970881       -3.30682833205221
H            1.87761012557642       -3.66190234566902       -2.25476420187013
O            1.74804083770040        2.69200151324289       -3.83436123021103
H            0.95011218827781        3.06398853035354       -3.45023890543017
H            2.25337258477937        2.30987381020837       -3.10936087123465
O           -2.59651307676066       -2.85967117826675        1.29356134134463
H           -2.61290022813436       -2.57108892408603        2.20359824057020
H           -2.34458328601777       -3.78639065001278        1.29919253635176
O           -1.50563268439885        2.81882367521655       -3.26561060982129
H           -2.39796454380237        2.46038338623644       -3.37087559521991
H           -1.61788263145058        3.60120071265117       -2.71460387220250
34
 energy: -56.648210159965 gnorm: 0.062541476773 xtb: 6.7.1 (edcfbbe)
H            1.49552897752796       -0.31129317892413       -0.54472813491426
C            0.44531124918629       -0.57316605715842       -0.61587590993058
H            0.13921192959453        0.56833317341856       -2.34810134631141
H            0.31295036885645       -1.52671555226077       -1.11207275526633
N           -0.24599014164971        0.47430341548343       -1.40515433298058
H            0.31311970536524       -1.49057315916892        1.31838422148753
C           -0.14636459266718       -0.66797310206290        0.77738905873163
O            0.62733999801698        1.56780411013603        1.08011566452913
C            0.09248414021764        0.60513863070372        1.64162944586120
H           -0.13148045430800        1.36131751749987       -0.89466895931980
O           -0.42405235672335        0.59582939376346        2.78930340879457
H           -1.23802462634010        0.24651144712508       -1.47238467251216
H           -1.21304015945328       -0.88014561547603        0.74577719486422
O           -2.50396620833169       -2.52052220092209       -3.94479560226033
H           -2.03637207983492       -2.21443781695880       -4.72563167826288
H           -2.06959895392598       -3.32356538393015       -3.65837788837190
O           -2.43388689456593        3.01922203192012        2.87573098109533
H           -2.54331889117850        2.55308334114775        2.04278297609841
H           -2.01014436255430        2.35003084897639        3.45943809847839
O           -1.80161377538193       -2.87383587325561       -1.19181250901900
H           -2.72767698931084       -2.60708667383372       -1.17878908582492
H           -1.83627412522543       -3.83052487723341       -1.35668791070233
O            1.96223775409234       -2.88874810609291       -2.83009274436625
H            1.13224959975386       -2.85739412972255       -3.31864020764628
H            1.91172496481203       -3.66646691827986       -2.26422284005981
O            1.72729153803837        2.63753137911711       -3.84556845228861
H            0.93682425966268        3.04612566504610       -3.48365130413919
H            2.27536946016803        2.35907001108934       -3.08789296227608
O           -2.64923039725181       -2.86970734292938        1.32688533761616
H           -2.61846902350088       -2.56471970461426        2.23354087716856
H           -2.33735356048596       -3.77986710836628        1.33141518074537
O           -1.47435120391952        2.78045977544726       -3.17486255003912
H           -2.38310794654070        2.47095518700328       -3.40193532481560
H           -1.65148520214268        3.62809487331249       -2.71296527416307
34
 energy: -56.648025417329 gnorm: 0.080737124131 xtb: 6.7.1 (edcfbbe)
H            1.49900948135289       -0.32836819499763       -0.54261307621403
C            0.44785092880413       -0.59241252890794       -0.61620001267726
H            0.14435871710999        0.60464435612590       -2.32998310558469
H            0.31702638682424       -1.54000014736703       -1.12853641655963
N           -0.23877772531545        0.47654990730099       -1.38767448587012
H            0.33350601577672       -1.49204156127045        1.33378495233052
C           -0.14328534158494       -0.68754294661957        0.77911180182516
O            0.55402177235784        1.60473123439181        0.98948619527720
C            0.09331381864404        0.62123463673308        1.61666934928054
H           -0.11317518045540        1.34320682273923       -0.83720162657329
O           -0.42303546161009        0.62279679088708        2.76421989865382
H           -1.23291931305327        0.25614440426440       -1.45941393950312
H           -1.20946800335167       -0.90579516193909        0.75246164376500
O           -2.49831171101702       -2.49982332516122       -3.95241375930147
H           -2.08258380186634       -2.21473593479140       -4.78173318599732
H           -2.07312208483872       -3.32545435269256       -3.70026100991243
O           -2.40887228977417        3.01049675204476        2.88463628211561
H           -2.55671273464702        2.57733176040013        2.04420680269185
H           -2.01510339546864        2.34783359062016        3.45099135896173
O           -1.76970713467980       -2.88339854870884       -1.25247000247433
H           -2.69913245104172       -2.59984503110944       -1.16749686947169
H           -1.84352148191586       -3.85214592281348       -1.36225075745814
O            1.95805602515953       -2.84739225865463       -2.79271781971178
H            1.14546918499318       -2.87783268752909       -3.33090069098893
H            1.94938432757536       -3.66991087041039       -2.27210823740157
O            1.72234017266109        2.60681630359984       -3.84778306095285
H            0.91732061121302        3.02182711014150       -3.51877417059939
H            2.27398803705779        2.37929430355273       -3.07557458696864
O           -2.71519265261934       -2.88124548111173        1.36823049421708
H           -2.62463500097630       -2.55636404522394        2.27428055006606
H           -2.32913174227020       -3.77351585178471        1.37345150050766
O           -1.51986360764169        2.86230505660697       -3.22739209359790
H           -2.33679498574244        2.42345777293990       -3.34122325045779
H           -1.62645737966024        3.58622204874390       -2.65332867141556
34
 energy: -56.653962707419 gnorm: 0.040688270666 xtb: 6.7.1 (edcfbbe)
H            1.50494351323535       -0.34648743677432       -0.54492731119278
C            0.44747194768945       -0.60410771613911       -0.62030473152408
H            0.15484144775467        0.61925670429601       -2.31707799736862
H            0.32183597997467       -1.55240092881048       -1.14434937412933
N           -0.23443000846056        0.47600450254829       -1.37586358391639
H            0.35432841318062       -1.47802833260595        1.35033474689650
C           -0.14468429260244       -0.69087126094123        0.77969285596588
O            0.54198949712048        1.62034320331416        0.96335147125947
C            0.01311568911361        0.65528029902069        1.57897930393579
H           -0.10056199116344        1.33440778228043       -0.80391439297432
O           -0.38736004718783        0.62649918303412        2.76235929519576
H           -1.23343033406123        0.26051771025584       -1.45529687251963
H           -1.20838595419977       -0.93105133583786        0.74708236602213
O           -2.51086314394038       -2.49654791149469       -3.97970996028785
H           -2.09751242786246       -2.20922795941069       -4.80857564440474
H           -2.07811247013833       -3.32255595797652       -3.72435220363273
O           -2.44608015678752        3.01020374138022        2.90649630494253
H           -2.55708096074244        2.59703120537531        2.03720030482356
H           -1.97290585308709        2.33784830219951        3.43394284126640
O           -1.76448261478590       -2.91056888698307       -1.24242196817260
H           -2.67474012663082       -2.59469357260605       -1.18153885325303
H           -1.82230774136891       -3.84813814064333       -1.39207767306276
O            1.97230204938950       -2.86049137428799       -2.80729479719233
H            1.15570562663821       -2.86446822670383       -3.31900195036767
H            1.96181229091087       -3.65326332533372       -2.25998804294999
O            1.72945889135624        2.60463975969932       -3.84505974885106
H            0.90494780846386        3.00968698649190       -3.53685676177143
H            2.25410017523602        2.37176461319444       -3.07437535850693
O           -2.73099625585639       -2.88615409519699        1.39747763798186
H           -2.64071205926012       -2.55206068298300        2.30215702418170
H           -2.34653812515006       -3.77606819990063        1.40661385417405
O           -1.48759954437980        2.84690315239547       -3.16786470133883
H           -2.31340019693403        2.41167619050186       -3.37631427551522
H           -1.66882702546453        3.61219000864099       -2.63504180371295
34
 energy: -56.650356680999 gnorm: 0.106303940253 xtb: 6.7.1 (edcfbbe)
H            1.51424590379995       -0.37398389520475       -0.55511757003140
C            0.45292530516079       -0.61478156626842       -0.62718676359718
H            0.16820983569620        0.63459138615566       -2.30257765567703
H            0.31759018774649       -1.55977418848171       -1.15440509399329
N           -0.22278089519424        0.47687283892158       -1.36649725414459
H            0.37026626870193       -1.46039028729296        1.35874076214310
C           -0.13787060922641       -0.69018447564923        0.77329120068357
O            0.48737677717580        1.63667738882790        0.94420553086992
C           -0.03359754340620        0.67223705118537        1.55332467564284
H           -0.07433318730635        1.32050751360387       -0.76603238088349
O           -0.39074630923686        0.63771551097800        2.74697622930640
H           -1.22341815642338        0.27145839247021       -1.44963907062429
H           -1.19714010425590       -0.94996628312074        0.74046327294154
O           -2.54660683604849       -2.51176042365351       -4.04783347290457
H           -2.10775591861450       -2.19649681458915       -4.83203298806864
H           -2.08801359727605       -3.30071354644929       -3.74839894194657
O           -2.35351433374725        2.99865669634915        2.89237338610365
H           -2.59831373322128        2.61534144177518        2.04810107367681
H           -2.01323674620682        2.33708383065013        3.43476863669120
O           -1.73325781907245       -2.91971282339019       -1.27862735084415
H           -2.63592038954229       -2.58342745129655       -1.17948420339791
H           -1.84382265582908       -3.89227370283990       -1.34939741056442
O            1.97978580428794       -2.83979568747055       -2.78811546909587
H            1.17537686732891       -2.87237748595114       -3.32067882681090
H            1.99062732334786       -3.64812799995843       -2.26233389464922
O            1.69812347898021        2.55414631992940       -3.85310628700622
H            0.88825124005307        2.98935430527881       -3.54918830326303
H            2.25860306762700        2.41586450489983       -3.05635156115097
O           -2.70730496012006       -2.88482881958017        1.41745741460479
H           -2.67961529307971       -2.54334743170792        2.30793068270755
H           -2.38058042504118       -3.77610525974889        1.43575246860383
O           -1.42351569390251        2.79414883624220       -3.05335776413058
H           -2.28511917152939        2.42025896240036       -3.42742225103098
H           -1.72907568162619        3.66020116298468       -2.63212082016004
34
 energy: -56.657987092477 gnorm: 0.047806077770 xtb: 6.7.1 (edcfbbe)
H            1.51752094191681       -0.38746301439326       -0.56205212759146
C            0.45605175211871       -0.61694506436339       -0.63015486395295
H            0.17432702652035        0.64237897352300       -2.29665766202673
H            0.30964981385271       -1.55884487856230       -1.15411055105762
N           -0.21577215058743        0.47920949477658       -1.36465886913258
H            0.37215149617675       -1.45510206617333        1.35616475829905
C           -0.13176528114670       -0.68946847103052        0.76886397478583
O            0.43433628712243        1.64957030269923        0.93173939479129
C           -0.00339568482179        0.65583056700971        1.56063487004181
H           -0.06113095697147        1.31447273959638       -0.75118926795007
O           -0.41417296272913        0.64806356166782        2.73338182256297
H           -1.21493527742919        0.27956594384363       -1.44776758564157
H           -1.18956866111057       -0.95252160452113        0.74111851633558
O           -2.56019833940110       -2.51679705488440       -4.07325881762527
H           -2.11843042429315       -2.19347576943730       -4.84772330002309
H           -2.08971676303936       -3.28847778004297       -3.75950710940908
O           -2.43954744643404        3.00658621087651        2.91806300669050
H           -2.60569459716122        2.63399661931942        2.04839373087780
H           -1.91896668214822        2.32121083759948        3.40611306056447
O           -1.72787548671394       -2.93125334870789       -1.27929323418185
H           -2.61804054777578       -2.58558390186570       -1.18768101957521
H           -1.83668488371064       -3.89733981881914       -1.34971624657060
O            1.98718239799576       -2.83679537455944       -2.78559437439391
H            1.18663078394927       -2.87052107831554       -3.31746729307138
H            2.00341293109904       -3.64156485777878       -2.26044258956597
O            1.69465163783505        2.56157311305235       -3.84818012522269
H            0.87687662216709        2.97244884537262       -3.55018055360265
H            2.24464468442131        2.40769478808438       -3.06445100701347
O           -2.71914639754995       -2.88791736943851        1.43263226305797
H           -2.69434495474818       -2.53997051415044        2.31720423221115
H           -2.38239909853744       -3.77550456664696        1.45549221096663
O           -1.44814864432691        2.82678731345533       -3.09480443302154
H           -2.27757844112407        2.41438682102228       -3.38289121339228
H           -1.69408069341540        3.62883840179086       -2.60853959716309
34
 energy: -56.655868286927 gnorm: 0.084975799858 xtb: 6.7.1 (edcfbbe)
H            1.52267180016242       -0.40600692417136       -0.56893575150543
C            0.45783505591175       -0.62372201668995       -0.63156343100719
H            0.19120914645750        0.66301314403023       -2.28788416757720
H            0.30048154424646       -1.56406744459880       -1.15642629665616
N           -0.20287163889327        0.48380043738033       -1.36001249522087
H            0.38802589471084       -1.44528168275309        1.36608643783318
C           -0.12831346665016       -0.69420561614318        0.76949575319724
O            0.37072807530939        1.66982357460469        0.89422463550719
C           -0.01432001137824        0.65929223301160        1.55023283081228
H           -0.04388504818220        1.30592399809496       -0.72239544160372
O           -0.42003597179082        0.65802891611237        2.72657370343391
H           -1.20241361227775        0.29259409920195       -1.44847592192083
H           -1.18298235532956       -0.97298047848909        0.74311237650874
O           -2.56239400876252       -2.49090268437734       -4.06382956558193
H           -2.18400811596460       -2.19658728448750       -4.91347150519523
H           -2.08036915435473       -3.27625019068766       -3.78848574691696
O           -2.39522669659053        3.00242300621768        2.92230263450278
H           -2.59575134780481        2.66007448757070        2.04278988886489
H           -1.95827121690132        2.30731685643263        3.40001977178093
O           -1.72998063656748       -2.96909337922700       -1.26871368946173
H           -2.60884199522665       -2.60492146366354       -1.17719083913409
H           -1.79916630473766       -3.87228314492080       -1.42052131446527
O            1.99534673768591       -2.81510157368665       -2.76445019487345
H            1.20622178963275       -2.88126819791789       -3.32228778750039
H            2.03467162459873       -3.64080719503344       -2.26235560685599
O            1.69296033985577        2.56212601850039       -3.84032903688013
H            0.85368617358602        2.94816537788259       -3.56330440584732
H            2.21852342755535        2.39237586446406       -3.06954851013435
O           -2.82411493526942       -2.90467630661043        1.46058036961639
H           -2.69368342478767       -2.52361129402703        2.34952386096994
H           -2.32840075731920       -3.76915453171456        1.50119974569173
O           -1.44293875221447        2.81610989581336       -3.07567514200655
H           -2.27537289685791        2.43664208764182       -3.37294597371065
H           -1.66317726185263        3.61027941223826       -2.59385918466358
34
 energy: -56.660657881386 gnorm: 0.047227988541 xtb: 6.7.1 (edcfbbe)
H            1.52753712632801       -0.41978253310627       -0.57587728051381
C            0.45878680100219       -0.62650592567829       -0.63421792567777
H            0.20424426979922        0.67392245664223       -2.28317553851675
H            0.29416695769888       -1.56758543425088       -1.15803582949916
N           -0.19453533529026        0.48612506115256       -1.35901646683301
H            0.39945585283415       -1.43261696181823        1.37369565109541
C           -0.12688603400735       -0.69231457134932        0.76881893506246
O            0.34686731036662        1.67521906036653        0.89112685107680
C           -0.05368083107998        0.67274137140153        1.53479382590039
H           -0.03375266953452        1.30037099688485       -0.70515140913048
O           -0.41671614953955        0.65751469247528        2.72593900276614
H           -1.19489446430405        0.30042764569311       -1.45240578971902
H           -1.17855815389571       -0.98599796671511        0.73984029886815
O           -2.57812141918884       -2.48968606194823       -4.08519221121229
H           -2.20435850588351       -2.19380278865351       -4.93817580864410
H           -2.08214088334109       -3.26856916808812       -3.80709822475020
O           -2.43314774318862        3.00311844000352        2.94374686510867
H           -2.59091798358884        2.68367230722277        2.03817316870772
H           -1.91828433592772        2.29159430640327        3.37476841739594
O           -1.69407800500760       -2.96447783974435       -1.32400831124130
H           -2.59167344859794       -2.60012662317383       -1.14360016778720
H           -1.83494654642241       -3.91923905802671       -1.38381545403500
O            2.00665695205795       -2.81087685070570       -2.75954835876997
H            1.22280083348357       -2.87910202359722       -3.31964510151582
H            2.05384276943491       -3.63452887894159       -2.25897410419552
O            1.66155715781088        2.51407997849918       -3.84846153947703
H            0.83721920260048        2.93660910159187       -3.57138899858450
H            2.22441254042828        2.43279139703789       -3.04944128240307
O           -2.77529793718857       -2.89841454607402        1.46278486259103
H           -2.71358118937292       -2.51478020381864        2.34539338795010
H           -2.37397721883318       -3.77526135800210        1.51314198695547
O           -1.43354606128446        2.80931331107594       -3.05464477604548
H           -2.26728008728928        2.44550146093204       -3.36552903054227
H           -1.65133077107952        3.60773520630752       -2.58133964438458
34
 energy: -56.657684255497 gnorm: 0.102361757499 xtb: 6.7.1 (edcfbbe)
H            1.53242445134028       -0.43885401734662       -0.58641753294506
C            0.46002448536980       -0.62789948752763       -0.63837997072581
H            0.22075865007814        0.67705730066100       -2.28090642632198
H            0.28216259169667       -1.56944241069565       -1.15663396342312
N           -0.18442342710450        0.48676634948130       -1.36320547356979
H            0.40639518779370       -1.42089703627993        1.37336869037590
C           -0.12010948372864       -0.68563498135924        0.76792694136538
O            0.29180931550725        1.69426002531273        0.89800826112509
C           -0.06498015456193        0.66875348958225        1.53724507398996
H           -0.02462250161352        1.29487699239888       -0.69818672477980
O           -0.43770564416363        0.66115447397778        2.72128256045718
H           -1.18438619789846        0.30757856289715       -1.46383098805926
H           -1.16880081082508       -0.98907555348094        0.74048707805156
O           -2.63700429761081       -2.52130452147882       -4.18114485255480
H           -2.16922571105832       -2.16928573719052       -4.91451913567924
H           -2.10985031105989       -3.24192657359197       -3.81584633440016
O           -2.41980934216097        3.00089630740560        2.93232204809827
H           -2.62266223955408        2.68166808796921        2.05116561193085
H           -1.88527200366695        2.30552244919857        3.35799668881456
O           -1.68732477762831       -2.96875237702179       -1.33346874948841
H           -2.55064252785756       -2.60805286121824       -1.22551134934211
H           -1.81811758929594       -3.95529502757355       -1.32345108962995
O            2.02751926241099       -2.81493568940464       -2.76037799661527
H            1.24901164491003       -2.86777055017537       -3.31054704702474
H            2.07529433346704       -3.62260578902118       -2.25179604069227
O            1.67619595944612        2.57317264958981       -3.82216541207718
H            0.80996084159791        2.90456341732299       -3.55790434694858
H            2.17587609364097        2.37818569542602       -3.07837125271439
O           -2.73251720018718       -2.89105676769449        1.48675620382370
H           -2.75171120982443       -2.51128493986335        2.35650358480893
H           -2.43360623250712       -3.77608388535726        1.54203063439862
O           -1.40475542849396        2.79189238411536       -3.00676041580231
H           -2.24098942266729        2.44302747090957       -3.36831793905939
H           -1.66307430379055        3.62785055003034       -2.57387033538711
34