22
 energy: -34.375617927469 gnorm: 0.148585243931 xtb: 6.7.1 (edcfbbe)
N            0.39850000000000        0.95501000000000        0.35298000000000
C            1.02426000000000        2.11865000000000       -0.27133000000000
C            0.43671000000000        2.48795000000000       -1.65145000000000
C            0.66767000000000        1.45058000000000       -2.76828000000000
C           -0.22466000000000        0.23616000000000       -2.73435000000000
O           -0.05724000000000       -0.72395000000000       -3.66194000000000
O           -1.12876000000000        0.12745000000000       -1.92275000000000
H            0.79119000000000        0.84024000000000        1.31440000000000
H           -0.63409000000000        1.09682000000000        0.43130000000000
H            0.88446000000000        2.99537000000000        0.39861000000000
H            2.11774000000000        1.94251000000000       -0.36713000000000
H            0.97778000000000        3.40916000000000       -1.96052000000000
H           -0.64055000000000        2.74856000000000       -1.57831000000000
H            1.73499000000000        1.14457000000000       -2.75598000000000
H            0.46726000000000        1.94295000000000       -3.74416000000000
H            0.62265000000000        0.08722000000000       -0.18140000000000
O           -0.61116461050000        0.16614873570000        2.63354474580000
H           -0.05450269620000       -0.60505972370000        2.35802110730000
H           -1.39756833370000       -0.24111926720000        3.07661738990000
O           -2.83825108680000       -2.07475698280000       -3.26639132050000
H           -3.10289420870000       -1.85112989280000       -4.19402443370000
H           -2.24391161100000       -1.33176696390000       -2.99191394590000
22
 energy: -34.391095954131 gnorm: 0.073777315122 xtb: 6.7.1 (edcfbbe)
N            0.40642116519526        0.96735075952271        0.33751909971054
C            1.03277203402681        2.13786952881865       -0.28558801424307
C            0.45180685387899        2.49661733187343       -1.65472513808161
C            0.67550523397548        1.45820288175076       -2.76295513334774
C           -0.24150964547041        0.24566399575832       -2.74886273593815
O           -0.03229608728938       -0.65855700625685       -3.64795703910251
O           -1.13965412465993        0.12354356244609       -1.90273810931863
H            0.77244715615319        0.84999986183843        1.29674333689906
H           -0.61617830694705        1.08862585840628        0.40505583787126
H            0.88893510675946        2.99690726974762        0.38140815361923
H            2.10911966534690        1.95402524814086       -0.38459241807106
H            0.95805213174822        3.41773968239449       -1.96873738366229
H           -0.61901613584409        2.71724463195443       -1.57136227481217
H            1.72286416159935        1.13087832521858       -2.77329230033888
H            0.48812634299806        1.93577050184087       -3.73404984996198
H            0.60055540077409        0.10953715343482       -0.19776760120579
O           -0.60628692619278        0.11526736200140        2.65844267170056
H           -0.09712031887868       -0.67733005495807        2.41811166784774
H           -1.40826908693168       -0.22337280452051        3.08801084298196
O           -2.87336140311180       -2.04605130401809       -3.25598591875869
H           -3.07485173774020       -1.84578138326761       -4.18665506390322
H           -2.20844402628981       -1.37258549682636       -2.99447908698442
22
 energy: -34.395636700785 gnorm: 0.030263611494 xtb: 6.7.1 (edcfbbe)
N            0.40852092652379        0.98362747363252        0.31978997598410
C            1.04892307137421        2.15890674892410       -0.29961037560701
C            0.46167742996396        2.50619764785225       -1.65910055240143
C            0.69153542350134        1.46236015457233       -2.75421121806199
C           -0.21900789512847        0.22050498215173       -2.73573429427949
O           -0.06434543475641       -0.57658811298530       -3.67207746878281
O           -1.13805613364626        0.13645546351140       -1.88478002340090
H            0.73647828948266        0.85528890930103        1.28354299991899
H           -0.60916334341190        1.09141736748928        0.35963669274605
H            0.90043856374864        3.00530396513181        0.36485362415032
H            2.11280395989102        1.96189532223100       -0.39936890363573
H            0.92952713601699        3.43328052388695       -1.98192289375151
H           -0.61019278469514        2.67894047804185       -1.57025619740142
H            1.72164310504893        1.11191953359688       -2.77561882871260
H            0.50625602306037        1.91959279639839       -3.72739558762848
H            0.57066331920424        0.13620818545443       -0.22617362636663
O           -0.60162685548069        0.05880172443209        2.67058642286725
H           -0.12913475775521       -0.75877013907226        2.48607459597783
H           -1.41653506466718       -0.20147450397131        3.10769905609987
O           -2.83793476455897       -2.05030193756663       -3.26114897317699
H           -3.05855670300363       -1.83309205399679       -4.16447960677052
H           -2.21429605761217       -1.37890862371517       -2.96476127486652
22
 energy: -34.397548352728 gnorm: 0.041750940060 xtb: 6.7.1 (edcfbbe)
N            0.40098702796014        0.99608860868193        0.30627476109625
C            1.05760133707185        2.17035918305916       -0.30404406764480
C            0.46189346869094        2.51403784822760       -1.66106953523278
C            0.69451679529282        1.47515746156094       -2.75772591380694
C           -0.25091282572429        0.24547926933612       -2.78259610294968
O           -0.04856456471285       -0.57505399651814       -3.68052655856360
O           -1.10763485090498        0.12274743025564       -1.86466560588906
H            0.70716806611665        0.85672527234842        1.27691289107919
H           -0.61920433883372        1.10886349248307        0.32201303709153
H            0.91193782611552        3.01700095776286        0.36235850799334
H            2.12115403853230        1.96421186923452       -0.40508290556876
H            0.91152574338859        3.45057692317209       -1.98772387131878
H           -0.61477303393731        2.66506550774895       -1.56876369132211
H            1.71954006120619        1.10138989422659       -2.77101053456170
H            0.52126197464634        1.93917692346062       -3.73014239504202
H            0.55473782468298        0.15264488746962       -0.25098706537558
O           -0.58105224672721        0.00412239823832        2.67500118861455
H           -0.16052098405513       -0.86908795871292        2.55408834974112
H           -1.43238678945278       -0.16203091521415        3.12521684020905
O           -2.86292196161045       -2.02807421977613       -3.23995744534815
H           -3.01327142481689       -1.82173406345641       -4.16811083697353
H           -2.18146368982854       -1.40610086828778       -2.93391550332692
22
 energy: -34.398755623746 gnorm: 0.030122995776 xtb: 6.7.1 (edcfbbe)
N            0.38423624821834        1.00814864045238        0.29666518510324
C            1.05609965111772        2.17751693672914       -0.30662325550579
C            0.45822346899300        2.51624476829958       -1.66640307028367
C            0.70463428287870        1.47654481766634       -2.75887405274465
C           -0.23580962010820        0.23869205640324       -2.78729311568700
O           -0.05820159246381       -0.56244568682379       -3.73162402198319
O           -1.09572348775994        0.11604239708628       -1.87939106907750
H            0.66884252174929        0.85708141767487        1.27575713190339
H           -0.63851263634463        1.13181246176903        0.28727306357012
H            0.91815305245247        3.02972238277940        0.35922974030395
H            2.12139821628221        1.96460757984592       -0.40775719255580
H            0.89386554282938        3.46189124889120       -1.99654489279457
H           -0.62230163567047        2.65391878268010       -1.57169749666975
H            1.73144170241331        1.10326479193884       -2.75543515124315
H            0.54247235408111        1.93838553317313       -3.73735419688828
H            0.53948056645797        0.16567358468158       -0.26658907580460
O           -0.58373347781112       -0.02082112913908        2.70676541373371
H           -0.16871542253001       -0.88568959218674        2.58230256673112
H           -1.42842063282593       -0.18818774886041        3.14366541158006
O           -2.89051637874169       -2.00529861070401       -3.20379360519995
H           -2.95865371023342       -1.82627717084194       -4.16479555554666
H           -2.14864155988389       -1.42926155621391       -2.90193921804032
22
 energy: -34.399129310256 gnorm: 0.042279751415 xtb: 6.7.1 (edcfbbe)
N            0.35754082119575        1.02392968569285        0.28388257464939
C            1.04998331736295        2.18378814926051       -0.31355771719904
C            0.45204537048019        2.51701202935008       -1.67735141325594
C            0.71823797328736        1.47906119603450       -2.76687186729038
C           -0.21973634491891        0.23506799720600       -2.79717900160894
O           -0.06883153455628       -0.54613335042127       -3.78791446318715
O           -1.07733533341388        0.10707705329317       -1.89785543584475
H            0.61099527315921        0.85680832959410        1.27257852148903
H           -0.66616165502795        1.16409415324069        0.23879151611969
H            0.92850233852131        3.04353512904927        0.35057056233660
H            2.11553030606715        1.95970413807488       -0.41536428669302
H            0.86907742620600        3.47284474115709       -2.00932570494298
H           -0.63057872807437        2.64015590566291       -1.57793455221989
H            1.74569095147766        1.10549384596046       -2.73546260280570
H            0.58016518405591        1.93761214177727       -3.75366897957355
H            0.51397090634481        0.18262547723393       -0.28522870190926
O           -0.56736674819147       -0.06383313142647        2.73987733439924
H           -0.18173317000528       -0.93615422939386        2.63181749453872
H           -1.41438349962075       -0.19948599116761        3.16189890999232
O           -2.78132028061822       -2.04029866746099       -3.19068718942525
H           -2.96602377161289       -1.82399380301470       -4.10204932212493
H           -2.17865134901759       -1.37734489440117       -2.85342213254310
22
 energy: -34.400720862589 gnorm: 0.024969038272 xtb: 6.7.1 (edcfbbe)
N            0.33587789826536        1.02909589095544        0.27989979554777
C            1.03877987229350        2.18313805099542       -0.31845363198283
C            0.44674519098479        2.51868071841232       -1.68392658625351
C            0.72649836816690        1.48509943110480       -2.77504238018824
C           -0.21749650501929        0.24454032414893       -2.81410220394825
O           -0.05610909113864       -0.53611058578216       -3.78016197144740
O           -1.07220983052587        0.11462153543984       -1.91234113893428
H            0.57581010427817        0.85771405629142        1.26925133882232
H           -0.68423970699573        1.17465526435437        0.22193320503469
H            0.92403651675228        3.04298804414920        0.34364406113854
H            2.10130957970867        1.95118812917953       -0.41613737338120
H            0.86001985244898        3.47460435305007       -2.00960597175695
H           -0.63482300208198        2.63719782920713       -1.58914567869310
H            1.74980478448106        1.10477620874354       -2.72462490063754
H            0.60915166066452        1.94226690031513       -3.76387189776428
H            0.48848403470616        0.18788835512852       -0.28772308801183
O           -0.53528320799077       -0.09496105531464        2.73418132149410
H           -0.18738029513161       -1.00045528207997        2.66615565675167
H           -1.40461259332592       -0.16801928159907        3.16169214351396
O           -2.78711491895486       -2.02667411558354       -3.16993988824089
H           -2.92309210727209       -1.81804022454892       -4.09607427831813
H           -2.16453915121278       -1.38262864126552       -2.82006298984332
22
 energy: -34.400151621479 gnorm: 0.059759120707 xtb: 6.7.1 (edcfbbe)
N            0.28286724571928        1.03763857810086        0.27345499865356
C            1.01379300813145        2.17698871040809       -0.32500733568989
C            0.44066868915105        2.51733083831227       -1.69658650026848
C            0.74359504833630        1.49053920172964       -2.78946645297326
C           -0.21938099050076        0.26312815839372       -2.86512135530137
O           -0.02588983645221       -0.51712383605997       -3.78266863530746
O           -1.04286892409689        0.09955376376178       -1.92945631045564
H            0.48786380417056        0.85714559443351        1.26756563447658
H           -0.72893282795879        1.19690638757506        0.18487521424497
H            0.90839408945979        3.03911600675414        0.32940009339843
H            2.07015311308551        1.92658316783580       -0.41050493226328
H            0.84923844231796        3.47301776198543       -2.00999821469937
H           -0.64044984592210        2.62556385300350       -1.61913612938076
H            1.75905182583090        1.09670847160083       -2.70935383150565
H            0.66341493331646        1.95133889204119       -3.77637619192595
H            0.43107175782404        0.19403243658790       -0.28606408034368
O           -0.52631755233547       -0.11415741546392        2.73732707887087
H           -0.15710597648103       -0.98534512337940        2.68726342125981
H           -1.35762940155436       -0.20031217613130        3.17555076337906
O           -2.79811169027531       -2.00058444213489       -3.11701846328666
H           -2.83407776829718       -1.81352589655509       -4.07325858259846
H           -2.12972969036791       -1.39297702749702       -2.74987664538195
22
 energy: -34.402723075201 gnorm: 0.022296972940 xtb: 6.7.1 (edcfbbe)
N            0.26054207657589        1.04257971410308        0.27009900987265
C            1.00110898384287        2.17648803746068       -0.32409060814503
C            0.43505352063493        2.51863335862481       -1.69881583049911
C            0.74975242186272        1.49041341344692       -2.78743275218848
C           -0.19808875031703        0.25446795518715       -2.86746110134149
O           -0.03239351985279       -0.49578756272785       -3.84075783136219
O           -1.03363542062347        0.08243985651711       -1.94894278969568
H            0.45996839005536        0.86002730298412        1.26510335510585
H           -0.74984404036104        1.21033111947088        0.17448279618478
H            0.89939729640921        3.04175512805076        0.32954754636595
H            2.05768076719376        1.91952045945702       -0.40700329875391
H            0.84155578949149        3.47847796646904       -2.00946021949817
H           -0.64873719072795        2.62135035005842       -1.62801966319514
H            1.76762777406827        1.10428296638515       -2.69884446181168
H            0.67644846130852        1.95222658139526       -3.77498014490893
H            0.41105924565095        0.19635113240636       -0.28768430456451
O           -0.49191310187062       -0.13879112735040        2.72329307908369
H           -0.15638114893276       -1.05093529759525        2.72971556020735
H           -1.34504622099718       -0.15914392102965        3.18006364236264
O           -2.78102671946576       -1.99354472324857       -3.09843824522887
H           -2.81857250846931       -1.80857374155948       -4.05143606430474
H           -2.11493865237461       -1.38100306320312       -2.73339413078330
22
 energy: -34.404010915439 gnorm: 0.018059618588 xtb: 6.7.1 (edcfbbe)
N            0.20752307387479        1.05076799839110        0.26470207578914
C            0.97100885000257        2.17247580008616       -0.32284518285483
C            0.42420068086163        2.51443084184741       -1.70669930246532
C            0.76391751859098        1.49060669008365       -2.79367867082936
C           -0.17239618234543        0.25011668916949       -2.89827980085663
O           -0.01869663896704       -0.46775803818967       -3.90995070747156
O           -1.00600093132499        0.04747333987911       -1.98469189002756
H            0.38879632135479        0.86004854941308        1.26283406727914
H           -0.79795610843236        1.23444575796046        0.15259779149755
H            0.87586557346468        3.04234635714809        0.32717739845460
H            2.02549111960803        1.90029787350106       -0.39561772599113
H            0.82941692404391        3.47820933215896       -2.00950279128684
H           -0.66172141814094        2.61118656149189       -1.65328140952793
H            1.78160905070751        1.10798254822536       -2.68117590318904
H            0.71348147891418        1.95545135481753       -3.78197102515692
H            0.35540961623747        0.20049017869400       -0.29054477316723
O           -0.43071963202717       -0.16135802562264        2.75478702548782
H           -0.14124820987074       -1.08290160824044        2.74628652551492
H           -1.30704310827590       -0.14378639164653        3.18014699772128
O           -2.73593085897430       -1.98280157399930       -3.05388931669940
H           -2.78972913899553       -1.80437520178595       -3.99610301263132
H           -2.08566052720427       -1.35178312807995       -2.69475682668737
22
 energy: -34.405816061396 gnorm: 0.025816581158 xtb: 6.7.1 (edcfbbe)
N            0.11399516436946        1.05669968251543        0.25637307841731
C            0.91497500002328        2.15864696286989       -0.31819016580428
C            0.40772595644124        2.50534217791200       -1.71833453028765
C            0.78781913094646        1.49095143832382       -2.80423050102104
C           -0.12963855073378        0.24734929677226       -2.95199085573943
O            0.01011982618290       -0.42312924677420       -4.00787176478931
O           -0.95417172169753       -0.01051782316458       -2.03939605851828
H            0.27314349864605        0.85104445665590        1.25627974242068
H           -0.88081353961256        1.26852012575329        0.12758635413441
H            0.82666185390148        3.03377345316387        0.32637525257566
H            1.96501516114297        1.86248648613784       -0.36939284229115
H            0.81767203804338        3.47305687660870       -2.00433130562215
H           -0.68068307510387        2.59738996053377       -1.69904115407290
H            1.80375370646989        1.11404299492875       -2.65573983484661
H            0.77332389806723        1.96369450867925       -3.78977962221325
H            0.25280769499676        0.20049641910734       -0.29679521294607
O           -0.36377711037069       -0.17928557648949        2.74160214909842
H           -0.08241576516042       -1.10534993442935        2.80017926672288
H           -1.22167999508354       -0.12468195848272        3.18573811031082
O           -2.68808457744448       -1.94970289097219       -2.97383999216614
H           -2.70286610514179       -1.81343712063798       -3.92650615495786
H           -2.05326503577992       -1.29582438370817       -2.62315041550155
22
 energy: -34.407550435814 gnorm: 0.019946513675 xtb: 6.7.1 (edcfbbe)
N            0.02085712481687        1.05289584170081        0.24461100136091
C            0.85624538376660        2.13766954571723       -0.31212046178345
C            0.39712724909964        2.49671154457264       -1.72872317795545
C            0.81345807306620        1.49338704484753       -2.81391884122618
C           -0.08732916175439        0.25457595093683       -2.99216099613499
O            0.04319093393956       -0.39551619924722       -4.05490887880023
O           -0.90097218157429       -0.03853655412491       -2.07784789127884
H            0.17678285661854        0.82533028308969        1.24115970129877
H           -0.96260894642432        1.29677774925001        0.12155338055047
H            0.76718470164772        3.01430415426004        0.32989031552284
H            1.90152681012092        1.82152548706137       -0.33610668477245
H            0.82203634192350        3.46533196007237       -1.99395116519489
H           -0.69226024714047        2.59278690690836       -1.74740532535705
H            1.82572003916427        1.11990678966820       -2.63635787081451
H            0.82607388934656        1.97470254504668       -3.79377343493907
H            0.13807222728365        0.19456266978535       -0.31690414071971
O           -0.28772817796606       -0.17301062937195        2.73654188057962
H           -0.01166769487682       -1.08553773160602        2.81115832336604
H           -1.13246366067966       -0.10679031752987        3.17897073930202
O           -2.66078881508319       -1.93062687650664       -2.91084107539831
H           -2.63851677508409       -1.82461723602647       -3.86655791378466
H           -2.02432251710763       -1.26426702320017       -2.56676394091799
22
 energy: -34.409222532250 gnorm: 0.024468829407 xtb: 6.7.1 (edcfbbe)
N           -0.07888822648909        1.04976298984793        0.22250278435252
C            0.80025489954711        2.11665734352668       -0.30694908420513
C            0.39165007449313        2.49183929704101       -1.73643103421922
C            0.84511689446601        1.50292562010132       -2.82037170311475
C           -0.04627761450829        0.26872052329338       -3.03130721884605
O            0.06391676524642       -0.35016155671187       -4.10297961524742
O           -0.82430617362659       -0.06276934873617       -2.08757848262022
H            0.07345180925555        0.78001997233973        1.21586656760166
H           -1.05215349468873        1.33748699240369        0.10476936660674
H            0.71034994940985        2.99222401030526        0.33461306086420
H            1.83819186731941        1.77672970775487       -0.30091817834444
H            0.82722840375476        3.46258990612610       -1.97763438669862
H           -0.69692448144654        2.58852828206989       -1.79226546176792
H            1.85134314046593        1.12841848016548       -2.61701599030648
H            0.88418240245381        1.99617906803267       -3.79233163332832
H           -0.00197050699034        0.20014925853661       -0.36773989959325
O           -0.19581658242586       -0.17926997054868        2.71905188952689
H            0.05625272020002       -1.09983828982683        2.85171342526827
H           -1.03512860407011       -0.05473013863518        3.17814315854253
O           -2.66087265606291       -1.91311595771032       -2.84809484570325
H           -2.56622987813943       -1.85114274582583       -3.81636855112676
H           -1.99375325506053       -1.25963753824531       -2.51313062473767
22
 energy: -34.410251742431 gnorm: 0.044813950622 xtb: 6.7.1 (edcfbbe)
N           -0.15514368137826        1.03850925852349        0.20090591581454
C            0.75319058308182        2.09276760901280       -0.29869154655664
C            0.39238415999948        2.48614667455672       -1.73405883813043
C            0.86948829189883        1.50979377419680       -2.81436325920346
C           -0.01256461729138        0.27701694540167       -3.04665994014676
O            0.07552035604085       -0.31323447784258       -4.12526506171582
O           -0.75740006591771       -0.07991684465297       -2.07897760419096
H            0.03659554228190        0.71221957776597        1.17686735179495
H           -1.11930741540055        1.37539544765301        0.13214097850278
H            0.65835633068968        2.96316351341699        0.34763448475711
H            1.78267743137292        1.73589794983462       -0.26576094717293
H            0.84843801448156        3.45347439441684       -1.95112432452909
H           -0.69013885805852        2.59823128163826       -1.82262587014690
H            1.87160700293401        1.13898080245720       -2.60248267979057
H            0.91886989188667        2.01778489835492       -3.77651767712112
H           -0.14395539203487        0.21452216360807       -0.45064065299049
O           -0.13030611714379       -0.14868024313354        2.68109394324844
H            0.13417848242638       -1.06220633376782        2.86443506624346
H           -0.93939477740219       -0.00700604339829        3.17812418973821
O           -2.65104658454771       -1.93593747677893       -2.83091900470968
H           -2.58942283008791       -1.85613224264642       -3.76652315337075
H           -1.96300829472741       -1.28922472331191       -2.50104782742029
22
 energy: -34.412363231552 gnorm: 0.031966024233 xtb: 6.7.1 (edcfbbe)
N           -0.20529182771690        1.03642273797909        0.19046299153043
C            0.71827789628838        2.07895849429147       -0.29168182923310
C            0.39030520854923        2.48013422062468       -1.72905893651625
C            0.88450781858246        1.50764168422038       -2.80213338920231
C            0.01122664037033        0.26676021581731       -3.05777584191105
O            0.08292986475126       -0.28327710535278       -4.16616124092183
O           -0.72700680675998       -0.11371668599778       -2.09949565810878
H            0.03563247698984        0.66429349791341        1.14326660986714
H           -1.16175039437685        1.41001341712261        0.17968040214970
H            0.62557168130263        2.94771310584797        0.35788957235156
H            1.74077348788761        1.70717813271901       -0.24218305249753
H            0.86280276957230        3.44305347231168       -1.92885825141872
H           -0.68581837542853        2.60810258570884       -1.84089424728663
H            1.88726632159951        1.14468966364353       -2.57869560806515
H            0.94670802153464        2.02619690668900       -3.76117561773383
H           -0.25146490788748        0.24418919208903       -0.52345891111590
O           -0.06425347165662       -0.12537153554663        2.70266223744722
H            0.17049085059828       -1.03259458350118        2.82957127465548
H           -0.88218950620829        0.02570066164386        3.18092665910167
O           -2.65581699257866       -1.92822355244538       -2.79933979438390
H           -2.55495490225273       -1.91737252799430       -3.75647865012767
H           -1.97832840005655       -1.26892609247868       -2.49152517567684
22
 energy: -34.413331701537 gnorm: 0.026013881332 xtb: 6.7.1 (edcfbbe)
N           -0.25385015091761        1.04550529286058        0.18708608549774
C            0.68431468485333        2.07467907792131       -0.28689623017930
C            0.38516001091558        2.48048575875350       -1.72968273716597
C            0.90023222191953        1.50620585438336       -2.79660025624584
C            0.03141555305368        0.25513255023608       -3.07919943085218
O            0.11086089164274       -0.26321956375549       -4.20626473202706
O           -0.72707638764171       -0.15225064329385       -2.16323905538774
H            0.01316328210261        0.65108516630245        1.11823270553583
H           -1.20070795054545        1.42835275844015        0.22205667264070
H            0.60457944193892        2.94765539180903        0.36235204223233
H            1.70253194963317        1.68286878108390       -0.22244290382288
H            0.86683299535215        3.44198345181750       -1.91311059833579
H           -0.68934017285984        2.61523737145321       -1.86274032719463
H            1.90481367963967        1.14516204543778       -2.53530916050339
H            0.99355788029292        2.02361103184135       -3.76262683294261
H           -0.31772412018570        0.28935482494566       -0.56334525942925
O           -0.02156632509410       -0.13163713446345        2.68315317173743
H            0.19884482500324       -1.05547650040446        2.84706127500166
H           -0.83229063562251        0.05466158071208        3.18156394720107
O           -2.64582315485056       -1.91603647600734       -2.76414437937080
H           -2.53961794111463       -1.95030077978646       -3.72900434329760
H           -1.97869312441128       -1.25149393498150       -2.47135611018776
22
 energy: -34.414606705155 gnorm: 0.021500697150 xtb: 6.7.1 (edcfbbe)
N           -0.29871613850562        1.04393119336030        0.17213043752545
C            0.66265118090112        2.06487902950951       -0.28056942694908
C            0.39503386507230        2.48609677434158       -1.72563536206829
C            0.91689948348020        1.51526735683929       -2.79051156251678
C            0.05800932627819        0.25957939905808       -3.07383956654121
O            0.11984019439477       -0.23030268642850       -4.21898247829585
O           -0.66614663589486       -0.18799329065315       -2.13295154465531
H           -0.00640218958921        0.61753993628074        1.08397715470373
H           -1.23697105373395        1.44520934188729        0.26196931224329
H            0.58722254362701        2.93683089835513        0.37180330328529
H            1.67499439357436        1.65738990790979       -0.19928426680602
H            0.88749734001423        3.44547395017247       -1.89492572379321
H           -0.67768832717200        2.62924687410184       -1.87640894398502
H            1.91872751024114        1.15676539107509       -2.53228391268222
H            1.00158946092340        2.03030740549908       -3.75072208923862
H           -0.38758924330883        0.32248820328824       -0.61140227052124