[Molden Format]
[Title]
 Molden file created by orca_2mkl for BaseName=input

[Atoms] AU
N    1   7         -1.3975707059        -0.3678849744         4.7018542935 
C    2   6         -1.4283931272        -1.2689418119         2.0795126595 
C    3   6          0.7646394597        -0.0415684870         0.6675858927 
C    4   6          0.3877469244        -0.0194923327        -2.1798935020 
C    5   6          0.8737716117        -2.4878718456        -3.5293024080 
O    6   8          1.2514426204        -4.5028679133        -2.3132047795 
O    7   8          0.8496027080        -2.4457723587        -5.9028090538 
H    8   1          0.2896187194        -0.8471902085         5.5680566532 
H    9   1         -1.5289081200         1.5925415436         4.6662464936 
H   10   1         -3.2198972056        -0.7411779818         1.2076270282 
H   11   1         -1.2816870286        -3.3225201237         2.0284722941 
H   12   1          2.5296427918        -0.9987317802         1.1165574816 
H   13   1          0.9250382847         1.9174658549         1.2767025751 
H   14   1         -1.5546161078         0.4989351451        -2.6305856209 
H   15   1          1.6225980121         1.3697830544        -3.0663102889 
H   16   1         -2.8797353636        -1.1268581330         5.7467706881 
[GTO]
  1 0
s   6 1.0 
    19730.8006470000         0.6956035199
     2957.8958745000         1.2986099328
      673.2213359500         2.2190880635
      190.6824949400         3.4636607549
       62.2954418980         4.6967555531
       22.6541611820         4.9522510945
s   2 1.0 
        8.9791477428         2.3880677979
        3.6863002370         0.7337878750
s   1 1.0 
        0.8466007680         0.6290267082
s   1 1.0 
        0.3364713377         0.3148626514
s   1 1.0 
        0.1364765367         0.1600308040
p   4 1.0 
       49.2003805100         2.1264813968
       11.3467905370         2.3279367185
        3.4273972411         2.0485729192
        1.1785525134         1.2607319854
p   1 1.0 
        0.4164220497         0.4768230427
p   1 1.0 
        0.1426082601         0.1249168256
d   1 1.0 
        1.6540000000         6.8771297418
d   1 1.0 
        0.4690000000         0.7577440909
f   1 1.0 
        1.0930000000         6.9645882147

  2 0
s   6 1.0 
    13575.3496820000         0.5435905310
     2035.2333680000         1.0145543947
      463.2256235900         1.7315731970
      131.2001959800         2.6910376290
       42.8530158910         3.6044547126
       15.5841857660         3.7025556986
s   2 1.0 
        6.2067138508         1.8383540830
        2.5764896527         0.5447575605
s   1 1.0 
        0.5769633942         0.4718145038
s   1 1.0 
        0.2297283136         0.2364944676
s   1 1.0 
        0.0951644400         0.1221141848
p   4 1.0 
       34.6972322440         1.3596651507
        7.9582622826         1.4512589486
        2.3780826883         1.2709231419
        0.8143320818         0.8025721189
p   1 1.0 
        0.2888754725         0.3018758868
p   1 1.0 
        0.1005682367         0.0807265016
d   1 1.0 
        1.0970000000         3.3522135855
d   1 1.0 
        0.3180000000         0.3838994974
f   1 1.0 
        0.7610000000         3.0840084332

  3 0
s   6 1.0 
    13575.3496820000         0.5435905310
     2035.2333680000         1.0145543947
      463.2256235900         1.7315731970
      131.2001959800         2.6910376290
       42.8530158910         3.6044547126
       15.5841857660         3.7025556986
s   2 1.0 
        6.2067138508         1.8383540830
        2.5764896527         0.5447575605
s   1 1.0 
        0.5769633942         0.4718145038
s   1 1.0 
        0.2297283136         0.2364944676
s   1 1.0 
        0.0951644400         0.1221141848
p   4 1.0 
       34.6972322440         1.3596651507
        7.9582622826         1.4512589486
        2.3780826883         1.2709231419
        0.8143320818         0.8025721189
p   1 1.0 
        0.2888754725         0.3018758868
p   1 1.0 
        0.1005682367         0.0807265016
d   1 1.0 
        1.0970000000         3.3522135855
d   1 1.0 
        0.3180000000         0.3838994974
f   1 1.0 
        0.7610000000         3.0840084332

  4 0
s   6 1.0 
    13575.3496820000         0.5435905310
     2035.2333680000         1.0145543947
      463.2256235900         1.7315731970
      131.2001959800         2.6910376290
       42.8530158910         3.6044547126
       15.5841857660         3.7025556986
s   2 1.0 
        6.2067138508         1.8383540830
        2.5764896527         0.5447575605
s   1 1.0 
        0.5769633942         0.4718145038
s   1 1.0 
        0.2297283136         0.2364944676
s   1 1.0 
        0.0951644400         0.1221141848
p   4 1.0 
       34.6972322440         1.3596651507
        7.9582622826         1.4512589486
        2.3780826883         1.2709231419
        0.8143320818         0.8025721189
p   1 1.0 
        0.2888754725         0.3018758868
p   1 1.0 
        0.1005682367         0.0807265016
d   1 1.0 
        1.0970000000         3.3522135855
d   1 1.0 
        0.3180000000         0.3838994974
f   1 1.0 
        0.7610000000         3.0840084332

  5 0
s   6 1.0 
    13575.3496820000         0.5435905310
     2035.2333680000         1.0145543947
      463.2256235900         1.7315731970
      131.2001959800         2.6910376290
       42.8530158910         3.6044547126
       15.5841857660         3.7025556986
s   2 1.0 
        6.2067138508         1.8383540830
        2.5764896527         0.5447575605
s   1 1.0 
        0.5769633942         0.4718145038
s   1 1.0 
        0.2297283136         0.2364944676
s   1 1.0 
        0.0951644400         0.1221141848
p   4 1.0 
       34.6972322440         1.3596651507
        7.9582622826         1.4512589486
        2.3780826883         1.2709231419
        0.8143320818         0.8025721189
p   1 1.0 
        0.2888754725         0.3018758868
p   1 1.0 
        0.1005682367         0.0807265016
d   1 1.0 
        1.0970000000         3.3522135855
d   1 1.0 
        0.3180000000         0.3838994974
f   1 1.0 
        0.7610000000         3.0840084332

  6 0
s   6 1.0 
    27032.3826310000         0.8598581479
     4052.3871392000         1.6055305368
      922.3272271000         2.7458778516
      261.2407098900         4.2987674426
       85.3546413510         5.8797663284
       31.0350352450         6.3163983216
s   2 1.0 
       12.2608607280         2.9812147522
        4.9987076005         0.9419559635
s   1 1.0 
        1.1703108158         0.8019291610
s   1 1.0 
        0.4647474099         0.4011648062
s   1 1.0 
        0.1850453636         0.2010799406
p   4 1.0 
       63.2749548010         3.0572017144
       14.6270493790         3.3844839414
        4.4501223456         2.9474262132
        1.5275799647         1.7118271494
p   1 1.0 
        0.5293511794         0.6436057926
p   1 1.0 
        0.1747842127         0.1610897254
d   1 1.0 
        2.3140000000        12.3767310624
d   1 1.0 
        0.6450000000         1.3234257612
f   1 1.0 
        1.4280000000        12.7097950062

  7 0
s   6 1.0 
    27032.3826310000         0.8598581479
     4052.3871392000         1.6055305368
      922.3272271000         2.7458778516
      261.2407098900         4.2987674426
       85.3546413510         5.8797663284
       31.0350352450         6.3163983216
s   2 1.0 
       12.2608607280         2.9812147522
        4.9987076005         0.9419559635
s   1 1.0 
        1.1703108158         0.8019291610
s   1 1.0 
        0.4647474099         0.4011648062
s   1 1.0 
        0.1850453636         0.2010799406
p   4 1.0 
       63.2749548010         3.0572017144
       14.6270493790         3.3844839414
        4.4501223456         2.9474262132
        1.5275799647         1.7118271494
p   1 1.0 
        0.5293511794         0.6436057926
p   1 1.0 
        0.1747842127         0.1610897254
d   1 1.0 
        2.3140000000        12.3767310624
d   1 1.0 
        0.6450000000         1.3234257612
f   1 1.0 
        1.4280000000        12.7097950062

  8 0
s   3 1.0 
       34.0613410000         0.2556299169
        5.1235746000         0.4613599649
        1.1646626000         0.6811214941
s   1 1.0 
        0.3272304100         0.3083545312
s   1 1.0 
        0.1030724100         0.1296483265
p   1 1.0 
        0.8000000000         1.0784563492

  9 0
s   3 1.0 
       34.0613410000         0.2556299169
        5.1235746000         0.4613599649
        1.1646626000         0.6811214941
s   1 1.0 
        0.3272304100         0.3083545312
s   1 1.0 
        0.1030724100         0.1296483265
p   1 1.0 
        0.8000000000         1.0784563492

 10 0
s   3 1.0 
       34.0613410000         0.2556299169
        5.1235746000         0.4613599649
        1.1646626000         0.6811214941
s   1 1.0 
        0.3272304100         0.3083545312
s   1 1.0 
        0.1030724100         0.1296483265
p   1 1.0 
        0.8000000000         1.0784563492

 11 0
s   3 1.0 
       34.0613410000         0.2556299169
        5.1235746000         0.4613599649
        1.1646626000         0.6811214941
s   1 1.0 
        0.3272304100         0.3083545312
s   1 1.0 
        0.1030724100         0.1296483265
p   1 1.0 
        0.8000000000         1.0784563492

 12 0
s   3 1.0 
       34.0613410000         0.2556299169
        5.1235746000         0.4613599649
        1.1646626000         0.6811214941
s   1 1.0 
        0.3272304100         0.3083545312
s   1 1.0 
        0.1030724100         0.1296483265
p   1 1.0 
        0.8000000000         1.0784563492

 13 0
s   3 1.0 
       34.0613410000         0.2556299169
        5.1235746000         0.4613599649
        1.1646626000         0.6811214941
s   1 1.0 
        0.3272304100         0.3083545312
s   1 1.0 
        0.1030724100         0.1296483265
p   1 1.0 
        0.8000000000         1.0784563492

 14 0
s   3 1.0 
       34.0613410000         0.2556299169
        5.1235746000         0.4613599649
        1.1646626000         0.6811214941
s   1 1.0 
        0.3272304100         0.3083545312
s   1 1.0 
        0.1030724100         0.1296483265
p   1 1.0 
        0.8000000000         1.0784563492

 15 0
s   3 1.0 
       34.0613410000         0.2556299169
        5.1235746000         0.4613599649
        1.1646626000         0.6811214941
s   1 1.0 
        0.3272304100         0.3083545312
s   1 1.0 
        0.1030724100         0.1296483265
p   1 1.0 
        0.8000000000         1.0784563492

 16 0
s   3 1.0 
       34.0613410000         0.2556299169
        5.1235746000         0.4613599649
        1.1646626000         0.6811214941
s   1 1.0 
        0.3272304100         0.3083545312
s   1 1.0 
        0.1030724100         0.1296483265
p   1 1.0 
        0.8000000000         1.0784563492

[5D]
[7F]
[9G]
[MO]
 Sym=     1a
 Ene= -1.90478959232749E+01
 Spin= Alpha
 Occup= 2.000000
  1       0.000000858129
  2      -0.000005186015
  3       0.000087809847
  4      -0.000394143894
  5       0.000767148480
  6      -0.000006587322
  7      -0.000010295497
  8      -0.000020977668
  9       0.000025922176
 10       0.000124209566
 11       0.000244008443
 12      -0.000304736357
 13      -0.000102423908
 14      -0.000243024059
 15      -0.000001442194
 16      -0.000012032238
 17      -0.000005308754
 18      -0.000002209178
 19       0.000012217538
 20      -0.000072106123
 21       0.000066221359
 22      -0.000049912116
 23       0.000013534837
 24      -0.000044866580
 25       0.000007562810
 26      -0.000002069479
 27       0.000012544464
 28       0.000000433798
 29       0.000002328616
 30      -0.000001287844
 31       0.000003665531
 32      -0.000000417182
 33       0.000002074062
 34      -0.000080718202
 35       0.000515417315
 36      -0.007357561322
 37       0.000011277700
 38      -0.000027826458
 39      -0.000025356497
 40       0.000274344153
 41       0.000413011232
 42       0.000253995518
 43      -0.001011927584
 44      -0.000984057720
 45       0.001186563341
 46      -0.000000990511
 47      -0.000018659898
 48       0.000005061255
 49       0.000004911160
 50      -0.000008747059
 51       0.000269987473
 52      -0.000075452959
 53      -0.000030329638
 54       0.000095476821
 55       0.000274936103
 56       0.000026524540
 57       0.000017742033
 58       0.000035038899
 59       0.000007141241
 60      -0.000047271822
 61      -0.000027813068
 62       0.000007359640
 63       0.000003459510
 64      -0.000019959581
 65       0.000758628672
 66      -0.005234380245
 67       0.015604553577
 68      -0.000044134879
 69       0.000020753598
 70      -0.000027202279
 71       0.000928675603
 72       0.000319588693
 73       0.002175071649
 74      -0.001944006521
 75      -0.000976454403
 76      -0.001543812335
 77      -0.000047118078
 78       0.000012089820
 79      -0.000037152978
 80       0.000013914718
 81      -0.000019365632
 82      -0.000910722877
 83      -0.000248832335
 84       0.000220712306
 85      -0.000168621019
 86      -0.000123042521
 87       0.000097714649
 88       0.000053852971
 89       0.000001644550
 90      -0.000050996301
 91      -0.000000955339
 92       0.000019045714
 93       0.000025858757
 94      -0.000020890569
 95       0.000101872249
 96      -0.000609288927
 97      -0.000307799573
 98      -0.005477314518
 99      -0.000073083178
100       0.000106383953
101      -0.000103877772
102       0.000309880431
103       0.001928376941
104       0.002832510121
105      -0.000262197850
106      -0.000402304649
107      -0.004276841897
108      -0.000030096442
109       0.000027537103
110      -0.000062628999
111       0.000135665440
112       0.000047955140
113       0.002000632604
114       0.000090126542
115      -0.000343851402
116      -0.000091276929
117       0.000172782457
118      -0.000034169724
119       0.000004735921
120      -0.000039117438
121      -0.000020350556
122      -0.000023879523
123      -0.000028954833
124      -0.000000382865
125      -0.000048986726
126       0.000281404612
127      -0.000309098074
128      -0.003854177993
129       0.002808413697
130      -0.000068112563
131       0.000379039959
132      -0.000307994350
133      -0.001385292945
134       0.007420462713
135      -0.002976298507
136       0.000885516865
137      -0.004938920720
138       0.004533391273
139       0.000059369321
140      -0.000051002569
141       0.000328321422
142       0.000389521841
143       0.000160103549
144       0.000708584156
145      -0.000889183977
146       0.004469721990
147       0.001845001243
148       0.000677933745
149      -0.000135644460
150      -0.000001394786
151       0.000057484934
152       0.000129580589
153       0.000046738162
154      -0.000179937011
155       0.000273153450
156      -0.435091319276
157      -0.639517882219
158      -0.036400612189
159       0.030439416651
160      -0.013376710916
161       0.000306035765
162      -0.001674873454
163       0.000945289436
164      -0.000973609229
165       0.005349271077
166      -0.002982912040
167       0.000184241731
168      -0.001292131032
169       0.000073618105
170       0.000068847251
171      -0.000043347449
172       0.000245304558
173       0.000130756816
174       0.000054473055
175      -0.000292091032
176       0.000231920506
177      -0.001278842904
178      -0.000847161440
179      -0.000338263690
180       0.000095427990
181      -0.000007739217
182       0.000030526917
183       0.000150161009
184       0.000056738891
185      -0.000055759067
186       0.000090247924
187       0.000587481131
188       0.000850835291
189       0.000277510414
190      -0.001832285204
191       0.002815248805
192       0.000008970658
193      -0.000008676697
194      -0.000108865099
195      -0.000097711162
196       0.000311729730
197      -0.000097711644
198      -0.000156523670
199       0.001030999524
200       0.000127280185
201      -0.000044768981
202       0.000006337993
203      -0.000028543048
204       0.000076676482
205       0.000027277134
206       0.000077957485
207      -0.000052901107
208       0.000208985512
209      -0.000302898808
210      -0.000106469351
211       0.000006046281
212       0.000001088796
213      -0.000021402330
214      -0.000094593410
215      -0.000034717437
216       0.000007583097
217      -0.000010893083
218      -0.000024349915
219       0.000003769313
220       0.000268231915
221       0.000020105596
222      -0.000000875582
223      -0.000009191262
224       0.000003288075
225      -0.000044860480
226       0.000049031905
227       0.000007390347
228       0.000017002343
229       0.000008011588
230      -0.000030659502
231       0.000545091766
232       0.000826864023
233       0.000055916025
234       0.000005253034
235       0.000049242467
236       0.000013586620
237       0.000374456517
238       0.000267250408
239      -0.000014406472
240       0.000084568170
241       0.000019176180
242       0.000060706034
243      -0.000739787577
244      -0.001730236816
245       0.000063928698
246       0.000063369218
247       0.000113308362
248       0.000048972608
249      -0.000778689003
250      -0.000892391579
251       0.000018040215
252       0.000087424808
253      -0.000048080897
254       0.000098805442
255       0.001071944056
256      -0.000058121626
257       0.000137349496
258      -0.000146334958
259       0.000063112489
260      -0.000016608143
261       0.000333978649
262       0.000512494219
263       0.000112138122
264      -0.000113018092
265       0.000103375755
266       0.000035022272
267      -0.000119406527
268      -0.000143195671
269       0.000010223242
270      -0.000002262704
271       0.000016614359
 Sym=     1a
 Ene= -1.90440389528131E+01
 Spin= Alpha
 Occup= 2.000000
  1       0.000002746290
  2      -0.000016321816
  3       0.000215470799
  4      -0.000948846083
  5       0.002383532892
  6       0.000001388432
  7      -0.000011273144
  8      -0.000024844399
  9       0.000011541076
 10       0.000093036016
 11       0.000289905745
 12       0.000443969944
 13      -0.000501811241
 14      -0.000777807662
 15      -0.000010865294
 16       0.000007036589
 17      -0.000014437460
 18       0.000000574478
 19       0.000008220231
 20      -0.000027117506
 21      -0.000009701390
 22      -0.000004827414
 23       0.000031583208
 24      -0.000034314907
 25       0.000004440361
 26       0.000001071133
 27       0.000014096137
 28      -0.000003438466
 29      -0.000002555723
 30      -0.000003213673
 31      -0.000002438888
 32       0.000001740874
 33      -0.000008104016
 34      -0.000109230673
 35       0.000564169360
 36      -0.003832444881
 37       0.000002253997
 38       0.000002160993
 39      -0.000020422707
 40       0.000138141699
 41       0.000152918889
 42       0.000041157419
 43      -0.001387789862
 44       0.000608057055
 45      -0.001178907198
 46      -0.000021162389
 47      -0.000005651939
 48      -0.000010013162
 49       0.000018201807
 50      -0.000004794182
 51       0.000209372341
 52      -0.000059302063
 53       0.000052786118
 54       0.000017402043
 55       0.000065883736
 56       0.000046939300
 57       0.000004768662
 58       0.000047278336
 59      -0.000012108196
 60      -0.000008202179
 61      -0.000019052428
 62      -0.000006912667
 63      -0.000002542709
 64       0.000011890737
 65       0.000227640762
 66      -0.002792697470
 67       0.002517360186
 68      -0.000057913137
 69       0.000032905549
 70       0.000039066452
 71       0.000793314819
 72      -0.000096090822
 73       0.001363301843
 74       0.000425265270
 75      -0.003327674894
 76      -0.000596796146
 77      -0.000047148764
 78       0.000019617710
 79      -0.000103122276
 80       0.000024526905
 81       0.000002740243
 82      -0.000423104486
 83      -0.000131902913
 84       0.000326698450
 85      -0.000018903972
 86      -0.000322978153
 87       0.000032403592
 88       0.000001077186
 89       0.000012127902
 90       0.000016533120
 91      -0.000005874614
 92       0.000001078380
 93       0.000003049832
 94      -0.000017766455
 95       0.000085875883
 96      -0.000279752581
 97      -0.002144455770
 98       0.000659651259
 99      -0.000055203381
100       0.000098029113
101      -0.000007470039
102       0.000027503859
103       0.001636096808
104       0.002466770207
105      -0.000338229227
106       0.001424431967
107       0.001810194350
108      -0.000097650042
109       0.000006414800
110      -0.000072335796
111       0.000095682661
112       0.000020589759
113       0.001481528011
114       0.000213265751
115      -0.000557348555
116       0.000084919986
117       0.000233877057
118      -0.000111465010
119       0.000024803780
120      -0.000108102192
121      -0.000063571199
122      -0.000016581128
123      -0.000064082611
124       0.000040497890
125      -0.000050825524
126       0.000291523088
127      -0.000633328749
128      -0.002723724956
129       0.004246564312
130       0.000029140234
131      -0.000074093779
132       0.000469897593
133      -0.000150537818
134       0.000979750941
135       0.009051415930
136      -0.000547856099
137       0.002330163543
138      -0.007047573785
139      -0.000530662145
140       0.000009334072
141      -0.000031207736
142       0.000028073371
143       0.000015309741
144      -0.004584552044
145      -0.000240973788
146       0.000801575541
147      -0.001104741248
148      -0.000404206283
149       0.000214455231
150       0.000000386227
151       0.000062038769
152      -0.000375864670
153      -0.000137443844
154       0.000029006279
155      -0.000045636701
156      -0.000585466725
157      -0.000875287808
158       0.000253745929
159      -0.002132248726
160       0.002882133683
161       0.000019137955
162      -0.000083340852
163       0.000017026270
164       0.000027896432
165      -0.000175752793
166       0.000526801281
167      -0.000017001249
168       0.000395008052
169       0.000465068725
170      -0.000034282586
171       0.000001030531
172       0.000004566121
173       0.000071641996
174       0.000025354623
175       0.000100612416
176      -0.000038263637
177       0.000164021979
178      -0.000212833136
179      -0.000067288957
180      -0.000084925152
181      -0.000009521281
182       0.000036802948
183       0.000007482841
184       0.000000502204
185      -0.000025330237
186       0.000045377274
187      -0.435086004568
188      -0.639515184093
189      -0.036436675225
190       0.030474396293
191      -0.013137067633
192      -0.000010488952
193      -0.000001222592
194      -0.001960143667
195       0.000027623307
196       0.000005930881
197       0.006296890617
198       0.000054540291
199      -0.000287820401
200      -0.000917100411
201      -0.000291755133
202      -0.000003312164
203       0.000008247165
204      -0.000036963575
205      -0.000013412676
206       0.001638641152
207       0.000018408840
208      -0.000047212182
209       0.000091271418
210       0.000033579974
211       0.000219614841
212       0.000006522018
213      -0.000019100132
214      -0.000008819420
215      -0.000003117211
216      -0.000000896391
217       0.000001924263
218       0.000028083453
219      -0.000262315571
220       0.000058572511
221       0.000011902258
222      -0.000002868315
223       0.000010201828
224       0.000009714142
225       0.000017419330
226       0.000188480872
227       0.000001285528
228      -0.000022193063
229      -0.000010682871
230       0.000048652104
231      -0.000246180659
232      -0.000350608831
233      -0.000053486886
234       0.000014266736
235       0.000037769171
236      -0.000001448744
237       0.000074459639
238       0.001222781861
239       0.000010013304
240      -0.000015129455
241       0.000043015387
242       0.000013798427
243      -0.000830709448
244      -0.000625294977
245       0.000096709222
246      -0.000006837201
247       0.000061291962
248      -0.000033503240
249       0.000237146789
250       0.001287375935
251       0.000007948431
252      -0.000013031347
253      -0.000059528202
254       0.000102527259
255       0.000583487857
256      -0.001248775874
257       0.000091138429
258      -0.000057475973
259       0.000085131909
260       0.000012210278
261       0.000225363835
262      -0.001030258974
263       0.000029588845
264      -0.000052488416
265       0.000119904437
266       0.000015968551
267      -0.000035859347
268       0.000136658782
269       0.000000313579
270       0.000017091755
271      -0.000000239058
 Sym=     1a
 Ene= -1.44305557161752E+01
 Spin= Alpha
 Occup= 2.000000
  1      -0.448316881782
  2      -0.626809611144
  3      -0.037184131570
  4       0.030973533151
  5      -0.023622229245
  6      -0.000053678567
  7       0.000195089514
  8       0.000684245992
  9       0.000179612444
 10      -0.001577261282
 11      -0.005267279327
 12      -0.000359241594
 13       0.000344912580
 14       0.002050687648
 15      -0.000090700222
 16       0.000009781535
 17      -0.000033848587
 18      -0.000002028173
 19       0.000001529569
 20       0.001768482664
 21      -0.000154715497
 22       0.000988747865
 23      -0.000151154249
 24      -0.000033433611
 25      -0.000123271820
 26       0.000047512263
 27      -0.000110587762
 28      -0.000060187363
 29      -0.000016470400
 30       0.000038901777
 31      -0.000148480058
 32      -0.000009876719
 33       0.000051559492
 34       0.001551282717
 35      -0.007787842474
 36       0.018485239333
 37       0.000101485337
 38       0.000097578269
 39       0.000053538802
 40      -0.000958247056
 41      -0.002560352841
 42      -0.005443959190
 43       0.001348307921
 44       0.001858322000
 45       0.001994599574
 46      -0.000269642082
 47       0.000056371017
 48      -0.000105604134
 49       0.000026310742
 50       0.000074365686
 51      -0.001865910813
 52      -0.000331035515
 53      -0.001685817562
 54       0.000059963767
 55      -0.000818146204
 56      -0.000131757659
 57       0.000036714168
 58      -0.000095903240
 59       0.000052674890
 60      -0.000018005504
 61      -0.000039211835
 62       0.000072470500
 63      -0.000006571465
 64       0.000037340894
 65      -0.000578313486
 66       0.001618497460
 67      -0.008851174495
 68       0.000034484977
 69      -0.000025318266
 70      -0.000112911419
 71      -0.000578454233
 72      -0.000141137347
 73       0.000611471353
 74       0.003032746083
 75       0.001896990367
 76       0.000478883181
 77      -0.000050296326
 78       0.000008570635
 79      -0.000027781973
 80       0.000040004432
 81       0.000025135930
 82       0.001165659203
 83      -0.000805857762
 84      -0.000004813418
 85       0.000044926523
 86       0.000028417896
 87       0.000059041506
 88      -0.000156894263
 89      -0.000092261931
 90       0.000115836500
 91      -0.000013563733
 92      -0.000011272938
 93      -0.000066331587
 94      -0.000002583999
 95       0.000015446634
 96      -0.000268846698
 97       0.000366021863
 98       0.004699186505
 99       0.000009013883
100       0.000040074485
101      -0.000032833472
102      -0.000260637906
103      -0.000391174769
104      -0.000512984944
105      -0.000558858670
106      -0.000808670099
107       0.000839663764
108      -0.000022430273
109       0.000015530350
110       0.000004510206
111       0.000038314461
112       0.000001180568
113      -0.000082854336
114      -0.000318411240
115       0.000240168846
116      -0.000297222886
117      -0.000017494486
118       0.000031105856
119      -0.000031289054
120       0.000022762314
121       0.000034131384
122       0.000000356720
123       0.000003872223
124      -0.000029262005
125       0.000001820486
126      -0.000010279834
127       0.000159008734
128      -0.001008792312
129      -0.000601827966
130      -0.000025258055
131       0.000011332081
132       0.000018446648
133       0.000205678905
134      -0.000526370022
135      -0.000610778352
136       0.000291003445
137      -0.000754277548
138       0.000562854305
139      -0.000006435389
140      -0.000005905864
141      -0.000021641532
142       0.000032334642
143       0.000006161626
144       0.000269992419
145       0.000105551203
146      -0.000077593731
147       0.000070835549
148       0.000083504906
149      -0.000026499006
150       0.000008173702
151      -0.000018260355
152       0.000006490933
153       0.000025674560
154       0.000012605703
155      -0.000007768810
156       0.000000273613
157      -0.000003110132
158       0.000025834236
159      -0.000062780003
160      -0.000178732907
161      -0.000004875114
162       0.000000299433
163       0.000025566743
164       0.000019633271
165      -0.000018932614
166      -0.000136379705
167      -0.000077503442
168       0.000128044689
169       0.000325807796
170      -0.000003123263
171      -0.000001072451
172      -0.000009886871
173       0.000008741811
174       0.000004259374
175       0.000012670879
176       0.000002457435
177       0.000025688635
178      -0.000024771830
179      -0.000013698347
180       0.000003341529
181       0.000002287822
182       0.000000377596
183      -0.000003522474
184      -0.000000478421
185       0.000000346557
186      -0.000001382322
187       0.000001173574
188      -0.000013535013
189       0.000145441892
190      -0.000594063571
191       0.000595220083
192      -0.000000818572
193      -0.000000481595
194       0.000002748882
195       0.000005858891
196       0.000018036279
197      -0.000143319500
198      -0.000017830593
199       0.000120855820
200       0.000002473997
201       0.000000265987
202      -0.000001011673
203      -0.000003345720
204      -0.000000389437
205      -0.000001095138
206      -0.000035195585
207       0.000002412877
208       0.000029825305
209      -0.000000147826
210       0.000003428491
211      -0.000001638085
212      -0.000002544682
213       0.000006095396
214       0.000000314598
215       0.000001383101
216       0.000000952334