
                                 *****************
                                 * O   R   C   A *
                                 *****************

                                            #,                                       
                                            ###                                      
                                            ####                                     
                                            #####                                    
                                            ######                                   
                                           ########,                                 
                                     ,,################,,,,,                         
                               ,,#################################,,                 
                          ,,##########################################,,             
                       ,#########################################, ''#####,          
                    ,#############################################,,   '####,        
                  ,##################################################,,,,####,       
                ,###########''''           ''''###############################       
              ,#####''   ,,,,##########,,,,          '''####'''          '####       
            ,##' ,,,,###########################,,,                        '##       
           ' ,,###''''                  '''############,,,                           
         ,,##''                                '''############,,,,        ,,,,,,###''
      ,#''                                            '''#######################'''  
     '                                                          ''''####''''         
             ,#######,   #######,   ,#######,      ##                                
            ,#'     '#,  ##    ##  ,#'     '#,    #''#        ,####,   ,####,        
            ##       ##  ##   ,#'  ##            #'  '#       #'       #'  '#        
            ##       ##  #######   ##           ,######,      #####,   #    #        
            '#,     ,#'  ##    ##  '#,     ,#' ,#      #,     #,   #   #,  ,#        
             '#######'   ##     ##  '#######'  #'      '#     '####' # '####'        



                #########################################################
                #                        -***-                          #
                #          Department of theory and spectroscopy        #
                #                                                       #
                #                      Frank Neese                      #
                #                                                       #
                #     Directorship, Architecture, Infrastructure        #
                #                    SHARK, DRIVERS                     #
                #        Core code/Algorithms in most modules           #
                #                                                       #
                #        Max Planck Institute fuer Kohlenforschung      #
                #                Kaiser Wilhelm Platz 1                 #
                #                 D-45470 Muelheim/Ruhr                 #
                #                      Germany                          #
                #                                                       #
                #                  All rights reserved                  #
                #                        -***-                          #
                #########################################################


                         Program Version 6.0.1  -  RELEASE   -


 With contributions from (in alphabetic order):
[Max-Planck-Institut fuer Kohlenforschung]                               
  Daniel Aravena         : Magnetic Suceptibility                        
  Michael Atanasov       : Ab Initio Ligand Field Theory (pilot matlab implementation)
  Alexander A. Auer      : GIAO ZORA, VPT2 properties, NMR spectrum      
  Ute Becker             : All parallelization in ORCA, NUMFREQ, NUMCALC 
  Giovanni Bistoni       : ED, misc. LED, open-shell LED, HFLD           
  Martin Brehm           : Molecular dynamics                            
  Dmytro Bykov           : pre 5.0 version of the SCF Hessian            
  Marcos Casanova-Páez   : Triplet and SCS-CIS(D). UHF-(DLPNO)-IP/EA/STEOM-CCSD. UHF-CVS-IP/STEOM-CCSD   
  Vijay G. Chilkuri      : MRCI spin determinant printing, contributions to CSF-ICE 
  Pauline Colinet        : FMM embedding                                 
  Dipayan Datta          : RHF DLPNO-CCSD density                        
  Achintya Kumar Dutta   : EOM-CC, STEOM-CC                              
  Nicolas Foglia         : Exact transition moments, OPA infrastructure, MCD improvements    
  Dmitry Ganyushin       : Spin-Orbit,Spin-Spin,Magnetic field MRCI      
  Miquel Garcia-Rates    : C-PCM and meta-GGA Hessian, CCSD/C-PCM, Gaussian charge scheme 
  Tiago L. C. Gouveia    : GS-ROHF, GS-ROCIS                             
  Yang Guo               : DLPNO-NEVPT2, F12-NEVPT2, CIM, IAO-localization        
  Andreas Hansen         : Spin unrestricted coupled pair/coupled cluster methods 
  Ingolf Harden          : AUTO-CI MPn and infrastructure                
  Benjamin Helmich-Paris : MC-RPA, TRAH-(SCF,CASSCF), AVAS, COSX integrals, SCF dyn. polar. 
  Lee Huntington         : MR-EOM, pCC                                   
  Robert Izsak           : Overlap fitted RIJCOSX, COSX-SCS-MP3, EOM     
  Riya Kayal             : Wick's Theorem for AUTO-CI, AUTO-CI UHF-CCSDT 
  Emily Kempfer          : AUTO-CI, RHF CISDT and CCSDT                  
  Christian Kollmar      : KDIIS, OOCD, Brueckner-CCSD(T), CCSD density, CASPT2, CASPT2-K, improved NEVPT2 
  Axel Koslowski         : Symmetry handling                             
  Simone Kossmann        : meta-GGA functionals, TD-DFT gradient, OOMP2, (MP2 Hessian; deprecated post 5.0) 
  Lucas Lang             : DCDCAS                                        
  Marvin Lechner         : AUTO-CI (C++ implementation), FIC-MRCC        
  Spencer Leger          : CASSCF response                               
  Dagmar Lenk            : GEPOL surface, SMD, ORCA-2-JSON               
  Dimitrios Liakos       : Extrapolation schemes; Compound Job, initial MDCI parallelization 
  Dimitrios Manganas     : Further ROCIS development; embedding schemes. LFT, Crystal Embedding 
  Dimitrios Pantazis     : SARC Basis sets                               
  Anastasios Papadopoulos: AUTO-CI, single reference methods and gradients 
  Taras Petrenko         : pre 6.0 DFT Hessian and TD-DFT gradient, (ASA, deprecated), ECA, 1-Electron XAS/XES, NRVS 
  Peter Pinski           : DLPNO-MP2, DLPNO-MP2 Gradient                 
  Christoph Reimann      : Effective Core Potentials                     
  Marius Retegan         : Local ZFS, SOC                                
  Christoph Riplinger    : Optimizer, TS searches, QM/MM, DLPNO-CCSD(T), (RO)-DLPNO pert. Triples 
  Michael Roemelt        : Original ROCIS implementation                 
  Masaaki Saitow         : Open-shell DLPNO-CCSD energy and density      
  Barbara Sandhoefer     : DKH picture change effects                    
  Kantharuban Sivalingam : CASSCF convergence/infrastructure, NEVPT2 and variants, FIC-MRCI 
  Bernardo de Souza      : ESD, SOC TD-DFT                               
  Georgi L. Stoychev     : AutoAux, RI-MP2 NMR, DLPNO-MP2 response, X2C  
  Van Anh Tran           : RI-MP2 g-tensors                              
  Willem Van den Heuvel  : Paramagnetic NMR                              
  Zikuan Wang            : NOTCH, Electric field optimization            
  Frank Wennmohs         : Technical directorship and infrastructure     
  Hang Xu                : AUTO-CI-Response properties                   
                                                                         
[FACCTs GmbH]                                                            
  Markus Bursch, Miquel Garcia-Rates, Christoph Riplinger, Bernardo de Souza, Georgi L. Stoychev 
                                                                 
  APM, Basis sets (HGBS, AHGBS, def-TZVP (Ac-Lr), def2-XVPD (La-Lu)), CI-OPT, improved COSX, DLPNO-Multilevel,           
  DOCKER, DRACO, updates on ESD, GOAT, IRC, LR-CPCM, MBIS, meta-GGA TD-DFT gradient, ML-optimized integration grids, 
  MM, NACMEs, nearIR, NEB, NEB-TS, NL-DFT gradient (VV10), 2- and 3-layer-ONIOM, interface openCOSMO-RS, QMMM,   
  Crystal-QMMM, SF, symmetry and pop. for TD-DFT, r2SCAN hybrids, SOLVATOR                                   
                                                                         
[Other institutions]                                                     
  V. Asgeirsson          : NEB                                           
  Christoph Bannwarth    : sTDA-DFT, sTD-DFT, PBEh-3c, B97-3c, D3        
  Sebastian Ehlert       : rSCAN, r2SCAN, r2SCAN-3c, D4, dhf basis sets  
  Marvin Friede          : D4 for Fr, Ra, Ac-Lr                          
  Lars Goerigk           : TD-DFT with DH, B97 family of functionals     
  Stefan Grimme          : VdW corrections, initial TS optimization, DFT functionals, gCP, sTDA/sTD-DF 
  Waldemar Hujo          : DFT-NL                                        
  H. Jonsson             : NEB                                           
  Holger Kruse           : gCP                                           
  Marcel Mueller         : wB97X-3c, vDZP basis set                      
  Hagen Neugebauer       : wr2SCAN                                       
  Tobias Risthaus        : range-separated hybrid DFT                    
  Lukas Wittmann         : regularized MP2, r2SCAN double-hybrids, wr2SCAN        
                                                                         
We gratefully acknowledge several colleagues who have allowed us to      
interface, adapt or use parts of their codes:                            
  Ed Valeev, F. Pavosevic, A. Kumar             : LibInt (2-el integral package), F12 methods 
  Garnet Chan, S. Sharma, J. Yang, R. Olivares  : DMRG                   
  Ulf Ekstrom                                   : XCFun DFT Library      
  Mihaly Kallay                                 : mrcc  (arbitrary order and MRCC methods)
  Frank Weinhold                                : gennbo (NPA and NBO analysis)           
  Simon Mueller                                 : openCOSMO-RS                            
  Christopher J. Cramer and Donald G. Truhlar   : smd solvation model                     
  S Lehtola, MJT Oliveira, MAL Marques          : LibXC Library                           
  Liviu Ungur et al                             : ANISO software                          


 Your calculation uses the libint2 library for the computation of 2-el integrals
 For citations please refer to: http://libint.valeyev.net

 Your ORCA version has been built with support for libXC version: 6.2.2
 For citations please refer to: https://libxc.gitlab.io

 This ORCA versions uses:
   CBLAS   interface :  Fast vector & matrix operations
   LAPACKE interface :  Fast linear algebra routines
   SCALAPACK package :  Parallel linear algebra routines
   Shared memory     :  Shared parallel matrices
   BLAS/LAPACK       :  OpenBLAS 0.3.27  USE64BITINT DYNAMIC_ARCH NO_AFFINITY SkylakeX SINGLE_THREADED
        Core in use  :  SkylakeX
   Copyright (c) 2011-2014, The OpenBLAS Project


NOTE: MaxCore=5000 MB was set to SCF,MP2,MDCI,CIPSI,MRCI and CIS
      => If you want to overwrite this, your respective input block should be placed after the MaxCore statement
Your calculation utilizes the atom-pairwise dispersion correction
based on EEQ partial charges (D4)


Warning: RI is on but no J-basis has been assigned. Assigning Def2/J (nothing to worry about!)
================================================================================

----- Orbital basis set information -----
Your calculation utilizes the basis: def2-TZVP
   F. Weigend and R. Ahlrichs, Phys. Chem. Chem. Phys. 7, 3297 (2005).

----- AuxJ basis set information -----
Your calculation utilizes the auxiliary basis: def2/J
   F. Weigend, Phys. Chem. Chem. Phys. 8, 1057 (2006).

================================================================================
                                        WARNINGS
                       Please study these warnings very carefully!
================================================================================


================================================================================
                                       INPUT FILE
================================================================================
NAME = input.inp
|  1> ! SP B3LYP D4 def2-TZVP TightSCF CPCM(water)
|  2> 
|  3> %maxcore 5000
|  4> 
|  5> %pal
|  6> nprocs 30
|  7> end
|  8> 
|  9> %geom
| 10>     MaxIter 500
| 11> end
| 12> 
| 13> * xyz 0 1
| 14> N           -0.73956256452989       -0.19467634372270        2.48811412888946
| 15> C           -0.75587308741843       -0.67149508550203        1.10043070375262
| 16> C            0.40462977461849       -0.02199709591834        0.35327123897693
| 17> C            0.20518683500517       -0.01031489819062       -1.15354995776363
| 18> C            0.46238002218226       -1.31652507783706       -1.86762639552651
| 19> O            0.66223491220690       -2.38281507167850       -1.22409524743554
| 20> O            0.44959038919511       -1.29424698890486       -3.12363201620814
| 21> H            0.15325962538743       -0.44831374941744        2.94648867540385
| 22> H           -0.80906333069797        0.84273668815603        2.46927129272544
| 23> H           -1.70389621426972       -0.39221449526096        0.63904869943379
| 24> H           -0.67823956371845       -1.75820192356693        1.07342130572674
| 25> H            1.33862931055163       -0.52850609528880        0.59085677101371
| 26> H            0.48950917708774        1.01467922809583        0.67560190449735
| 27> H           -0.82266741189115        0.26402510721318       -1.39204595505243
| 28> H            0.85864188624017        0.72485797271058       -1.62262151847862
| 29> H           -1.52389032033640       -0.59630764096720        3.04106006947343
| 30> *
| 31> 
| 32>                          ****END OF INPUT****
================================================================================

                       ****************************
                       * Single Point Calculation *
                       ****************************

---------------------------------
CARTESIAN COORDINATES (ANGSTROEM)
---------------------------------
  N     -0.739563   -0.194676    2.488114
  C     -0.755873   -0.671495    1.100431
  C      0.404630   -0.021997    0.353271
  C      0.205187   -0.010315   -1.153550
  C      0.462380   -1.316525   -1.867626
  O      0.662235   -2.382815   -1.224095
  O      0.449590   -1.294247   -3.123632
  H      0.153260   -0.448314    2.946489
  H     -0.809063    0.842737    2.469271
  H     -1.703896   -0.392214    0.639049
  H     -0.678240   -1.758202    1.073421
  H      1.338629   -0.528506    0.590857
  H      0.489509    1.014679    0.675602
  H     -0.822667    0.264025   -1.392046
  H      0.858642    0.724858   -1.622622
  H     -1.523890   -0.596308    3.041060

----------------------------
CARTESIAN COORDINATES (A.U.)
----------------------------
  NO LB      ZA    FRAG     MASS         X           Y           Z
   0 N     7.0000    0    14.007   -1.397571   -0.367885    4.701854
   1 C     6.0000    0    12.011   -1.428393   -1.268942    2.079513
   2 C     6.0000    0    12.011    0.764639   -0.041568    0.667586
   3 C     6.0000    0    12.011    0.387747   -0.019492   -2.179894
   4 C     6.0000    0    12.011    0.873772   -2.487872   -3.529302
   5 O     8.0000    0    15.999    1.251443   -4.502868   -2.313205
   6 O     8.0000    0    15.999    0.849603   -2.445772   -5.902809
   7 H     1.0000    0     1.008    0.289619   -0.847190    5.568057
   8 H     1.0000    0     1.008   -1.528908    1.592542    4.666246
   9 H     1.0000    0     1.008   -3.219897   -0.741178    1.207627
  10 H     1.0000    0     1.008   -1.281687   -3.322520    2.028472
  11 H     1.0000    0     1.008    2.529643   -0.998732    1.116557
  12 H     1.0000    0     1.008    0.925038    1.917466    1.276703
  13 H     1.0000    0     1.008   -1.554616    0.498935   -2.630586
  14 H     1.0000    0     1.008    1.622598    1.369783   -3.066310
  15 H     1.0000    0     1.008   -2.879735   -1.126858    5.746771

--------------------------------
INTERNAL COORDINATES (ANGSTROEM)
--------------------------------
 N      0   0   0     0.000000000000     0.00000000     0.00000000
 C      1   0   0     1.467408407386     0.00000000     0.00000000
 C      2   1   0     1.525405453338   108.44459852     0.00000000
 C      3   2   1     1.520007920654   112.89290087   201.45566731
 C      4   3   2     1.510707955864   116.07787652   282.43051894
 O      5   4   3     1.261367776105   121.11353216     8.67064537
 O      5   4   3     1.256268286292   117.09785661   187.72257938
 H      1   2   3     1.035166953331   110.40872194   300.05507746
 H      1   2   3     1.039909230503   107.83526430    57.91318566
 H      2   1   3     1.090696498133   109.05595999   239.99871667
 H      2   1   3     1.089811095319   110.28310294   121.72653174
 H      3   2   1     1.088739355677   110.34555742    78.67054598
 H      3   2   1     1.088944154523   108.64266672   320.26894255
 H      4   3   2     1.090241776924   110.02893581    42.68919050
 H      4   3   2     1.089729683529   110.68422882   161.41070464
 H      1   2   3     1.040301370115   111.64264943   179.03621573

---------------------------
INTERNAL COORDINATES (A.U.)
---------------------------
 N      0   0   0     0.000000000000     0.00000000     0.00000000
 C      1   0   0     2.773000016574     0.00000000     0.00000000
 C      2   1   0     2.882598549999   108.44459852     0.00000000
 C      3   2   1     2.872398691428   112.89290087   201.45566731
 C      4   3   2     2.854824304919   116.07787652   282.43051894
 O      5   4   3     2.383639650992   121.11353216     8.67064537
 O      5   4   3     2.374003011822   117.09785661   187.72257938
 H      1   2   3     1.956182044681   110.40872194   300.05507746
 H      1   2   3     1.965143649787   107.83526430    57.91318566
 H      2   1   3     2.061117676698   109.05595999   239.99871667
 H      2   1   3     2.059444507862   110.28310294   121.72653174
 H      3   2   1     2.057419213451   110.34555742    78.67054598
 H      3   2   1     2.057806227183   108.64266672   320.26894255
 H      4   3   2     2.060258378146   110.02893581    42.68919050
 H      4   3   2     2.059290661875   110.68422882   161.41070464
 H      1   2   3     1.965884686260   111.64264943   179.03621573

---------------------
BASIS SET INFORMATION
---------------------
There are 4 groups of distinct atoms

 Group   1 Type N   : 11s6p2d1f contracted to 5s3p2d1f pattern {62111/411/11/1}
 Group   2 Type C   : 11s6p2d1f contracted to 5s3p2d1f pattern {62111/411/11/1}
 Group   3 Type O   : 11s6p2d1f contracted to 5s3p2d1f pattern {62111/411/11/1}
 Group   4 Type H   : 5s1p contracted to 3s1p pattern {311/1}

Atom   0N    basis set group =>   1
Atom   1C    basis set group =>   2
Atom   2C    basis set group =>   2
Atom   3C    basis set group =>   2
Atom   4C    basis set group =>   2
Atom   5O    basis set group =>   3
Atom   6O    basis set group =>   3
Atom   7H    basis set group =>   4
Atom   8H    basis set group =>   4
Atom   9H    basis set group =>   4
Atom  10H    basis set group =>   4
Atom  11H    basis set group =>   4
Atom  12H    basis set group =>   4
Atom  13H    basis set group =>   4
Atom  14H    basis set group =>   4
Atom  15H    basis set group =>   4
---------------------------------
AUXILIARY/J BASIS SET INFORMATION
---------------------------------
There are 4 groups of distinct atoms

 Group   1 Type N   : 12s5p4d2f1g contracted to 6s4p3d1f1g pattern {711111/2111/211/2/1}
 Group   2 Type C   : 12s5p4d2f1g contracted to 6s4p3d1f1g pattern {711111/2111/211/2/1}
 Group   3 Type O   : 12s5p4d2f1g contracted to 6s4p3d1f1g pattern {711111/2111/211/2/1}
 Group   4 Type H   : 5s2p1d contracted to 3s1p1d pattern {311/2/1}

Atom   0N    basis set group =>   1
Atom   1C    basis set group =>   2
Atom   2C    basis set group =>   2
Atom   3C    basis set group =>   2
Atom   4C    basis set group =>   2
Atom   5O    basis set group =>   3
Atom   6O    basis set group =>   3
Atom   7H    basis set group =>   4
Atom   8H    basis set group =>   4
Atom   9H    basis set group =>   4
Atom  10H    basis set group =>   4
Atom  11H    basis set group =>   4
Atom  12H    basis set group =>   4
Atom  13H    basis set group =>   4
Atom  14H    basis set group =>   4
Atom  15H    basis set group =>   4
--------------------------------------------------------------------------
By default, for Open MPI 4.0 and later, infiniband ports on a device
are not used by default.  The intent is to use UCX for these devices.
You can override this policy by setting the btl_openib_allow_ib MCA parameter
to true.

  Local host:              psid08
  Local adapter:           mlx4_0
  Local port:              1

--------------------------------------------------------------------------
--------------------------------------------------------------------------
WARNING: There was an error initializing an OpenFabrics device.

  Local host:   psid08
  Local device: mlx4_0
--------------------------------------------------------------------------


           ************************************************************
           *        Program running with 30 parallel MPI-processes    *
           *              working on a common directory               *
           ************************************************************
------------------------------------------------------------------------------
                             ORCA STARTUP CALCULATIONS
                           -- RI-GTO INTEGRALS CHOSEN --
------------------------------------------------------------------------------
------------------------------------------------------------------------------
                   ___                                                        
                  /   \      - P O W E R E D   B Y -                         
                 /     \                                                     
                 |  |  |   _    _      __       _____    __    __             
                 |  |  |  | |  | |    /  \     |  _  \  |  |  /  |          
                  \  \/   | |  | |   /    \    | | | |  |  | /  /          
                 / \  \   | |__| |  /  /\  \   | |_| |  |  |/  /          
                |  |  |   |  __  | /  /__\  \  |    /   |      \           
                |  |  |   | |  | | |   __   |  |    \   |  |\   \          
                \     /   | |  | | |  |  |  |  | |\  \  |  | \   \       
                 \___/    |_|  |_| |__|  |__|  |_| \__\ |__|  \__/        
                                                                              
                      - O R C A' S   B I G   F R I E N D -                    
                                      &                                       
                       - I N T E G R A L  F E E D E R -                       
                                                                              
 v1 FN, 2020, v2 2021, v3 2022-2024                                           
------------------------------------------------------------------------------


----------------------
SHARK INTEGRAL PACKAGE
----------------------

Number of atoms                             ...     16
Number of basis functions                   ...    271
Number of shells                            ...    113
Maximum angular momentum                    ...      3
Integral batch strategy                     ... SHARK/LIBINT Hybrid
RI-J (if used) integral strategy            ... SPLIT-RIJ (Revised 2003 algorithm where possible)
Printlevel                                  ...      1
Contraction scheme used                     ... SEGMENTED contraction
Prescreening option                         ... SCHWARTZ
   Thresh                                   ... 2.500e-11
   Tcut                                     ... 2.500e-12
   Tpresel                                  ... 2.500e-12 
Coulomb Range Separation                    ... NOT USED
Exchange Range Separation                   ... NOT USED
Multipole approximations                    ... NOT USED
Finite Nucleus Model                        ... NOT USED
CABS basis                                  ... NOT available
Auxiliary Coulomb fitting basis             ... AVAILABLE
   # of basis functions in Aux-J            ...    442
   # of shells in Aux-J                     ...    150
   Maximum angular momentum in Aux-J        ...      4
Auxiliary J/K fitting basis                 ... NOT available
Auxiliary Correlation fitting basis         ... NOT available
Auxiliary 'external' fitting basis          ... NOT available

Checking pre-screening integrals            ... done (  0.0 sec) Dimension = 113
Check shell pair data                       ... done (  0.0 sec)
Shell pair information
Shell pair cut-off parameter TPreSel        ...   2.5e-12
Total number of shell pairs                 ...      6441
Shell pairs after pre-screening             ...      5818
Total number of primitive shell pairs       ...     19096
Primitive shell pairs kept                  ...     13129
          la=0 lb=0:   1730 shell pairs
          la=1 lb=0:   1706 shell pairs
          la=1 lb=1:    441 shell pairs
          la=2 lb=0:    774 shell pairs
          la=2 lb=1:    387 shell pairs
          la=2 lb=2:     97 shell pairs
          la=3 lb=0:    381 shell pairs
          la=3 lb=1:    188 shell pairs
          la=3 lb=2:     88 shell pairs
          la=3 lb=3:     26 shell pairs

Calculating one electron integrals          ... done (  0.0 sec)
Calculating RI/J V-Matrix + Cholesky decomp.... done (  0.0 sec)
Calculating Nuclear repulsion               ... done (  0.0 sec) ENN=    310.069133490733 Eh

Diagonalization of the overlap matrix:
Smallest eigenvalue                        ... 1.399e-04
Time for diagonalization                   ...    0.007 sec
Threshold for overlap eigenvalues          ... 1.000e-07
Number of eigenvalues below threshold      ... 0
Time for construction of square roots      ...    0.005 sec
Total time needed                          ...    0.017 sec

-------------------
DFT GRID GENERATION
-------------------

General Integration Accuracy     IntAcc      ... 4.388
Radial Grid Type                 RadialGrid  ... OptM3 with GC (2021)
Angular Grid (max. ang.)         AngularGrid ... 4 (Lebedev-302)
Angular grid pruning method      GridPruning ... 4 (adaptive)
Weight generation scheme         WeightScheme... mBecke (2022)
Basis function cutoff            BFCut       ... 1.0000e-11
Integration weight cutoff        WCut        ... 1.0000e-14
Partially contracted basis set               ... off
Rotationally invariant grid construction     ... off
Angular grids for H and He will be reduced by one unit

Total number of grid points                  ...    71134
Total number of batches                      ...     1119
Average number of points per batch           ...       63
Average number of grid points per atom       ...     4446

--------------------
COSX GRID GENERATION
--------------------

GRIDX 1
-------
General Integration Accuracy     IntAcc      ... 3.816
Radial Grid Type                 RadialGrid  ... OptM3 with GC (2021)
Angular Grid (max. ang.)         AngularGrid ... 1 (Lebedev-50)
Angular grid pruning method      GridPruning ... 4 (adaptive)
Weight generation scheme         WeightScheme... mBecke (2022)
Basis function cutoff            BFCut       ... 1.0000e-11
Integration weight cutoff        WCut        ... 1.0000e-14
Partially contracted basis set               ... on
Rotationally invariant grid construction     ... off
Angular grids for H and He will be reduced by one unit

Total number of grid points                  ...     9098
Total number of batches                      ...       81
Average number of points per batch           ...      112
Average number of grid points per atom       ...      569
UseSFitting                                  ... on

GRIDX 2
-------
General Integration Accuracy     IntAcc      ... 4.020
Radial Grid Type                 RadialGrid  ... OptM3 with GC (2021)
Angular Grid (max. ang.)         AngularGrid ... 2 (Lebedev-110)
Angular grid pruning method      GridPruning ... 4 (adaptive)
Weight generation scheme         WeightScheme... mBecke (2022)
Basis function cutoff            BFCut       ... 1.0000e-11
Integration weight cutoff        WCut        ... 1.0000e-14
Partially contracted basis set               ... on
Rotationally invariant grid construction     ... off
Angular grids for H and He will be reduced by one unit

Total number of grid points                  ...    19495
Total number of batches                      ...      160
Average number of points per batch           ...      121
Average number of grid points per atom       ...     1218
UseSFitting                                  ... on

GRIDX 3
-------
General Integration Accuracy     IntAcc      ... 4.338
Radial Grid Type                 RadialGrid  ... OptM3 with GC (2021)
Angular Grid (max. ang.)         AngularGrid ... 3 (Lebedev-194)
Angular grid pruning method      GridPruning ... 4 (adaptive)
Weight generation scheme         WeightScheme... mBecke (2022)
Basis function cutoff            BFCut       ... 1.0000e-11
Integration weight cutoff        WCut        ... 1.0000e-14
Partially contracted basis set               ... on
Rotationally invariant grid construction     ... off
Angular grids for H and He will be reduced by one unit

Total number of grid points                  ...    42756
Total number of batches                      ...      342
Average number of points per batch           ...      125
Average number of grid points per atom       ...     2672
UseSFitting                                  ... on
Initializing property integral containers    ... done (  0.0 sec)

SHARK setup successfully completed in   0.8 seconds

Maximum memory used throughout the entire STARTUP-calculation: 23.7 MB
[psid08:18759] 29 more processes have sent help message help-mpi-btl-openib.txt / ib port not selected
[psid08:18759] Set MCA parameter "orte_base_help_aggregate" to 0 to see all help / error messages
[psid08:18759] 29 more processes have sent help message help-mpi-btl-openib.txt / error in device init
--------------------------------------------------------------------------
By default, for Open MPI 4.0 and later, infiniband ports on a device
are not used by default.  The intent is to use UCX for these devices.
You can override this policy by setting the btl_openib_allow_ib MCA parameter
to true.

  Local host:              psid08
  Local adapter:           mlx4_0
  Local port:              1

--------------------------------------------------------------------------
--------------------------------------------------------------------------
WARNING: There was an error initializing an OpenFabrics device.

  Local host:   psid08
  Local device: mlx4_0
--------------------------------------------------------------------------


           ************************************************************
           *        Program running with 30 parallel MPI-processes    *
           *              working on a common directory               *
           ************************************************************
-------------------------------------------------------------------------------
                                 ORCA GUESS
                   Start orbitals & Density for SCF / CASSCF
-------------------------------------------------------------------------------

------------
SCF SETTINGS
------------
Hamiltonian:
 Density Functional     Method          .... DFT(GTOs)
 Exchange Functional    Exchange        .... B88
   X-Alpha parameter    XAlpha          ....  0.666667
   Becke's b parameter  XBeta           ....  0.004200
 Correlation Functional Correlation     .... LYP
 LDA part of GGA corr.  LDAOpt          .... VWN-5
 Gradients option       PostSCFGGA      .... off
 Hybrid DFT is turned on
   Fraction HF Exchange ScalHFX         ....  0.200000
   Scaling of DF-GGA-X  ScalDFX         ....  0.720000
   Scaling of DF-GGA-C  ScalDFC         ....  0.810000
   Scaling of DF-LDA-C  ScalLDAC        ....  1.000000
   Perturbative correction              ....  0.000000
   NL short-range parameter             ....  4.800000
 RI-approximation to the Coulomb term is turned on
   Number of AuxJ basis functions       .... 442
   RIJ-COSX (HFX calculated with COS-X)).... on


General Settings:
 Integral files         IntName         .... input
 Hartree-Fock type      HFTyp           .... RHF
 Total Charge           Charge          ....    0
 Multiplicity           Mult            ....    1
 Number of Electrons    NEL             ....   56
 Basis Dimension        Dim             ....  271
 Nuclear Repulsion      ENuc            ....    310.0691334907 Eh

Convergence Acceleration:
 AO-DIIS                CNVDIIS         .... on
   Start iteration      DIISMaxIt       ....    12
   Startup error        DIISStart       ....  0.200000
   # of expansion vecs  DIISMaxEq       ....     5
   Bias factor          DIISBfac        ....   1.050
   Max. coefficient     DIISMaxC        ....  10.000
 MO-DIIS                CNVKDIIS        .... off
 Trust-Rad. Augm. Hess. CNVTRAH         .... auto
   Auto Start mean grad. ratio tolernc. ....  1.125000
   Auto Start start iteration           ....    50
   Auto Start num. interpolation iter.  ....    10
   Max. Number of Micro iterations      ....    24
   Max. Number of Macro iterations      .... Maxiter - #DIIS iter
   Number of Davidson start vectors     ....     2
   Converg. threshold    (grad. norm)   ....   1.000e-05
   Grad. Scal. Fac. for Micro threshold ....   0.100
   Minimum threshold for Micro iter.    ....   1.000e-02
   NR start threshold (gradient norm)   ....   1.000e-04
   Initial trust radius                 ....   0.400
   Minimum AH scaling param. (alpha)    ....   1.000
   Maximum AH scaling param. (alpha)    .... 1000.000
   Quad. conv. algorithm                .... NR
   White noise on init. David. guess    .... on
   Maximum white noise                  ....   0.010
   Pseudo random numbers                .... off
   Inactive MOs                         .... canonical
   Orbital update algorithm             .... Taylor
   Preconditioner                       .... Diag
   Full preconditioner red. dimension   ....   250
 SOSCF                  CNVSOSCF        .... on
   Start iteration      SOSCFMaxIt      ....   150
   Startup grad/error   SOSCFStart      ....  0.003300
   Hessian update       SOSCFHessUp     .... L-BFGS
 Level Shifting         CNVShift        .... on
   Level shift para.    LevelShift      ....    0.2500
   Turn off err/grad.   ShiftErr        ....    0.0010
 Zerner damping         CNVZerner       .... off
 Static damping         CNVDamp         .... on
   Fraction old density DampFac         ....    0.7000
   Max. Damping (<1)    DampMax         ....    0.9800
   Min. Damping (>=0)   DampMin         ....    0.0000
   Turn off err/grad.   DampErr         ....    0.1000

SCF Procedure:
 Maximum # iterations   MaxIter         ....   125
 SCF integral mode      SCFMode         .... Direct
   Integral package                     .... SHARK and LIBINT hybrid scheme
 Reset frequency        DirectResetFreq ....    20
 Integral Threshold     Thresh          ....  2.500e-11 Eh
 Primitive CutOff       TCut            ....  2.500e-12 Eh

Convergence Tolerance:
 Convergence Check Mode ConvCheckMode   .... Total+1el-Energy
 Convergence forced     ConvForced      .... 0
 Energy Change          TolE            ....  1.000e-08 Eh
 1-El. energy change                    ....  1.000e-05 Eh
 Orbital Gradient       TolG            ....  1.000e-05
 Orbital Rotation angle TolX            ....  1.000e-05
 DIIS Error             TolErr          ....  5.000e-07

------------------------------
INITIAL GUESS: MODEL POTENTIAL
------------------------------
Loading Hartree-Fock densities                     ... done
Calculating cut-offs                               ... done
Initializing the effective Hamiltonian             ... done
Setting up the integral package (SHARK)            ... done
Starting the Coulomb interaction                   ... done (   0.0 sec)
Making the grid                                    ... done (   0.1 sec)
Mapping shells                                     ... done
Starting the XC term evaluation                    ... done (   0.0 sec)
  promolecular density results
     # of electrons  =     55.993291734
     EX              =    -46.221082290
     EC              =     -1.892967271
     EX+EC           =    -48.114049561
Transforming the Hamiltonian                       ... done (   0.0 sec)
Diagonalizing the Hamiltonian                      ... done (   0.0 sec)
Back transforming the eigenvectors                 ... done (   0.0 sec)
Now organizing SCF variables                       ... done
                      ------------------
                      INITIAL GUESS DONE (   0.2 sec)
                      ------------------
             **** ENERGY FILE WAS UPDATED (input.en.tmp) ****
Finished Guess after   1.1 sec
Maximum memory used throughout the entire GUESS-calculation: 15.5 MB
[psid08:18864] 29 more processes have sent help message help-mpi-btl-openib.txt / ib port not selected
[psid08:18864] Set MCA parameter "orte_base_help_aggregate" to 0 to see all help / error messages
[psid08:18864] 29 more processes have sent help message help-mpi-btl-openib.txt / error in device init
--------------------------------------------------------------------------
By default, for Open MPI 4.0 and later, infiniband ports on a device
are not used by default.  The intent is to use UCX for these devices.
You can override this policy by setting the btl_openib_allow_ib MCA parameter
to true.

  Local host:              psid08
  Local adapter:           mlx4_0
  Local port:              1

--------------------------------------------------------------------------
--------------------------------------------------------------------------
WARNING: There was an error initializing an OpenFabrics device.

  Local host:   psid08
  Local device: mlx4_0
--------------------------------------------------------------------------


           ************************************************************
           *        Program running with 30 parallel MPI-processes    *
           *              working on a common directory               *
           ************************************************************

-------------------------------------------------------------------------------------------
                                      ORCA LEAN-SCF
                              memory conserving SCF solver
-------------------------------------------------------------------------------------------

--------------------
CPCM SOLVATION MODEL
--------------------
CPCM parameters:
  Epsilon                                         ...      80.1510
  Refrac                                          ...       1.3328
  Rsolv                                           ...       1.3000
  Surface type                                    ... GAUSSIAN VDW
  Discretization scheme                           ... Constant charge density
    Threshold for H atoms                         ...       5.0000 (charges/Ang^2)
    Threshold for non-H atoms                     ...       5.0000 (charges/Ang^2)
  Epsilon function type                           ...         CPCM
Solvent:                                          ... WATER
Radii:
  Scheme                                          ... Element-dependent radii
  Radius for N  used is    3.5149 Bohr (=   1.8600 Ang.)
  Radius for C  used is    3.8550 Bohr (=   2.0400 Ang.)
  Radius for O  used is    3.4469 Bohr (=   1.8240 Ang.)
  Radius for H  used is    2.4944 Bohr (=   1.3200 Ang.)
Calculating surface                               ...        done! (  0.0s)
Cavity surface points                             ...         1383
Cavity Volume                                     ...     898.2268
Cavity Surface-area                               ...     542.4068
Calculating surface distance matrix               ...        done! (  0.0s)
Performing Cholesky decomposition & store         ...        done! (  0.0s)
Overall time for CPCM initialization              ...                 0.1s

----------------------------------------D-I-I-S--------------------------------------------
Iteration    Energy (Eh)           Delta-E    RMSDP     MaxDP     DIISErr   Damp  Time(sec)
-------------------------------------------------------------------------------------------
               ***  Starting incremental Fock matrix formation  ***
    1    -362.6842115608096151     0.00e+00  4.53e-03  5.01e-01  3.50e-01  0.700   0.7
    2    -362.8441830464052487    -1.60e-01  4.28e-03  5.14e-01  1.47e-01  0.700   0.8
                               ***Turning on AO-DIIS***
    3    -362.9007885662280728    -5.66e-02  1.35e-03  1.42e-01  4.06e-02  0.700   0.5
    4    -362.9358687024349024    -3.51e-02  1.12e-03  7.39e-02  1.74e-02  0.000   0.5
    5    -363.0152679427223461    -7.94e-02  1.05e-03  1.33e-01  8.64e-03  0.000   0.5
                              *** Initializing SOSCF ***
---------------------------------------S-O-S-C-F--------------------------------------
Iteration    Energy (Eh)           Delta-E    RMSDP     MaxDP     MaxGrad    Time(sec)
--------------------------------------------------------------------------------------
    6    -363.0157096701908017    -4.42e-04  3.85e-04  4.82e-02  2.12e-03     0.5
               *** Restarting incremental Fock matrix formation ***
    7    -363.0157373172982602    -2.76e-05  2.29e-04  2.76e-02  2.74e-04     0.6
[psid08:18960] 29 more processes have sent help message help-mpi-btl-openib.txt / ib port not selected
[psid08:18960] Set MCA parameter "orte_base_help_aggregate" to 0 to see all help / error messages
[psid08:18960] 29 more processes have sent help message help-mpi-btl-openib.txt / error in device init
    8    -363.0157398202332502    -2.50e-06  6.45e-05  7.55e-03  1.88e-04     0.6
    9    -363.0157412094062579    -1.39e-06  6.03e-05  7.24e-03  8.74e-05     0.6
   10    -363.0157414122449495    -2.03e-07  8.34e-06  6.24e-04  6.80e-05     0.5
   11    -363.0157415525969213    -1.40e-07  2.01e-05  2.42e-03  3.07e-05     0.5
   12    -363.0157415702246340    -1.76e-08  3.35e-06  3.91e-04  2.17e-05     0.5
   13    -363.0157415880547092    -1.78e-08  4.94e-06  5.72e-04  6.64e-06     0.5
   14    -363.0157415922788573    -4.22e-09  1.75e-06  2.10e-04  1.63e-06     0.5
                 **** Energy Check signals convergence ****

               *****************************************************
               *                     SUCCESS                       *
               *           SCF CONVERGED AFTER  14 CYCLES          *
               *****************************************************

Recomputing exchange energy using gridx3       ... done (    0.486 sec)
Old exchange energy                            :     -9.408683171 Eh
New exchange energy                            :     -9.408691972 Eh
Exchange energy change after final integration :     -0.000008801 Eh
Total energy after final integration           :   -363.015750394 Eh
             **** ENERGY FILE WAS UPDATED (input.en.tmp) ****

----------------
TOTAL SCF ENERGY
----------------

Total Energy       :       -363.01575039362660 Eh           -9878.16076 eV

Components:
Nuclear Repulsion  :        310.06913349073346 Eh            8437.41007 eV
Electronic Energy  :       -672.95764183992230 Eh          -18312.10840 eV
One Electron Energy:      -1109.41380578890244 Eh          -30188.68442 eV
Two Electron Energy:        436.45616394898013 Eh           11876.57601 eV
CPCM Dielectric    :         -0.12723324309003 Eh              -3.46219 eV

Virial components:
Potential Energy   :       -724.44194238260820 Eh          -19713.06745 eV
Kinetic Energy     :        361.42619198898166 Eh            9834.90668 eV
Virial Ratio       :          2.00439801663487

DFT components:
N(Alpha)           :       28.000005550338 electrons
N(Beta)            :       28.000005550338 electrons
N(Total)           :       56.000011100676 electrons
E(X)               :      -37.408419199493 Eh       
E(C)               :       -2.239406138285 Eh       
E(XC)              :      -39.647825337778 Eh       

CPCM Solvation Model Properties:
Surface-charge          :         -0.02143377049691
Corrected charge        :         -0.00000000000000
Outlying charge corr.   :          0.00003554253072 Eh               0.00097 eV
Free-energy (cav+disp)  :  This term is not implemented in the current solvation scheme

---------------
SCF CONVERGENCE
---------------

  Last Energy change         ...    4.2241e-09  Tolerance :   1.0000e-08
  Last MAX-Density change    ...    2.1050e-04  Tolerance :   1.0000e-07
  Last RMS-Density change    ...    1.7525e-06  Tolerance :   5.0000e-09
  Last DIIS Error            ...    2.1207e-03  Tolerance :   5.0000e-07
  Last Orbital Gradient      ...    1.6255e-06  Tolerance :   1.0000e-05
  Last Orbital Rotation      ...    6.0318e-06  Tolerance :   1.0000e-05


----------------
ORBITAL ENERGIES
----------------

  NO   OCC          E(Eh)            E(eV) 
   0   2.0000     -19.047896      -518.3196 
   1   2.0000     -19.044039      -518.2146 
   2   2.0000     -14.430556      -392.6754 
   3   2.0000     -10.235605      -278.5250 
   4   2.0000     -10.219494      -278.0866 
   5   2.0000     -10.169180      -276.7175 
   6   2.0000     -10.155869      -276.3552 
   7   2.0000      -1.010530       -27.4979 
   8   2.0000      -0.997104       -27.1326 
   9   2.0000      -0.913253       -24.8509 
  10   2.0000      -0.791671       -21.5425 
  11   2.0000      -0.702680       -19.1209 
  12   2.0000      -0.623967       -16.9790 
  13   2.0000      -0.578914       -15.7530 
  14   2.0000      -0.562988       -15.3197 
  15   2.0000      -0.501366       -13.6429 
  16   2.0000      -0.491808       -13.3828 
  17   2.0000      -0.451659       -12.2903 
  18   2.0000      -0.429433       -11.6855 
  19   2.0000      -0.408873       -11.1260 
  20   2.0000      -0.399646       -10.8749 
  21   2.0000      -0.376437       -10.2434 
  22   2.0000      -0.365644        -9.9497 
  23   2.0000      -0.346144        -9.4191 
  24   2.0000      -0.333293        -9.0694 
  25   2.0000      -0.239824        -6.5259 
  26   2.0000      -0.235777        -6.4158 
  27   2.0000      -0.216027        -5.8784 
  28   0.0000       0.014206         0.3866 
  29   0.0000       0.051198         1.3932 
  30   0.0000       0.055670         1.5149 
  31   0.0000       0.067929         1.8484 
  32   0.0000       0.070564         1.9201 
  33   0.0000       0.100747         2.7415 
  34   0.0000       0.108704         2.9580 
  35   0.0000       0.122488         3.3331 
  36   0.0000       0.127889         3.4800 
  37   0.0000       0.141245         3.8435 
  38   0.0000       0.148121         4.0306 
*Only the first 10 virtual orbitals were printed.

                    ********************************
                    * MULLIKEN POPULATION ANALYSIS *
                    ********************************

-----------------------
MULLIKEN ATOMIC CHARGES
-----------------------
   0 N :   -0.253600
   1 C :   -0.159608
   2 C :   -0.129806
   3 C :   -0.246638
   4 C :    0.214750
   5 O :   -0.580020
   6 O :   -0.588833
   7 H :    0.334039
   8 H :    0.334511
   9 H :    0.154948
  10 H :    0.146654
  11 H :    0.103989
  12 H :    0.111411
  13 H :    0.109280
  14 H :    0.110786
  15 H :    0.338138
Sum of atomic charges:   -0.0000000

--------------------------------
MULLIKEN REDUCED ORBITAL CHARGES
--------------------------------
  0 N s       :     3.445792  s :     3.445792
      pz      :     1.217155  p :     3.759135
      px      :     1.275068
      py      :     1.266912
      dz2     :     0.008841  d :     0.046342
      dxz     :     0.018004
      dyz     :     0.008204
      dx2y2   :     0.009558
      dxy     :     0.001735
      f0      :     0.000579  f :     0.002331
      f+1     :     0.000337
      f-1     :     0.000429
      f+2     :     0.000302
      f-2     :     0.000204
      f+3     :     0.000055
      f-3     :     0.000425

  1 C s       :     3.263540  s :     3.263540
      pz      :     0.738134  p :     2.790189
      px      :     1.018582
      py      :     1.033473
      dz2     :     0.029106  d :     0.097539
      dxz     :     0.019986
      dyz     :     0.015029
      dx2y2   :     0.025650
      dxy     :     0.007768
      f0      :     0.001918  f :     0.008341
      f+1     :     0.001726
      f-1     :     0.001841
      f+2     :     0.000892
      f-2     :     0.000489
      f+3     :     0.000594
      f-3     :     0.000881

  2 C s       :     3.184959  s :     3.184959
      pz      :     0.929622  p :     2.852013
      px      :     0.940754
      py      :     0.981637
      dz2     :     0.015275  d :     0.086663
      dxz     :     0.022611
      dyz     :     0.021852
      dx2y2   :     0.018514
      dxy     :     0.008410
      f0      :     0.001287  f :     0.006172
      f+1     :     0.001557
      f-1     :     0.001098
      f+2     :     0.000502
      f-2     :     0.000294
      f+3     :     0.000501
      f-3     :     0.000934

  3 C s       :     3.192861  s :     3.192861
      pz      :     0.932555  p :     2.969779
      px      :     1.024529
      py      :     1.012694
      dz2     :     0.014920  d :     0.078110
      dxz     :     0.017177
      dyz     :     0.028287
      dx2y2   :     0.008944
      dxy     :     0.008783
      f0      :     0.001523  f :     0.005888
      f+1     :     0.000959
      f-1     :     0.001630
      f+2     :     0.000269
      f-2     :     0.000299
      f+3     :     0.000642
      f-3     :     0.000565

  4 C s       :     3.016001  s :     3.016001
      pz      :     0.817441  p :     2.520933
      px      :     0.777351
      py      :     0.926142
      dz2     :     0.055401  d :     0.222580
      dxz     :     0.051883
      dyz     :     0.062393
      dx2y2   :     0.020905
      dxy     :     0.031998
      f0      :     0.003567  f :     0.025737
      f+1     :     0.003592
      f-1     :     0.010839
      f+2     :     0.001897
      f-2     :     0.001946
      f+3     :     0.002071
      f-3     :     0.001826

  5 O s       :     3.777021  s :     3.777021
      pz      :     1.710272  p :     4.775537
      px      :     1.566188
      py      :     1.499078
      dz2     :     0.004257  d :     0.025832
      dxz     :     0.002350
      dyz     :     0.007676
      dx2y2   :     0.005509
      dxy     :     0.006040
      f0      :     0.000178  f :     0.001631
      f+1     :     0.000024
      f-1     :     0.000408
      f+2     :     0.000329
      f-2     :     0.000281
      f+3     :     0.000219
      f-3     :     0.000190

  6 O s       :     3.763050  s :     3.763050
      pz      :     1.392286  p :     4.798162
      px      :     1.584625
      py      :     1.821251
      dz2     :     0.010811  d :     0.025965
      dxz     :     0.008154
      dyz     :     0.006621
      dx2y2   :     0.000220
      dxy     :     0.000159
      f0      :     0.000616  f :     0.001657
      f+1     :     0.000518
      f-1     :     0.000483
      f+2     :     0.000019
      f-2     :     0.000014
      f+3     :     0.000003
      f-3     :     0.000003

  7 H s       :     0.633596  s :     0.633596
      pz      :     0.009037  p :     0.032364
      px      :     0.016773
      py      :     0.006554

  8 H s       :     0.633327  s :     0.633327
      pz      :     0.005678  p :     0.032162
      px      :     0.005726
      py      :     0.020758

  9 H s       :     0.823564  s :     0.823564
      pz      :     0.005366  p :     0.021488
      px      :     0.011596
      py      :     0.004526

 10 H s       :     0.831441  s :     0.831441
      pz      :     0.003288  p :     0.021904
      px      :     0.004403
      py      :     0.014214

 11 H s       :     0.873860  s :     0.873860
      pz      :     0.004840  p :     0.022151
      px      :     0.010990
      py      :     0.006321

 12 H s       :     0.866718  s :     0.866718
      pz      :     0.005206  p :     0.021870
      px      :     0.004484
      py      :     0.012181

 13 H s       :     0.868628  s :     0.868628
      pz      :     0.004883  p :     0.022093
      px      :     0.011826
      py      :     0.005384

 14 H s       :     0.867200  s :     0.867200
      pz      :     0.006069  p :     0.022015
      px      :     0.007171
      py      :     0.008775

 15 H s       :     0.630038  s :     0.630038
      pz      :     0.010222  p :     0.031825
      px      :     0.013923
      py      :     0.007680



                     *******************************
                     * LOEWDIN POPULATION ANALYSIS *
                     *******************************

----------------------
LOEWDIN ATOMIC CHARGES
----------------------
   0 N :    0.184503
   1 C :   -0.256794
   2 C :   -0.258959
   3 C :   -0.253394
   4 C :   -0.688374
   5 O :   -0.145493
   6 O :   -0.154122
   7 H :    0.233413
   8 H :    0.235240
   9 H :    0.147641
  10 H :    0.142521
  11 H :    0.141121
  12 H :    0.141876
  13 H :    0.149368
  14 H :    0.147007
  15 H :    0.234445

-------------------------------
LOEWDIN REDUCED ORBITAL CHARGES
-------------------------------
  0 N s       :     2.981101  s :     2.981101
      pz      :     1.227878  p :     3.664564
      px      :     1.216913
      py      :     1.219772
      dz2     :     0.035754  d :     0.159606
      dxz     :     0.055673
      dyz     :     0.028974
      dx2y2   :     0.031929
      dxy     :     0.007276
      f0      :     0.002388  f :     0.010226
      f+1     :     0.001609
      f-1     :     0.002165
      f+2     :     0.000865
      f-2     :     0.001792
      f+3     :     0.000346
      f-3     :     0.001062

  1 C s       :     2.794065  s :     2.794065
      pz      :     0.856757  p :     2.975460
      px      :     1.064846
      py      :     1.053857
      dz2     :     0.127610  d :     0.434102
      dxz     :     0.096670
      dyz     :     0.069830
      dx2y2   :     0.101279
      dxy     :     0.038714
      f0      :     0.010955  f :     0.053167
      f+1     :     0.009805
      f-1     :     0.012502
      f+2     :     0.005311
      f-2     :     0.006562
      f+3     :     0.003681
      f-3     :     0.004351

  2 C s       :     2.777336  s :     2.777336
      pz      :     1.015895  p :     3.051491
      px      :     1.015801
      py      :     1.019795
      dz2     :     0.093417  d :     0.390092
      dxz     :     0.089136
      dyz     :     0.076411
      dx2y2   :     0.079562
      dxy     :     0.051565
      f0      :     0.005916  f :     0.040041
      f+1     :     0.009264
      f-1     :     0.007124
      f+2     :     0.005584
      f-2     :     0.004518
      f+3     :     0.002836
      f-3     :     0.004799

  3 C s       :     2.780542  s :     2.780542
      pz      :     1.003787  p :     3.064012
      px      :     1.023998
      py      :     1.036227
      dz2     :     0.094277  d :     0.370868
      dxz     :     0.067500
      dyz     :     0.105952
      dx2y2   :     0.052037
      dxy     :     0.051101
      f0      :     0.005952  f :     0.037973
      f+1     :     0.006762
      f-1     :     0.008603
      f+2     :     0.004413
      f-2     :     0.005309
      f+3     :     0.003704
      f-3     :     0.003230

  4 C s       :     2.775254  s :     2.775254
      pz      :     0.987227  p :     2.739422
      px      :     0.747426
      py      :     1.004768
      dz2     :     0.269582  d :     1.009988
      dxz     :     0.181158
      dyz     :     0.333953
      dx2y2   :     0.111017
      dxy     :     0.114277
      f0      :     0.023180  f :     0.163710
      f+1     :     0.022314
      f-1     :     0.067918
      f+2     :     0.012705
      f-2     :     0.013472
      f+3     :     0.012168
      f-3     :     0.011953

  5 O s       :     3.432019  s :     3.432019
      pz      :     1.645134  p :     4.649342
      px      :     1.472258
      py      :     1.531949
      dz2     :     0.011438  d :     0.058968
      dxz     :     0.004262
      dyz     :     0.019810
      dx2y2   :     0.014284
      dxy     :     0.009175
      f0      :     0.000566  f :     0.005164
      f+1     :     0.000081
      f-1     :     0.001460
      f+2     :     0.001221
      f-2     :     0.000655
      f+3     :     0.000520
      f-3     :     0.000661

  6 O s       :     3.429265  s :     3.429265
      pz      :     1.493837  p :     4.659850
      px      :     1.481831
      py      :     1.684181
      dz2     :     0.028954  d :     0.059718
      dxz     :     0.012083
      dyz     :     0.018195
      dx2y2   :     0.000279
      dxy     :     0.000207
      f0      :     0.002403  f :     0.005289
      f+1     :     0.001028
      f-1     :     0.001786
      f+2     :     0.000029
      f-2     :     0.000037
      f+3     :     0.000002
      f-3     :     0.000004

  7 H s       :     0.669989  s :     0.669989
      pz      :     0.024889  p :     0.096598
      px      :     0.052080
      py      :     0.019629

  8 H s       :     0.669229  s :     0.669229
      pz      :     0.016312  p :     0.095531
      px      :     0.016274
      py      :     0.062945

  9 H s       :     0.791627  s :     0.791627
      pz      :     0.014673  p :     0.060732
      px      :     0.031302
      py      :     0.014757

 10 H s       :     0.795359  s :     0.795359
      pz      :     0.009680  p :     0.062120
      px      :     0.013638
      py      :     0.038803

 11 H s       :     0.798516  s :     0.798516
      pz      :     0.013646  p :     0.060363
      px      :     0.028376
      py      :     0.018341

 12 H s       :     0.798195  s :     0.798195
      pz      :     0.014531  p :     0.059929
      px      :     0.013124
      py      :     0.032274

 13 H s       :     0.790668  s :     0.790668
      pz      :     0.013293  p :     0.059964
      px      :     0.031325
      py      :     0.015346

 14 H s       :     0.793498  s :     0.793498
      pz      :     0.016133  p :     0.059495
      px      :     0.020797
      py      :     0.022565

 15 H s       :     0.669948  s :     0.669948
      pz      :     0.028856  p :     0.095607
      px      :     0.043228
      py      :     0.023523



                      *****************************
                      * MAYER POPULATION ANALYSIS *
                      *****************************

  NA   - Mulliken gross atomic population
  ZA   - Total nuclear charge
  QA   - Mulliken gross atomic charge
  VA   - Mayer's total valence
  BVA  - Mayer's bonded valence
  FA   - Mayer's free valence

  ATOM       NA         ZA         QA         VA         BVA        FA
  0 N      7.2536     7.0000    -0.2536     3.5285     3.5285     0.0000
  1 C      6.1596     6.0000    -0.1596     3.8027     3.8027    -0.0000
  2 C      6.1298     6.0000    -0.1298     3.7940     3.7940    -0.0000
  3 C      6.2466     6.0000    -0.2466     3.6473     3.6473     0.0000
  4 C      5.7853     6.0000     0.2147     4.6364     4.6364    -0.0000
  5 O      8.5800     8.0000    -0.5800     1.8183     1.8183    -0.0000
  6 O      8.5888     8.0000    -0.5888     1.8209     1.8209    -0.0000
  7 H      0.6660     1.0000     0.3340     0.8859     0.8859     0.0000
  8 H      0.6655     1.0000     0.3345     0.8875     0.8875     0.0000
  9 H      0.8451     1.0000     0.1549     0.9670     0.9670    -0.0000
 10 H      0.8533     1.0000     0.1467     1.0014     1.0014    -0.0000
 11 H      0.8960     1.0000     0.1040     0.9954     0.9954    -0.0000
 12 H      0.8886     1.0000     0.1114     0.9701     0.9701    -0.0000
 13 H      0.8907     1.0000     0.1093     0.9865     0.9865     0.0000
 14 H      0.8892     1.0000     0.1108     0.9911     0.9911     0.0000
 15 H      0.6619     1.0000     0.3381     0.8830     0.8830     0.0000

  Mayer bond orders larger than 0.100000
B(  0-N ,  1-C ) :   0.9043 B(  0-N ,  7-H ) :   0.8718 B(  0-N ,  8-H ) :   0.8703 
B(  0-N , 15-H ) :   0.8686 B(  1-C ,  2-C ) :   0.9619 B(  1-C ,  9-H ) :   0.9622 
B(  1-C , 10-H ) :   0.9572 B(  2-C ,  3-C ) :   0.9315 B(  2-C , 11-H ) :   0.9567 
B(  2-C , 12-H ) :   0.9626 B(  3-C ,  4-C ) :   0.9437 B(  3-C ,  5-O ) :  -0.1100 
B(  3-C , 13-H ) :   0.9513 B(  3-C , 14-H ) :   0.9558 B(  4-C ,  5-O ) :   1.8274 
B(  4-C ,  6-O ) :   1.8422 

-------
TIMINGS
-------

Total SCF time: 0 days 0 hours 0 min 9 sec 

Total time                  ....       9.341 sec
Sum of individual times     ....       9.180 sec  ( 98.3%)

SCF preparation             ....       0.976 sec  ( 10.5%)
Fock matrix formation       ....       6.865 sec  ( 73.5%)
  Startup                   ....       0.233 sec  (  3.4% of F)
  Split-RI-J                ....       0.569 sec  (  8.3% of F)
  Chain of spheres X        ....       3.381 sec  ( 49.3% of F)
  XC integration            ....       1.640 sec  ( 23.9% of F)
    XC Preparation          ....       0.000 sec  (  0.0% of XC)
    Basis function eval.    ....       0.174 sec  ( 10.6% of XC)
    Density eval.           ....       0.120 sec  (  7.3% of XC)
    XC-Functional eval.     ....       0.033 sec  (  2.0% of XC)
    XC-Potential eval.      ....       0.205 sec  ( 12.5% of XC)
  CPCM terms                ....       0.754 sec  ( 11.0% of F)
Diagonalization             ....       0.000 sec  (  0.0%)
Density matrix formation    ....       0.355 sec  (  3.8%)
Total Energy calculation    ....       0.265 sec  (  2.8%)
Population analysis         ....       0.050 sec  (  0.5%)
Orbital Transformation      ....       0.064 sec  (  0.7%)
Orbital Orthonormalization  ....       0.000 sec  (  0.0%)
DIIS solution               ....       0.323 sec  (  3.5%)
SOSCF solution              ....       0.283 sec  (  3.0%)
Finished LeanSCF after   9.4 sec

Maximum memory used throughout the entire LEANSCF-calculation: 26.3 MB


-------------------------------------------------------------------------------
                          DFT DISPERSION CORRECTION                            
                                                                               
                                DFTD4 V3.4.0                                   
-------------------------------------------------------------------------------
The B3LYP functional is recognized
Active option DFTDOPT                   ...         5   

-------------------------   ----------------
Dispersion correction           -0.018229141
-------------------------   ----------------


-------------------------   --------------------
FINAL SINGLE POINT ENERGY      -363.033979534510
-------------------------   --------------------

--------------------------------------------------------------------------
By default, for Open MPI 4.0 and later, infiniband ports on a device
are not used by default.  The intent is to use UCX for these devices.
You can override this policy by setting the btl_openib_allow_ib MCA parameter
to true.

  Local host:              psid08
  Local adapter:           mlx4_0
  Local port:              1

--------------------------------------------------------------------------
--------------------------------------------------------------------------
WARNING: There was an error initializing an OpenFabrics device.

  Local host:   psid08
  Local device: mlx4_0
--------------------------------------------------------------------------


           ************************************************************
           *        Program running with 30 parallel MPI-processes    *
           *              working on a common directory               *
           ************************************************************

------------------------------------------------------------------------------
                              ORCA PROPERTY CALCULATIONS
------------------------------------------------------------------------------

GBWName                                 ... input.gbw
Number of atoms                         ...     16
Number of basis functions               ...    271
Max core memory                         ...   5000 MB

Electric properties:
Dipole moment                           ... YES
Quadrupole moment                       ...  NO
Static polarizability (Dipole/Dipole)   ...  NO
Static polarizability (Dipole/Quad.)    ...  NO
Static polarizability (Quad./Quad.)     ...  NO
Static polarizability (Velocity)        ...  NO

Atomic electric properties:
Dipole moment                           ...  NO
Quadrupole moment                       ...  NO
Static polarizability                   ...  NO

Choice of electric origin               ... Center of mass
Position of electric origin             ...     0.155932    -1.588927    -0.825497

General magnetic properties:
Magnetizability                         ...  NO

EPR properties:
g-Tensor (aka g-matrix)                 ...  NO
Zero-Field splitting spin-orbit         ...  NO
Zero-field splitting spin-spin          ...  NO
Hyperfine couplings                     ...  NO (   0 nuclei)
Quadrupole couplings                    ...  NO (   0 nuclei)
Contact density                         ...  NO (   0 nuclei)

NMR properties:
Chemical shifts                         ...  NO (   0 nuclei)
Spin-rotation constants                 ...  NO (   0 nuclei)
Spin-spin couplings                     ...  NO (   0 nuclei,    0 pairs)

Choice of magnetic origin               ... GIAO
Position of magnetic origin             ...     0.000000     0.000000     0.000000

Properties with geometric perturbations:
SCF Hessian                             ...  NO
IR spectrum                             ...  NO
VCD spectrum                            ...  NO
X-ray spectroscopy properties:
SCF XES/XAS/RIXS spectra                ...  NO


-------------
DIPOLE MOMENT
-------------

Method             : SCF
Type of density    : Electron Density
Multiplicity       :   1
Irrep              :   0
Energy             :  -363.0157503936266039 Eh
Relativity type    : 
Basis              : AO
                                X                 Y                 Z
Electronic contribution:      0.782100136      -2.614403099      -2.873727718
Nuclear contribution   :     -3.218187534       6.250608749      11.553633831
                        -----------------------------------------
Total Dipole Moment    :     -2.436087398       3.636205650       8.679906112
                        -----------------------------------------
Magnitude (a.u.)       :      9.720971323
Magnitude (Debye)      :     24.708745466



--------------------
Rotational spectrum 
--------------------
 
Rotational constants in cm-1:             0.235946             0.040680             0.037247 
Rotational constants in MHz :          7073.487732          1219.550430          1116.641853 

Dipole components along the rotational axes: 
x,y,z [a.u.] :     9.650195     1.167561     0.088396 
x,y,z [Debye]:    24.528847     2.967704     0.224685 

 

Dipole moment calculation done in   0.0 sec 

Maximum memory used throughout the entire PROP-calculation: 12.9 MB
[psid08:19068] 29 more processes have sent help message help-mpi-btl-openib.txt / ib port not selected
[psid08:19068] Set MCA parameter "orte_base_help_aggregate" to 0 to see all help / error messages
[psid08:19068] 29 more processes have sent help message help-mpi-btl-openib.txt / error in device init
--------------------------------------------------------------------------
By default, for Open MPI 4.0 and later, infiniband ports on a device
are not used by default.  The intent is to use UCX for these devices.
You can override this policy by setting the btl_openib_allow_ib MCA parameter
to true.

  Local host:              psid08
  Local adapter:           mlx4_0
  Local port:              1

--------------------------------------------------------------------------
--------------------------------------------------------------------------
WARNING: There was an error initializing an OpenFabrics device.

  Local host:   psid08
  Local device: mlx4_0
--------------------------------------------------------------------------
[psid08:19162] 29 more processes have sent help message help-mpi-btl-openib.txt / ib port not selected
[psid08:19162] Set MCA parameter "orte_base_help_aggregate" to 0 to see all help / error messages
[psid08:19162] 29 more processes have sent help message help-mpi-btl-openib.txt / error in device init

--------------------------------
SUGGESTED CITATIONS FOR THIS RUN
--------------------------------

Below you find a list of papers that are relevant to this ORCA run
We neither can nor want to force you to cite these papers, but we appreciate if you do
You receive ORCA, which is the product of decades of hard work by many enthusiastic individuals, for free
The only thing we kindly ask in return is that you cite our papers,
We deeply appreciate it, if you show your appreciation for ORCA by not just citing the generic ORCA reference.

Please note that relegating all ORCA citations to the supporting information does *not* help us.
SI sections are not indexed - citations you put there will not count into any citation statistics
But we need these citations in order to attract the funding resources that allow us to do what we are doing

Therefore, if you are a happy ORCA user, please consider citing a few of the papers listed below in the main body of your paper

In addition to the list printed below, the program has created the file input.bibtex that contains the list in bibtex format
You can import this file easily into all common literature databanks and citation aid programs


List of essential papers. We consider these as the minimum necessary citations

  1. Neese,F.
     Software update: the ORCA program system, version 5.0
     WIRES Comput. Molec. Sci., 2022 12(1)e1606
     doi.org/10.1002/wcms.1606

List of papers to cite with high priority. The work reported in these papers was absolutely
necessary for this run to complete.
Our perspective: the developers of density functionals and basis sets usually get cited in chemistry papers
Good! But without the algorithms to do something with them, the functionals or basis sets would not do anything.
Hence, in our opinion, the algorithm design and method developments papers are equally worthy of getting cited

  1. Neese,F.
     An improvement of the resolution of the identity approximation for the formation of the Coulomb matrix
     J. Comp. Chem., 2003 24(14)1740-1747
     doi.org/10.1002/jcc.10318
  2. Neese,F.; Wennmohs,F.; Hansen,A.; Becker,U.
     Efficient, approximate and parallel Hartree-Fock and hybrid DFT calculations. A 'chain-of-spheres' algorithm for the Hartree-Fock exchange
     Chem. Phys., 2009 356(1-3)98-109
     doi.org/10.1016/j.chemphys.2008.10.036
  3. Garcia-Rates,M.; Neese,F.
     Effect of the Solute Cavity on the Solvation Energy and its Derivatives within the Framework of the Gaussian Charge Scheme
     J. Comput. Chem., 2020 41 922-939
     doi.org/10.1002/jcc.26139
  4. Helmich-Paris,B.; de Souza,B.; Neese,F.; Izsák,R.
     An improved chain of spheres for exchange algorithm
     J. Chem. Phys., 2021 155 104109
     doi.org/doi: 10.1063/5.0058766.
  5. Neese,F.
     The SHARK Integral Generation and Digestion System
     J. Comp. Chem., 2022  1-16
     doi.org/10.1002/jcc.26942
  6. Caldeweyher,E.; Bannwarth,C.; Grimme,S.
     Extension of the D3 dispersion coefficient model
     J. Chem. Phys., 2017 147 034112
     doi.org/10.1063/1.4993215
  7. Caldeweyher,E.; Ehlert,S.; Hansen,A.; Neugebauer,H.; Spicher,S.; Bannwarth,C.; Grimme,S.
     A generally applicable atomic-charge dependent London dispersion correction
     J. Chem. Phys., 2019 150 154122
     doi.org/10.1063/1.5090222
  8. Caldeweyher,E.; Mewes,J.; Ehlert,S.; Grimme,S.
     Extension and evaluation of the D4 London-dispersion model for periodic systems
     Phys. Chem. Chem. Phys., 2020 22(16)8499-8512
     doi.org/10.1039/D0CP00502A
  9. Wittmann,L.; Gordiy,I.; Friede,M.; Helmich-Paris,B.; Grimme,S.; Hansen,A.; Bursch,M.
     Extension of the D3 and D4 London Dispersion Corrections to the full Actinides Series
     Phys. Chem. Chem. Phys., 2024 26(32)21379-21394
     doi.org/https://doi.org/10.1039/D4CP01514B 

List of suggested additional citations. These are papers that are important in the 'surrounding' of 
of this run, or papers that preceded the highly important papers. If you like your results we are grateful for a citation.

  1. Izsak,R.; Neese,F.
     An overlap fitted chain of spheres exchange method
     J. Chem. Phys., 2011 135 144105
     doi.org/10.1063/1.3646921
  2. Izsak,R.; Hansen,A.; Neese,F.
     The resolution of identity and chain of spheres approximations for the LPNO-CCSD singles Fock term
     Molec. Phys., 2012 110 2413-2417
     doi.org/10.1080/00268976.2012.687466
  3. Neese,F.
     The ORCA program system
     WIRES Comput. Molec. Sci., 2012 2(1)73-78
     doi.org/10.1002/wcms.81
  4. Izsak,R.; Neese,F.; Klopper,W.
     Robust fitting techniques in the chain of spheres approximation to the Fock exchange: The role of the complementary space
     J. Chem. Phys., 2013 139 
     doi.org/10.1063/1.4819264
  5. Neese,F.
     Software update: the ORCA program system, version 4.0
     WIRES Comput. Molec. Sci., 2018 8(1)1-6
     doi.org/10.1002/wcms.1327
  6. Neese,F.; Wennmohs,F.; Becker,U.; Riplinger,C.
     The ORCA quantum chemistry program package
     J. Chem. Phys., 2020 152 Art. No. L224108
     doi.org/10.1063/5.0004608

List of optional additional citations

  1. Neese,F.
     Approximate second-order SCF convergence for spin unrestricted wavefunctions
     Chem. Phys. Lett., 2000 325(1-3)93-98
     doi.org/10.1016/s0009-2614(00)00662-x

Timings for individual modules:

Sum of individual times          ...       13.394 sec (=   0.223 min)
Startup calculation              ...        1.716 sec (=   0.029 min)  12.8 %
SCF iterations                   ...       10.727 sec (=   0.179 min)  80.1 %
Property calculations            ...        0.950 sec (=   0.016 min)   7.1 %
                             ****ORCA TERMINATED NORMALLY****
TOTAL RUN TIME: 0 days 0 hours 0 minutes 14 seconds 603 msec
