16
 energy: -278.881371393370 gnorm: 0.000274670611 xtb: 6.7.1 (edcfbbe)
N           -0.73956256452989       -0.19467634372270        2.48811412888946
C           -0.75587308741843       -0.67149508550203        1.10043070375262
C            0.40462977461849       -0.02199709591834        0.35327123897693
C            0.20518683500517       -0.01031489819062       -1.15354995776363
C            0.46238002218226       -1.31652507783706       -1.86762639552651
O            0.66223491220690       -2.38281507167850       -1.22409524743554
O            0.44959038919511       -1.29424698890486       -3.12363201620814
H            0.15325962538743       -0.44831374941744        2.94648867540385
H           -0.80906333069797        0.84273668815603        2.46927129272544
H           -1.70389621426972       -0.39221449526096        0.63904869943379
H           -0.67823956371845       -1.75820192356693        1.07342130572674
H            1.33862931055163       -0.52850609528880        0.59085677101371
H            0.48950917708774        1.01467922809583        0.67560190449735
H           -0.82266741189115        0.26402510721318       -1.39204595505243
H            0.85864188624017        0.72485797271058       -1.62262151847862
H           -1.52389032033640       -0.59630764096720        3.04106006947343
