37
 energy: -59.761980714759 gnorm: 0.177561206970 xtb: 6.7.1 (edcfbbe)
N            0.05814800000000       -0.92758300000000        1.46960700000000
C            0.21195900000000        0.51002000000000        1.25738900000000
C           -0.42029600000000        1.02660100000000       -0.05399500000000
C            0.23290900000000        0.51099500000000       -1.35178600000000
C           -0.12525300000000       -0.89643600000000       -1.75561800000000
O            0.43258500000000       -1.42088200000000       -2.86197900000000
O           -0.94795900000000       -1.55110300000000       -1.13717200000000
H            0.42854800000000       -1.16686800000000        2.41684100000000
H           -0.95187600000000       -1.19383100000000        1.43153800000000
H           -0.27873900000000        1.04478500000000        2.10014800000000
H            1.29199600000000        0.77262900000000        1.27882300000000
H           -0.26331200000000        2.12751800000000       -0.03828000000000
H           -1.51695700000000        0.85134800000000       -0.07337000000000
H            1.33463900000000        0.61768200000000       -1.26361400000000
H           -0.10456000000000        1.15854300000000       -2.18948000000000
H            0.61816600000000       -1.46341800000000        0.77094700000000
O           -3.48136700000000        0.17871500000000        3.92159200000000
H           -2.51241300000000        0.15976100000000        4.12501200000000
H           -3.85520400000000        0.84061500000000        4.55621600000000
O           -3.17795600000000        1.97236200000000       -3.76491200000000
H           -2.90475200000000        2.13238700000000       -2.82663600000000
H           -3.64918700000000        1.10173900000000       -3.74105800000000
O           -3.17120000000000        4.71587600000000        0.42580100000000
H           -2.98443900000000        4.09749300000000        1.17635700000000
H           -2.37722200000000        4.64053700000000       -0.16117000000000
O           -4.09918800000000       -1.38450400000000       -2.04533100000000
H           -3.38157000000000       -1.02909600000000       -2.62784400000000
H           -3.63179400000000       -1.66387900000000       -1.21822400000000
O           -3.41534800000000        2.28640900000000        2.81024400000000
H           -4.19326700000000        2.11515900000000        2.22191900000000
H           -2.62921500000000        2.19440900000000        2.21514500000000
O           -4.10230600000000       -0.95212500000000        1.12255800000000
H           -4.14371900000000       -0.32959700000000        1.89155400000000
H           -3.56967400000000       -1.71895700000000        1.45253400000000
O           -4.27191400000000        1.39916000000000       -1.26582100000000
H           -4.52881200000000        0.50329800000000       -0.93109000000000
H           -3.44618700000000        1.62295200000000       -0.76711700000000
37
 energy: -59.788088362824 gnorm: 0.090796319168 xtb: 6.7.1 (edcfbbe)
N            0.05855093997001       -0.92541195139283        1.47093757601020
C            0.21079818601708        0.52144118011714        1.25595476618102
C           -0.41110485756891        1.03280210030053       -0.04933024996089
C            0.23429317797375        0.51779120478492       -1.34583296029946
C           -0.14355679960613       -0.89531761504698       -1.76627664150604
O            0.43805041385817       -1.37811393833023       -2.81655462906770
O           -0.95348134845498       -1.55908813620287       -1.10314526176081
H            0.42154928235145       -1.18056573181286        2.40389242510864
H           -0.93639314933753       -1.19333284855754        1.40922539644757
H           -0.27295812832376        1.04487489461570        2.09078460944542
H            1.27789328461282        0.77552719310550        1.26814334297307
H           -0.27709898739979        2.12209107389767       -0.04312508518687
H           -1.48837040072190        0.82231003897755       -0.07038257113027
H            1.32659463690100        0.60799023369957       -1.28539391507099
H           -0.08689614684927        1.15347776841630       -2.18271865173913
H            0.58719679129275       -1.45847083114555        0.76434513794084
O           -3.47870901643815        0.09545359170504        3.97747855302197
H           -2.52056651532280        0.15499214729925        4.14177325747180
H           -3.85654467422610        0.80487864789481        4.53013263560084
O           -3.13453377236535        1.94079757996446       -3.79197764088254
H           -2.94822675403200        2.14095720087842       -2.85441321090829
H           -3.67955354765985        1.13243112387520       -3.74879791660002
O           -3.17091188458719        4.69546167345897        0.41956246100544
H           -2.98145605407260        4.12169115930010        1.18406433800739
H           -2.37985247354252        4.64942903006909       -0.14264396640964
O           -4.08937474367030       -1.35827942120750       -2.03191899352592
H           -3.37353615746281       -1.05922510512565       -2.61683029145211
H           -3.63216491131492       -1.67118928719581       -1.23118988344581
O           -3.40921880409278        2.39112177330754        2.75389597354640
H           -4.18163445718506        2.12791688286892        2.21845046983596
H           -2.63740328096143        2.18290369711123        2.19162356030099
O           -4.03933321352507       -0.91274307503485        1.11924690916701
H           -4.14742699266545       -0.35839400745288        1.92017253596907
H           -3.61033297748813       -1.72315435498671        1.45599511970961
O           -4.27078461869021        1.40828884353486       -1.22830210157606
H           -4.51871375900087        0.50488594594805       -0.95146509569828
H           -3.45152428641107        1.60648531836152       -0.74565200152245
37
 energy: -59.796925152516 gnorm: 0.040439060127 xtb: 6.7.1 (edcfbbe)
N            0.05681865122275       -0.91889995679849        1.46507512845896
C            0.21826650148383        0.53816008561724        1.25448651198685
C           -0.40814922252430        1.03809618219660       -0.04273929537980
C            0.24223291634258        0.52180644498580       -1.33061638068692
C           -0.11146453304566       -0.92363916035232       -1.73996394251726
O            0.38523066095311       -1.32396493442012       -2.79960081900207
O           -0.96461982597078       -1.54690738996221       -1.06105049792126
H            0.41261444688968       -1.19617801526622        2.38393208988235
H           -0.92812479663216       -1.18296311482763        1.37132770425598
H           -0.26164687155471        1.04774853462751        2.08548854434467
H            1.27791492751606        0.77721047818310        1.25850959075811
H           -0.30555819505125        2.11988982646024       -0.04453008935771
H           -1.46674438343851        0.77967035937425       -0.06931743456273
H            1.32715949790306        0.59577116469409       -1.29460797084955
H           -0.07437926220921        1.13770193487967       -2.17398693659641
H            0.54812664704975       -1.44817850009065        0.74023196302362
O           -3.46363706151946        0.08143543127984        3.96395429412412
H           -2.53464691943744        0.12736633395018        4.17503892093579
H           -3.87300401359567        0.75435947126297        4.50527336194873
O           -3.11068746878590        1.91383909010520       -3.81414179307425
H           -3.00927122265167        2.15081097417334       -2.87830736526868
H           -3.70427921350826        1.15471946487295       -3.77231119249343
O           -3.17073710739570        4.67655988580403        0.41778852818423
H           -2.99037758915868        4.14929189839928        1.20444374113991
H           -2.37831259988922        4.65852731619778       -0.11882049610045
O           -4.07562902646759       -1.33705336135794       -2.01771055370989
H           -3.36294913661166       -1.09368276080258       -2.61137703217772
H           -3.63038561558674       -1.67645069823684       -1.23697662274400
O           -3.39578608641851        2.40956580697859        2.71211884701221
H           -4.17468566972654        2.18151717363746        2.21060962816107
H           -2.64631302578993        2.18363301110461        2.16206818307038
O           -3.98768504109467       -0.88513159093718        1.14143724337152
H           -4.12119676088681       -0.38150486952997        1.95898210677920
H           -3.62967259298998       -1.72507214794276        1.45418075624752
O           -4.25608914940834        1.42413650970082       -1.19376592440287
H           -4.50860133634220        0.51034272997971       -0.98957783731716
H           -3.45046652166884        1.59018039206001       -0.70581695952300
37
 energy: -59.800918312590 gnorm: 0.073153851560 xtb: 6.7.1 (edcfbbe)
N            0.05078085552453       -0.91287238939820        1.45088448488258
C            0.22800279573532        0.54739950523692        1.25654342486535
C           -0.41108839090365        1.04134835519458       -0.03509604310977
C            0.23692255577237        0.53108363380925       -1.32287110619920
C           -0.15324550638840       -0.90867952672406       -1.76489819405380
O            0.40011792387206       -1.33472364373310       -2.77634843617647
O           -0.94017231675171       -1.55118106462443       -1.01470464800617
H            0.40439125368779       -1.21113663661125        2.36417749746747
H           -0.93797349095827       -1.16414234207934        1.33940748912106
H           -0.24853854175100        1.05196317896710        2.09353259096962
H            1.29102008243590        0.77621024201178        1.25368306273393
H           -0.33381954186732        2.12639096446055       -0.03840843205042
H           -1.46311371915886        0.75195938959228       -0.06275474423064
H            1.32620170182145        0.58312886227845       -1.29573830959660
H           -0.07957540819388        1.15103869299110       -2.16284849857757
H            0.52312733790579       -1.43690032956903        0.70679982455381
O           -3.44972137172976        0.05531044810566        3.94834794466413
H           -2.53007737059774        0.11721890685201        4.21319143354033
H           -3.91255825957800        0.72059233558456        4.46515779459866
O           -3.08011086915203        1.87905171693750       -3.84107232352489
H           -3.08287560201883        2.16548758699141       -2.89276965894994
H           -3.75458082756952        1.17076384203134       -3.80650656164349
O           -3.19164214284048        4.63671172043142        0.40397295580211
H           -2.99120224399362        4.18560497906463        1.24603205936668
H           -2.35738602280394        4.68031357580403       -0.08315175138895
O           -4.06928844435932       -1.28238654715739       -1.98843946614886
H           -3.33953244979017       -1.14253822912499       -2.62098483607969
H           -3.62529756481797       -1.69376748159341       -1.23195139154457
O           -3.37678805528660        2.46376092781862        2.67302448869806
H           -4.18271290178212        2.20773630033344        2.21510988706859
H           -2.64576629854874        2.13210270507812        2.12047977179659
O           -3.90229973238131       -0.83421180264555        1.15586122541262
H           -4.09113338670050       -0.40110130589684        2.01993923175921
H           -3.66366576626100       -1.75083860459413        1.45446754292859
O           -4.24509011389403        1.45584136524696       -1.15945860357408
H           -4.49628424059266        0.50965539353752       -1.05379745450097
H           -3.43175992608288        1.56651927539319       -0.65908425087327
37
 energy: -59.800314587743 gnorm: 0.083232720734 xtb: 6.7.1 (edcfbbe)
N            0.04207348506308       -0.90389599625688        1.43608170203267
C            0.23621281888599        0.55758330830550        1.25825717605731
C           -0.41705600615742        1.04424498104907       -0.02856427498023
C            0.23177049852945        0.53813389515863       -1.31361764067685
C           -0.18206333840655       -0.90229887999127       -1.77543534492518
O            0.40250848116624       -1.34266529394577       -2.77469900046900
O           -0.93135140805470       -1.55079591692297       -0.98595397179234
H            0.39554374998759       -1.22501305466089        2.34321875827668
H           -0.95318532781522       -1.13767231150080        1.30964810424080
H           -0.23211265527370        1.06117047002444        2.10365473238018
H            1.30403103389770        0.77639847821856        1.24466546299745
H           -0.37101749144158        2.13448720094092       -0.03611822144760
H           -1.46230947165885        0.72232170277577       -0.05317298107195
H            1.32487967014418        0.57369886877301       -1.28768779383663
H           -0.08144613185628        1.15969356314884       -2.15547861208233
H            0.49392976682948       -1.42197861832662        0.66976927311506
O           -3.44191199826622        0.00327131204497        3.95109634805934
H           -2.52563433084839        0.11113450893685        4.25519481882540
H           -3.95827651726982        0.68985523254109        4.41517786171822
O           -3.14748683765716        1.90791973081733       -3.81666943820096
H           -3.09782949045010        2.13952194578863       -2.89388291755784
H           -3.72869661178453        1.16134269355974       -3.85431529280373
O           -3.19771706401144        4.61869186528099        0.41154294168686
H           -3.00235021767115        4.20155027674518        1.27494802918180
H           -2.34273114496008        4.69970396397233       -0.04756988089977
O           -4.05810907269206       -1.29216115608796       -1.98593323918270
H           -3.33635261356876       -1.15769172714187       -2.61774151506944
H           -3.62830585555807       -1.69497375238769       -1.22107705555520
O           -3.35874608273750        2.53014598383468        2.62305920445304
H           -4.19212905022315        2.23044295544085        2.21150933112298
H           -2.65023502482617        2.09655948438865        2.07002827464206
O           -3.93919334051230       -0.87888771861594        1.22556393510930
H           -3.99828033437101       -0.38317965722949        2.03186744935681
H           -3.58392923316761       -1.72020693022094        1.44184538973229
O           -4.22360998138641        1.47424514222934       -1.14591735521206
H           -4.49251726439974        0.51960362707279       -1.10968204868686
H           -3.42310160747631        1.54241382224227       -0.60388420853765
37
 energy: -59.806000941311 gnorm: 0.040925116498 xtb: 6.7.1 (edcfbbe)
N            0.03552186714916       -0.90235674729291        1.43165573688272
C            0.23394878651623        0.55566074635406        1.25909288476119
C           -0.42432494873591        1.04117718269251       -0.02818364041731
C            0.23452180738681        0.53563442735905       -1.30886313303341
C           -0.13891399987191       -0.92298118876054       -1.73606863242576
O            0.38213870485765       -1.33622255125971       -2.80582211887425
O           -0.95055369077097       -1.54047217384228       -1.01418985810389
H            0.39165363830830       -1.23067508267416        2.33681299883068
H           -0.96457264932297       -1.12661063602827        1.30946913345142
H           -0.22486383012926        1.06458976272153        2.11057653894336
H            1.30460761494617        0.77411091715796        1.24082037293927
H           -0.39194399525840        2.13477669567114       -0.03670200645112
H           -1.46874400637717        0.71401664752743       -0.04666188095267
H            1.32581852327237        0.58347382671238       -1.26649626493695
H           -0.07494314207630        1.15333807610205       -2.15936595659308
H            0.48467646456274       -1.41709953261498        0.65880068589517
O           -3.44758672869018       -0.02518626032027        3.95705080340410
H           -2.52938968564573        0.09431062084696        4.25910845237125
H           -3.95956323361697        0.67470600549312        4.40617895215191
O           -3.12966159965120        1.89109604166946       -3.82073703351934
H           -3.15626530704392        2.13635335871652       -2.88201192296174
H           -3.76086315047566        1.16850568603199       -3.89257921116307
O           -3.17903518832735        4.64747767076098        0.44670564615480
H           -3.02046849465125        4.18576361834282        1.27430442348622
H           -2.34889256380529        4.69563452414500       -0.03358288358518
O           -4.03954805197069       -1.31039511483747       -1.98822836397060
H           -3.33061389605988       -1.14235407838648       -2.60409870303771
H           -3.62214809833422       -1.68417700810223       -1.20673529921641
O           -3.35183043905394        2.49316215164486        2.60746401126727
H           -4.18567459824604        2.25735169597651        2.18081806738590
H           -2.65399094955093        2.16057796040965        2.04707222071901
O           -3.89433091940937       -0.84696689927793        1.23720478908119
H           -3.96682321572990       -0.39839813352917        2.08569889727059
H           -3.59958350526075       -1.74019475727753        1.42529179798620
O           -4.19672009931337        1.45782881837487       -1.17732121410468
H           -4.48312777892158        0.53896082470593       -1.09805783884141
H           -3.42464564069643        1.54829690478857       -0.59869245079378
37
 energy: -59.807677765102 gnorm: 0.065434553265 xtb: 6.7.1 (edcfbbe)
N            0.02632679577707       -0.90029815218493        1.42968474577990
C            0.23088936231748        0.55534680716925        1.25492019828484
C           -0.43249700458087        1.03841159573588       -0.03040794500833
C            0.23229236852577        0.53818387290893       -1.31174979384602
C           -0.13284158602337       -0.92499989736637       -1.72840952142336
O            0.37419389416763       -1.33253556200378       -2.79478226024579
O           -0.96044231802029       -1.53473024888739       -1.02245260258292
H            0.38509300682789       -1.23477162882730        2.32836912535577
H           -0.97387926056821       -1.11568837765597        1.31334724935805
H           -0.21422747620008        1.06773724783015        2.10910090212214
H            1.30022451787277        0.76931615402900        1.23092743196793
H           -0.40959016828430        2.12865969824994       -0.03828667251003
H           -1.47281105735996        0.70720472084759       -0.04284956524341
H            1.32050637705078        0.58672103334675       -1.25911193892343
H           -0.06854840579171        1.15734071439250       -2.16192464027367
H            0.46488628781885       -1.41397221694241        0.65302380451252
O           -3.46186726525632        0.01069193224917        3.92831116551581
H           -2.55918536001267        0.04826489662743        4.24836383528983
H           -3.93919899295461        0.65173126417230        4.43567865775589
O           -3.14725332078047        1.88777238985147       -3.81931380214780
H           -3.22435413683563        2.11112303359431       -2.87201518270683
H           -3.78211728153871        1.17047650418964       -3.94638747888628
O           -3.19624496856256        4.61511748414061        0.44000409411804
H           -3.03120337786525        4.21224672523792        1.31271803368106
H           -2.32677912975734        4.71302056829903        0.01544921217595
O           -4.03444432060275       -1.25439124413365       -1.95581725568866
H           -3.31253953529077       -1.18005865664189       -2.60939700407619
H           -3.61410740111395       -1.68555379400241       -1.19709845957510
O           -3.33873301724222        2.52901374360552        2.56910244990350
H           -4.18382743109568        2.29568349554586        2.16878928128107
H           -2.65839219455867        2.10524385113554        2.01101479115152
O           -3.79256064415504       -0.79506657387267        1.23827175548928
H           -3.93158653830655       -0.43527545711420        2.15685407751605
H           -3.61567189075939       -1.76523156910275        1.41621212818503
O           -4.18160577386027        1.48112042219498       -1.16334458571761
H           -4.44933897580585        0.53640706368208       -1.16044895579934
H           -3.41529977717207        1.53845215970163       -0.57661727478977
37
 energy: -59.806568867907 gnorm: 0.086320553740 xtb: 6.7.1 (edcfbbe)
N            0.01563534103747       -0.89813506745364        1.42842311686679
C            0.22966199799964        0.55607921732192        1.25206501071218
C           -0.43961521839585        1.03657082037614       -0.03004691757323
C            0.22666118881670        0.54331219793626       -1.31414331645032
C           -0.16942238320299       -0.90662000490552       -1.75608276919086
O            0.38977068751187       -1.33910204718218       -2.76667996773331
O           -0.95143746916384       -1.54032251249299       -1.01100129322260
H            0.37710173015519       -1.24066634726962        2.32014416904517
H           -0.98541825512961       -1.10306037314895        1.31624168773566
H           -0.20433091115031        1.07127044119372        2.10762236807935
H            1.29817615264520        0.76338398941697        1.22106041138555
H           -0.42752327611101        2.12366198948426       -0.03755529138389
H           -1.47523326411859        0.69639760583193       -0.04004231981151
H            1.31493576819637        0.58220907116759       -1.25797034717611
H           -0.06598138548203        1.16971593020027       -2.15783091487986
H            0.44028748499835       -1.41142005377147        0.64619928283669
O           -3.45980122190387        0.00603678532545        3.92137337820768
H           -2.57075765586827        0.02238633661534        4.27253890587950
H           -3.95072328061351        0.63405791558241        4.42547543298380
O           -3.09595992447074        1.84227762654384       -3.83905507300939
H           -3.34101393155152        2.10445454132896       -2.86004794938165
H           -3.84311432861134        1.19063984334928       -3.99903454774086
O           -3.18296294717520        4.63058972457703        0.47153554595782
H           -3.05029166002818        4.21011800741149        1.33317716984963
H           -2.32819372113371        4.70915434258926        0.04403795758111
O           -4.01601510954479       -1.25440103182115       -1.94556480267791
H           -3.30207598407439       -1.17544265379862       -2.59476488904969
H           -3.60253543519464       -1.67385293579148       -1.18237984486069
O           -3.32894802887591        2.52936364774576        2.53747669315362
H           -4.17902368963326        2.32913400989327        2.14596302572630
H           -2.66306626888986        2.10388014987787        1.97944591126355
O           -3.78163138776337       -0.83642144568692        1.27043558339457
H           -3.88011542047823       -0.43047782835043        2.14685008909065
H           -3.54555571523594       -1.74176017775923        1.44554828102308
O           -4.15631105059096        1.49196343571011       -1.16621667676103
H           -4.41359139763168        0.54446695351785       -1.19334116932102
H           -3.40831602933338        1.54327189643744       -0.56412793054911
37
 energy: -59.807144196146 gnorm: 0.081855659895 xtb: 6.7.1 (edcfbbe)
N            0.00311341483266       -0.89534832507778        1.42516435162976
C            0.22648267827595        0.55755039509333        1.24724606435463
C           -0.44409507563986        1.03683335377631       -0.03408030100136
C            0.22607072055622        0.54350702182015       -1.31607911962761
C           -0.19945932748162       -0.89172935795914       -1.78618072051360
O            0.40508692737809       -1.34559116813666       -2.76327617152648
O           -0.93944008228336       -1.54929060432122       -1.00596980399219
H            0.36687727839962       -1.24355144454108        2.31361931819715
H           -1.00095037403453       -1.09138224924461        1.31762738414620
H           -0.20442297712289        1.07704000046417        2.10157676506269
H            1.29618165758412        0.75947015883229        1.21123338304708
H           -0.44058035750885        2.12389574302251       -0.04401303943468
H           -1.47719066177888        0.68611361268644       -0.04914092757136
H            1.31655234729013        0.57657505845524       -1.25794212709407
H           -0.06237055708382        1.17264041797661       -2.15789929214281
H            0.41855864080122       -1.41005586481786        0.63912955464138
O           -3.44601493179500       -0.02860274896577        3.93136242122568
H           -2.56069925957241        0.02500524842353        4.31388568407532
H           -3.99107720627999        0.63521015805915        4.38578451796592
O           -3.21311250059495        1.89502553672918       -3.78827280857427
H           -3.28826720002753        2.06020589536497       -2.86013997281194
H           -3.78008551626310        1.15929786945665       -3.99349082218615
O           -3.16873289472698        4.65213876457449        0.50204307801680
H           -3.06438995180547        4.20621759903554        1.34388241588107
H           -2.33279832638563        4.71244738858696        0.06496862403087
O           -3.99814182578707       -1.28761769664216       -1.95248798080430
H           -3.30336584834783       -1.15801626137526       -2.57621609240306
H           -3.59557795135498       -1.66767533298602       -1.17229622042190
O           -3.31796830553371        2.50883060994171        2.51810639562360
H           -4.17459670831132        2.35101988060583        2.12631235354971
H           -2.66826746780764        2.14599147749703        1.95458586077755
O           -3.72810958532074       -0.82995908866697        1.27017004817906
H           -3.85527172526096       -0.42699066581787        2.13936563887656
H           -3.54773361104409       -1.74291266288761        1.46989123666676
O           -4.14184232930833        1.47359861034229       -1.19511537754741
H           -4.40900142368777        0.55080814118156       -1.20612971938044
H           -3.43209568296418        1.54201452951640       -0.54749659891464
37
 energy: -59.810951659085 gnorm: 0.069096106406 xtb: 6.7.1 (edcfbbe)
N           -0.00418317470323       -0.89437907925401        1.42451444501945
C            0.22358259654634        0.55603726071565        1.24776598477397
C           -0.44906370773632        1.03819555985960       -0.03401721627022
C            0.22751381523322        0.53963094302625       -1.31054871059883
C           -0.12959477208888       -0.92245890797053       -1.72959524956967
O            0.37099149791363       -1.32556943930008       -2.81492295675566
O           -0.96427462223831       -1.53454768817452       -1.03803211410381
H            0.36624440808527       -1.24421347985190        2.31401120856377
H           -1.01386079993686       -1.08478365527159        1.32970165944482
H           -0.20616689294998        1.08068620855310        2.10449141126670
H            1.29739404153935        0.75676035330145        1.20783299152206
H           -0.44832384675899        2.13023353346573       -0.04493830663777
H           -1.48416244040166        0.68248885971429       -0.04932398025931
H            1.31720618470831        0.58754620227149       -1.24498998569690
H           -0.06426969964739        1.16108310868936       -2.16366100759085
H            0.40967370818802       -1.41198790920774        0.63459100781313
O           -3.44744140664990       -0.03274848453850        3.93667020417575
H           -2.55772676008307        0.03062630759108        4.32865583871527
H           -4.00212562612449        0.64379626847486        4.38450776973348
O           -3.22440365035009        1.89637003585892       -3.79255949688160
H           -3.33130312042360        2.04233188443617       -2.85044827897444
H           -3.77847754091068        1.15425135134957       -4.03028717222741
O           -3.19401465794464        4.61669839243688        0.48189746280591
H           -3.06588054901578        4.21622187849913        1.35973289598501
H           -2.30321829739671        4.74061233995163        0.09841039214077
O           -4.00094909882346       -1.24016887619680       -1.92884547947692
H           -3.29097330377463       -1.18147794343707       -2.58484060244646
H           -3.59067865929606       -1.66864338635362       -1.16409778049449
O           -3.30297469432564        2.57512823702958        2.50315991660100
H           -4.18662990361301        2.35139908304148        2.15147508533201
H           -2.66974744505831        2.05993323437331        1.92638438521951
O           -3.69858988873612       -0.82309536510192        1.27056207507133
H           -3.82023273883994       -0.41756719119211        2.13959378278382
H           -3.55616559281760       -1.76538350197427        1.47054934211391
O           -4.14356217109398        1.49004595154135       -1.18381536508099
H           -4.38757964433422        0.54370236325057       -1.24129471863933
H           -3.42276754613576        1.53595955039584       -0.53856143737758
37
 energy: -59.814300399956 gnorm: 0.056515880956 xtb: 6.7.1 (edcfbbe)
N           -0.01981669772649       -0.89431493642333        1.42591690055819
C            0.21769935882417        0.55421893334657        1.24510363347947
C           -0.45487442020054        1.03382329809279       -0.03670291444402
C            0.22220200828106        0.54283798191580       -1.31682416780921