34
 energy: -56.603808714738 gnorm: 0.179093063011 xtb: 6.7.1 (edcfbbe)
H            1.42053100000000       -0.69343900000000       -0.45759400000000
C            0.31562500000000       -0.64091500000000       -0.57275600000000
H            0.37944700000000        0.34125600000000       -2.37510200000000
H           -0.02020400000000       -1.57726700000000       -1.06978300000000
N           -0.04283300000000        0.48932200000000       -1.43082700000000
H           -0.10434400000000       -1.52577500000000        1.34227500000000
C           -0.35607200000000       -0.58177200000000        0.80987700000000
O           -0.15503900000000        1.84564400000000        1.27779400000000
C            0.09900500000000        0.57829600000000        1.65429800000000
H            0.33459400000000        1.38391400000000       -1.05046800000000
O            0.66999200000000        0.37333800000000        2.71201200000000
H           -1.08151800000000        0.54834700000000       -1.53303300000000
H           -1.45918500000000       -0.54094800000000        0.69330800000000
O           -2.64902200000000        1.16430800000000       -4.26971100000000
H           -3.09677900000000        1.09770000000000       -3.38897900000000
H           -3.13909900000000        1.88262000000000       -4.74348900000000
O           -2.82133500000000        3.40819000000000        2.30904600000000
H           -3.34326900000000        2.56744400000000        2.27241100000000
H           -2.44722400000000        3.42821900000000        3.22569900000000
O           -3.61513900000000        1.22987500000000       -0.05454200000000
H           -4.22747000000000        1.98416200000000       -0.24614500000000
H           -3.10165500000000        1.10815600000000       -0.89247500000000
O           -3.00543200000000       -3.88696400000000        0.71571200000000
H           -2.46907600000000       -3.05504600000000        0.74479400000000
H           -2.50073600000000       -4.52731800000000        1.27770900000000
O           -2.17814200000000        1.40370400000000        5.79365400000000
H           -2.86451500000000        0.78302100000000        5.44115400000000
H           -1.37112600000000        1.21487200000000        5.25173000000000
O           -1.15162800000000       -1.02010100000000        5.06186300000000
H           -0.58397100000000       -1.46483200000000        4.38319400000000
H           -0.51806400000000       -0.73709300000000        5.76834400000000
O           -1.77982500000000       -3.30527000000000        4.24145900000000
H           -1.38347100000000       -4.19567700000000        4.41664100000000
H           -2.15303000000000       -3.02372600000000        5.11442200000000
34
 energy: -56.626980831564 gnorm: 0.088462205788 xtb: 6.7.1 (edcfbbe)
H            1.40162452164615       -0.69134513351069       -0.44772023493599
C            0.31257731708918       -0.65482451005148       -0.57574798204206
H            0.37475727752964        0.36773352829886       -2.36889809677877
H           -0.01229673646017       -1.57855698889723       -1.07092539069791
N           -0.04151749050174        0.48859683973503       -1.43067401808602
H           -0.11709705529688       -1.50251166135614        1.35060301021156
C           -0.35871059763592       -0.58462857699366        0.79912520955266
O           -0.10765920684668        1.78224130456803        1.21113788236700
C            0.08956096199391        0.58485920813754        1.66378392116620
H            0.30324868484774        1.37345579439104       -1.01785008987459
O            0.67817422625073        0.37066711855418        2.73207344456759
H           -1.06550579740279        0.54986395732100       -1.52668845327788
H           -1.44915810514972       -0.52681017098323        0.68785346649829
O           -2.63817350045142        1.17731308911175       -4.25112580226094
H           -3.12157572685325        1.09294109377696       -3.41270168781442
H           -3.11504750274139        1.86426736532869       -4.74585875141955
O           -2.85855415324894        3.42922855478818        2.32783739349636
H           -3.31518193090710        2.57111138035264        2.26660672195317
H           -2.44251406837299        3.42560074865308        3.20630981614063
O           -3.63014658511765        1.22001944576007       -0.06822155505501
H           -4.21786101216056        1.97736570615802       -0.22853175017799
H           -3.11958613746766        1.12611186435477       -0.88855866009198
O           -2.99546388516704       -3.88989129369211        0.70680327418902
H           -2.48417095913061       -3.06580571649399        0.75590709027951
H           -2.51150641081838       -4.51842677926538        1.26660145799451
O           -2.19248522861354        1.44004884585756        5.76952329520159
H           -2.84709552041335        0.78199989895280        5.47318278382123
H           -1.39117752301851        1.21691671174275        5.26459752236332
O           -1.12091619875050       -0.97684495093215        5.07979414200962
H           -0.58992035550314       -1.42244422068862        4.39790349981685
H           -0.49277149174243       -0.73781926396418        5.77945966320123
O           -1.80835481780741       -3.38046476830828        4.21451805498088
H           -1.37474586147453       -4.22120789758732        4.43845933937422
H           -2.14075813030305       -3.03251552311759        5.06391348332766
34
 energy: -56.633451069644 gnorm: 0.054601495811 xtb: 6.7.1 (edcfbbe)
H            1.39123821126488       -0.69673149473968       -0.44451954960320
C            0.31427726298061       -0.67571202153620       -0.58124220583698
H            0.37527576461788        0.40869761555099       -2.35659969045224
H           -0.00862041309865       -1.58400831061061       -1.07901785436892
N           -0.04165478480071        0.48787980277386       -1.42397938297027
H           -0.13578539768118       -1.49736814490217        1.35387286349287
C           -0.35322915840542       -0.59740720372081        0.78480175484211
O           -0.10806782375240        1.71966222500484        1.17159538137752
C            0.17023737813981        0.60304829999098        1.61190354565627
H            0.26095121892818        1.35888005335901       -0.95421776126264
O            0.64462293169453        0.35788867913241        2.75255823410363
H           -1.05462833298356        0.54564941449967       -1.51606238252006
H           -1.43434658882080       -0.49390031314863        0.68809953788666
O           -2.62485516138776        1.18825947115406       -4.22633439654985
H           -3.16062424051201        1.08060796471690       -3.43662749745354
H           -3.07594633750124        1.84747088025569       -4.75510948577889
O           -2.87356987715311        3.43505414329798        2.33578242198266
H           -3.30017847112137        2.58034021387157        2.25935533150260
H           -2.44936420362209        3.43602256363751        3.19133487187929
O           -3.63886279667854        1.21612567580519       -0.07879868828324
H           -4.21773394484792        1.96978016922088       -0.19815994533184
H           -3.14170922551571        1.14750413990899       -0.89174210009523
O           -2.98322778317083       -3.89552810873651        0.68942192858303
H           -2.50740347455061       -3.06910427868247        0.77256389363316
H           -2.52828441092249       -4.51375937091163        1.25899535062601
O           -2.21209666079835        1.48491772923849        5.74945935442580
H           -2.83892409656096        0.79132911765836        5.51170745672583
H           -1.41450639270988        1.23401892749918        5.27745387440037
O           -1.09331848992183       -0.98703210020591        5.11975487775881
H           -0.59209038939986       -1.36572439281061        4.39340008550745
H           -0.46107575722488       -0.74147689573849        5.78984205021205
O           -1.78824398389202       -3.43006889408452        4.19651652216405
H           -1.37362561749684       -4.25103362202793        4.45643988279016
H           -2.14463795309529       -3.03803693471803        5.00004372095697
34
 energy: -56.641169683550 gnorm: 0.040833553612 xtb: 6.7.1 (edcfbbe)
H            1.39028013197790       -0.69993268632172       -0.43622824192419
C            0.31258910801335       -0.68771184755035       -0.57562640406043
H            0.38226168922697        0.44354111197058       -2.33451268561018
H           -0.00220469808994       -1.59111328153885       -1.09044853014198
N           -0.04988741477056        0.48813380035227       -1.40461993516439
H           -0.15346733063296       -1.51594104850526        1.36023030299024
C           -0.36319904702497       -0.61730592783412        0.78736138064760
O           -0.00248053017832        1.71735906385585        1.07935163960789
C            0.12542124513901        0.60638309127817        1.62269666905165
H            0.22326806876501        1.35193207148204       -0.89374447691977
O            0.65235068731742        0.35809938298783        2.73230931136257
H           -1.06359174974760        0.53225377282715       -1.50764828925417
H           -1.44100857025514       -0.49828798997160        0.68172490651956
O           -2.59284107240578        1.20136711125982       -4.19351322819575
H           -3.21709769832170        1.06032467018809       -3.45506570439035
H           -3.03063365986052        1.83201900333689       -4.77781352364898
O           -2.91466341984560        3.46518367411845        2.34772514951648
H           -3.27243559606435        2.57068571545061        2.24307530411814
H           -2.43457192302757        3.44358435933262        3.18116659696165
O           -3.65374384860382        1.19863143593450       -0.08760264245030
H           -4.22379640274695        1.97270064797405       -0.15371786387006
H           -3.15495739249033        1.17702194640045       -0.90716169236495
O           -2.97481739261954       -3.90488066243401        0.65712033306840
H           -2.53064579841636       -3.06009692279870        0.79006512995635
H           -2.54488549903059       -4.51883969492665        1.25540141032133
O           -2.23418757265954        1.53925789679119        5.72361254870936
H           -2.84107214493729        0.78921373837358        5.55830708154469
H           -1.42241426087858        1.24318301686529        5.28973887477643
O           -1.07790410499870       -0.99952600322898        5.16394817624578
H           -0.59228582809390       -1.29665914651351        4.37439688426112
H           -0.42111378243055       -0.74695353665306        5.81155216728246
O           -1.78436737629301       -3.48672574621661        4.15846566390796
H           -1.35224807381211       -4.28560817203896        4.48638243863751
H           -2.13965774220402       -3.02504784424275        4.93556324850889
34
 energy: -56.644186928751 gnorm: 0.059811783265 xtb: 6.7.1 (edcfbbe)
H            1.39208717587088       -0.71376708734467       -0.42953314208470
C            0.31196794824727       -0.70917768694297       -0.57306612882001
H            0.40580737216145        0.49208200476017       -2.29900817746313
H            0.00667203683438       -1.60864499435764       -1.10731960353048
N           -0.05717308116108        0.48391064319004       -1.37774706080076
H           -0.18017435250780       -1.53515640431190        1.37050655191053
C           -0.37197768702220       -0.63832680114091        0.78625360083562
O            0.12623512983929        1.71102965437102        0.97154502407644
C            0.13584144664858        0.60429024353235        1.60249403931147
H            0.17418372069217        1.33450615663617       -0.80268606024853
O            0.61326808163107        0.36197079652829        2.73446258421774
H           -1.07260969503963        0.50407916690441       -1.50818612441197
H           -1.44793437012079       -0.49681150699119        0.66966587366243
O           -2.61060347512536        1.18212909950109       -4.17305724116000
H           -3.24720014366806        1.06122591975354       -3.45788152256481
H           -2.99835572473902        1.82519281456230       -4.78042305481789
O           -2.93622481924435        3.46626442262145        2.34465998628618
H           -3.27073006423065        2.56625609720951        2.23372346671964
H           -2.44216637711338        3.45757009407216        3.17044351933044
O           -3.66011606596577        1.17666848639934       -0.09977067032943
H           -4.22894797344767        1.96762628711215       -0.09054572180008
H           -3.15921070946219        1.23390621375151       -0.93028382822618
O           -2.95796041228851       -3.91611785959714        0.60787518561815
H           -2.55987712099328       -3.04804756309592        0.81461186954515
H           -2.57153422567038       -4.52052698962560        1.25899117022695
O           -2.23286670876550        1.52712345831670        5.75535868338327
H           -2.86942271975311        0.85326086395819        5.55690677832682
H           -1.44156190239322        1.27186115815178        5.28328386006014
O           -1.05643652615876       -0.97731438003144        5.19457057603907
H           -0.58650676127877       -1.22171494356190        4.37482589792966
H           -0.38283719342993       -0.75640930504587        5.84523892526893
O           -1.78586062531749       -3.54895629455670        4.10946587808711
H           -1.32335410486357       -4.31501881306576        4.50301241357769
H           -2.11442907216822       -3.01871795165541        4.86410445184570
34
 energy: -56.648461096770 gnorm: 0.057974699803 xtb: 6.7.1 (edcfbbe)
H            1.38859159290605       -0.72585227149942       -0.43685923405058
C            0.30564850227120       -0.72451937531359       -0.58151298954014
H            0.42668096138764        0.54267634753521       -2.26771498379750
H            0.00677791690516       -1.62269173710843       -1.12731482472769
N           -0.06906172635202        0.48303695091817       -1.35977714415398
H           -0.19420940801742       -1.54156872341067        1.36957663748713
C           -0.37587588370113       -0.64635542284971        0.77776000442830
O            0.18491948235042        1.69870525580631        0.93871140206945
C            0.17717930185846        0.59876030856519        1.57152195385765
H            0.12482960802462        1.31535961427742       -0.71524569247080
O            0.58890682784943        0.36209106091912        2.72960063426523
H           -1.08501490746952        0.47912767844330       -1.52145643697013
H           -1.45236710526133       -0.49373477839633        0.66448195742590
O           -2.59322014746289        1.18603348016838       -4.13864406375682
H           -3.30061787487301        1.04030823955946       -3.47875626590685
H           -2.95287101931788        1.81178389609752       -4.78941963990997
O           -2.96254103477137        3.47728142629979        2.34218609099628
H           -3.25958648010937        2.56286639132768        2.22335180755837
H           -2.44593253006401        3.47951101784678        3.15748656166604
O           -3.64391430184060        1.19745389887207       -0.09359392645948
H           -4.24559145426854        1.95737799538100       -0.06138881408883
H           -3.17137717129016        1.27124456061355       -0.93957072974822
O           -2.95479700994239       -3.91433659081607        0.59756067392568
H           -2.57712232014608       -3.04526233436259        0.82661227808595
H           -2.59394232401735       -4.51863137485515        1.26883675861271
O           -2.25664272074848        1.60958255218707        5.68746494257927
H           -2.87431204329233        0.83972331442941        5.63211767067534
H           -1.44097875764137        1.24798933959707        5.28650925440851
O           -1.02991525222341       -0.95422256309402        5.20460580859014
H           -0.56715802968895       -1.16888167067368        4.38271347964691
H           -0.35140443371714       -0.77280617731409        5.87106428771682
O           -1.77575086009754       -3.58567518571970        4.08812911569079
H           -1.33210157049057       -4.34628173500493        4.48904576480231
H           -2.09723682675174       -3.04384838841763        4.82440966109364
34
 energy: -56.650445754611 gnorm: 0.063259977935 xtb: 6.7.1 (edcfbbe)
H            1.38197657290736       -0.73733658931431       -0.46307657044522
C            0.29683208880206       -0.73008239923734       -0.60219984045527
H            0.44239888942918        0.58614032791945       -2.24095550291574
H           -0.00068364349542       -1.62996150265122       -1.14631688494747
N           -0.08050521873187        0.48439218478014       -1.35696431597338
H           -0.18558673678227       -1.53437324502365        1.35340192156840
C           -0.37042234419040       -0.64113555834302        0.76166960553101
O            0.19623010877013        1.67474954689711        0.98193058952199
C            0.21550520745111        0.58553381703763        1.55229192289646
H            0.08740208121671        1.28693600160394       -0.64144285657081
O            0.60951384112480        0.35825481846160        2.70113505359552
H           -1.09141686834551        0.46388460314803       -1.55262619744646
H           -1.44813036450311       -0.49723789845596        0.66564393684348
O           -2.59487130229426        1.18568306529200       -4.12046075935903
H           -3.32409028366986        1.01551328104333       -3.49964601561809
H           -2.93374181155405        1.80633867293919       -4.77444957090175
O           -2.98026586032743        3.47702112542249        2.33170742428493
H           -3.25762678574414        2.56162222077828        2.21096440123859
H           -2.46929341242115        3.50555167656493        3.14650341438839
O           -3.61373337605528        1.24427208314037       -0.07954247843240
H           -4.25610015922558        1.94810112416196       -0.06194898121070
H           -3.18091844046499        1.29562335344720       -0.93310019585119
O           -2.96395706874324       -3.89778273861778        0.63817627547406
H           -2.59038736716380       -3.04832280993915        0.83654151005006
H           -2.60266078046285       -4.51296721560967        1.27968150059105
O           -2.25011736016493        1.58683979943688        5.70406142310601
H           -2.89551210886486        0.88265420483395        5.61929293973208
H           -1.45290054103374        1.27119983999357        5.26617254188625
O           -1.00596903434134       -0.97872640105228        5.22255072577931
H           -0.53678107159048       -1.09318984679220        4.36873416044702
H           -0.31967489155541       -0.79482977475716        5.87927086795834
O           -1.77233761028893       -3.62371109382742        4.08557876556731
H           -1.36639750971682       -4.38218086139175        4.49418681954212
H           -2.08578583797296       -3.06222881188141        4.79572637012695
34
 energy: -56.654136538158 gnorm: 0.040038557515 xtb: 6.7.1 (edcfbbe)
H            1.37612842007377       -0.75504698869851       -0.47718377622304
C            0.29088672204616       -0.73650162020336       -0.60484253069066
H            0.44308603080585        0.60132632158467       -2.21427239181188
H           -0.01473715575364       -1.63407819389296       -1.14533858228813
N           -0.08721236570876        0.48204680348329       -1.34819867578658
H           -0.19358935828470       -1.54344098879334        1.35630231454718
C           -0.36939337844864       -0.65010147695053        0.76237276144810
O            0.28582841635553        1.65596864212330        0.93440544007243
C            0.21763418153932        0.56799754366818        1.55457689490203
H            0.07226264216255        1.26422278420880       -0.60830692744552
O            0.56514093945835        0.35702957104307        2.72382480279125
H           -1.09028548938305        0.45988782773361       -1.56474080767161
H           -1.44528491490846       -0.49880453404124        0.66163261352655
O           -2.62104150964431        1.16509027844676       -4.11088552930889
H           -3.32704436831549        1.00766085936601       -3.50027214908998
H           -2.92785567228698        1.80326214531808       -4.75217045796142
O           -2.98867689246831        3.46899026946997        2.31828444350526
H           -3.25645095596917        2.55621296267042        2.20004518398169
H           -2.49704409483755        3.52408683579814        3.13770674153609
O           -3.58613320990396        1.25376619578683       -0.07816069029042
H           -4.26817559653268        1.93113134737330       -0.01754629543252
H           -3.18181004684161        1.35218862411132       -0.94904396073749
O           -2.95378947706982       -3.90500668273043        0.61584440361049
H           -2.62593868014380       -3.03431474165154        0.86496551411275
H           -2.61051987641928       -4.51325329329936        1.27256473406100
O           -2.26503851962035        1.62130037705516        5.68191636875836
H           -2.90988625263348        0.89938990762611        5.65039005743963
H           -1.46604461267663        1.26685287375774        5.26698691901833
O           -0.97838410474780       -0.95421163327657        5.19833274479732
H           -0.48479109394884       -1.07266785815723        4.39618218422850
H           -0.32882993605198       -0.80062080012760        5.89509092503687
O           -1.76338353313099       -3.66094149900411        4.04767621600773
H           -1.35277559276433       -4.39857204703692        4.52310455703950
H           -2.05685966395270       -3.02460481275123        4.73124895431938
34
 energy: -56.648067419534 gnorm: 0.121608878196 xtb: 6.7.1 (edcfbbe)
H            1.35886521974597       -0.77395029989269       -0.49513290056590
C            0.27495512825640       -0.73998785886395       -0.60412141757662
H            0.42769324425285        0.61273461362800       -2.18664539147800
H           -0.04825267510338       -1.63321652139254       -1.13599562687766
N           -0.10250476371441        0.48244718678919       -1.33994759586841
H           -0.21019075907486       -1.56008380600663        1.36479001367698
C           -0.37314354016291       -0.66457106684059        0.77112948330791
O            0.39559227322686        1.62929819553618        0.85764154530470
C            0.20423164824673        0.54183036727911        1.56775112654867
H            0.05983344911120        1.24332286173231       -0.60028807066747
O            0.47539955055935        0.35772621507049        2.78075718898176
H           -1.09276378502727        0.46791463177581       -1.57517094162880
H           -1.44651930614532       -0.49692442320000        0.66174426913194
O           -2.55637324097835        1.18407485027978       -4.04464330479334
H           -3.42729138894350        0.95552022036943       -3.54295991233751
H           -2.84245950414675        1.77219322739640       -4.77034991231439
O           -3.02605267092642        3.49917032178206        2.31971724888523
H           -3.20910591829490        2.54334322059764        2.18099973750702
H           -2.49619010344402        3.54522632219002        3.12204311242218
O           -3.57647567941393        1.24976108124608       -0.08175717070283
H           -4.28298632894155        1.91876961447433        0.03806672515507
H           -3.18811707256529        1.42487413597058       -0.96441198705774
O           -2.93203421764167       -3.92316262456424        0.56460598660194
H           -2.66724205075312       -3.01942018009055        0.90236931085323
H           -2.63576546070185       -4.51394356963992        1.27851835105639
O           -2.27441439853427        1.63640392884910        5.68028887676580
H           -2.91807953890499        0.92055724397397        5.67598590258050
H           -1.47855568255975        1.25762718158185        5.28349675500345
O           -0.95653690418340       -0.99704145722417        5.23138966378841
H           -0.43567303897148       -0.95113484671582        4.36739316833489
H           -0.31458843933602       -0.81935474554648        5.91553340214617
O           -1.74795345312284       -3.67030421236217        4.01560878408574
H           -1.33237572667737       -4.39623732467781        4.49966132538643
H           -2.02493386513587       -3.02721748349148        4.68442425434706
34
 energy: -56.658027804236 gnorm: 0.034710516662 xtb: 6.7.1 (edcfbbe)
H            1.36191776289022       -0.77517223887144       -0.50455291281911
C            0.27601088515163       -0.74178918117786       -0.61375741715019
H            0.44611406218679        0.62893036098579       -2.18990616548458
H           -0.05015425246081       -1.63597262080214       -1.14548679466643
N           -0.09884901809946        0.48322210721983       -1.34553974346204
H           -0.19945520696596       -1.56186154875460        1.35354726428943
C           -0.36468297859880       -0.66191036174933        0.76588120013592
O            0.35740191692347        1.62062629925182        0.92269074168290
C            0.21821729747403        0.53620319831451        1.56664308640159
H            0.06184751590204        1.23848398066936       -0.58878930149647
O            0.50331247691313        0.34860802669721        2.76120473128855
H           -1.09027474086791        0.46729340244106       -1.58963178343101
H           -1.43991488323829       -0.49682304167402        0.66752300573796
O           -2.61381607516542        1.15172472292043       -4.06149944153803
H           -3.38629013598693        0.98385274583846       -3.51785041835873
H           -2.87080742555747        1.78033507238944       -4.74778313523609
O           -3.03268284877229        3.48762939508921        2.31121496222665
H           -3.22842424551881        2.54450972656025        2.18313320408100
H           -2.50854666471248        3.54577055783323        3.11756739469811
O           -3.57996319980463        1.25378046828254       -0.08253281393104
H           -4.26628375848444        1.92635389014204        0.02526087577285
H           -3.17272399912338        1.43186483521210       -0.94800311363346
O           -2.93720338501287       -3.90731799542037        0.58961561500404
H           -2.65489686680097       -3.02749694390456        0.89067134103086
H           -2.64319002706433       -4.50718410539417        1.29220041441875
O           -2.27992181996470        1.65037550696404        5.65317276498058
H           -2.92310571528383        0.91863802584019        5.68072185136383
H           -1.47946831244328        1.24346805602543        5.27359881676020
O           -0.94460005676552       -0.95961523824643        5.20468164721974
H           -0.43488411545304       -0.96300254903546        4.37522823172094
H           -0.30675170406927       -0.83478509213826        5.91921676353436
O           -1.75240980441073       -3.67586785851997        4.02025462427378
H           -1.34061679605502       -4.39915192880562        4.50054199726537
H           -2.02491288076765       -3.03747467417056        4.68325450732265
34
 energy: -56.644799831191 gnorm: 0.153582938056 xtb: 6.7.1 (edcfbbe)
H            1.34980556692619       -0.78272021715063       -0.52156960851305
C            0.26231500177485       -0.74637888923564       -0.62585965424032
H            0.46183641276408        0.66424590317433       -2.18072407072869
H           -0.07310025123488       -1.63657395731568       -1.16168417719842
N           -0.10744950813361        0.48968754085803       -1.34497496734954
H           -0.20367261332702       -1.57558709458391        1.33573049556718
C           -0.36788968439942       -0.66768890316662        0.76009274508113
O            0.34292215227966        1.59845051854805        0.97153524388398
C            0.22592478260909        0.52044847819348        1.56559512496861
H            0.04475480593942        1.23381929856042       -0.56271194708643
O            0.48625991824750        0.32887346222767        2.76149310998385
H           -1.09792608579377        0.46974289224102       -1.60951369669752
H           -1.44431913883400       -0.49738169248064        0.67610953610399
O           -2.55035134613298        1.18194900513479       -4.01301059303424
H           -3.44453191793347        0.92965657159986       -3.55437657015637
H           -2.82578755472643        1.75221733127748       -4.75013086995937
O           -2.98249033722885        3.46651698181137        2.28467112286105
H           -3.26003939457992        2.58761108710822        2.18822381491432
H           -2.52580077985016        3.56980773499458        3.11557804562416
O           -3.57338185535255        1.29002851783911       -0.07521316239299
H           -4.26598762652501        1.93754747970967        0.01005528003229
H           -3.17291911119416        1.44835300950695       -0.92739136541489
O           -2.95889667978130       -3.88791576365916        0.64796520859232
H           -2.66375835830583       -3.03333308232891        0.89240836854139
H           -2.63884695226464       -4.50766667649904        1.29019253484845
O           -2.27196365813353        1.61878588086366        5.66675485140901
H           -2.92974085241934        0.92746679499975        5.67441915213066
H           -1.48796078873311        1.24684699386223        5.26130283019769
O           -0.90567323929255       -0.91660467079689        5.14769125152668
H           -0.39321108518718       -0.98007542537344        4.39361843376525
H           -0.29251826428660       -0.84819238247683        5.90589528939601
O           -1.79210705866642       -3.74502425673312        3.98863200559297
H           -1.35249083285518       -4.42692974532478        4.58573196502826
H           -1.99101266537180       -2.95373772537615        4.62595627272542
34