88
 energy: -431.763207284363 gnorm: 0.000546145767 xtb: 6.7.1 (edcfbbe)
N       -0.4079354014      0.4657946331      1.6324015415                 
C       -0.3906047176     -0.0578645048      0.2612611695                 
C        0.1636898289      1.0032680848     -0.6779109836                 
C        0.2887223646      0.4946290846     -2.1009043767                 
C        0.4997298062      1.5650959839     -3.1363344323                 
O        0.6337959174      2.7762632718     -2.8192913984                 
O        0.4743593932      1.1922341015     -4.3509165335                 
H        0.5196018885      0.8659419999      1.8509586229                 
H       -1.0851562948      1.2306744534      1.7667316275                 
H       -1.3935068384     -0.3440853141     -0.0457483061                 
H        0.2582955648     -0.9281922732      0.2323715765                 
H        1.1542918998      1.2993985721     -0.3504148202                 
H       -0.4746159095      1.8803798621     -0.6807488891                 
H       -0.6072499099     -0.0401449132     -2.4103168935                 
H        1.1367485548     -0.1833063383     -2.1898366249                 
H       -0.6127104423     -0.3090640131      2.2926586777                 
O       -3.2198757544      4.4000545085     -2.1986072782                 
H       -3.9308997331      4.5626544604     -1.5517107154                 
H       -3.3652350398      3.4741007591     -2.5031039246                 
O       -3.2026494448      1.4606572123     -0.1581047447                 
H       -2.4885752894      2.1218609327     -0.1193868464                 
H       -3.9601194696      1.8990697211      0.2555442180                 
O       -2.2180371681     -0.5119087282     -3.6071993538                 
H       -2.6017666676     -0.7830190455     -4.4485281070                 
H       -2.6166065702      0.3553681280     -3.3864293995                 
O       -0.5358644614     -1.7746594162      3.1358545612                 
H       -0.6210322572     -2.6610204712      2.7798794847                 
H       -1.0452584013     -1.7470112340      3.9667696297                 
O        2.1778810728      2.3791221647     -6.0417707785                 
H        2.4739525042      3.1304097949     -5.4940340306                 
H        1.5008197253      1.9274904077     -5.4794760808                 
O        2.4715156550      4.3234582718     -4.1053772813                 
H        1.9782874149      5.1354337491     -4.3198097645                 
H        1.8251766927      3.7687188020     -3.6129619507                 
O        2.0471223885     -1.4318354295      3.4013234448                 
H        1.0760673378     -1.5194488498      3.2201324612                 
H        2.5424318436     -1.7260315400      2.6156673744                 
O        0.6054314412     -1.4971193479     -4.6282388547                 
H        0.4412159419     -0.5395941352     -4.4900473872                 
H        0.4350283223     -1.9441371778     -3.7501078747                 
O        1.8852608333      2.0842369975      1.9549831175                 
H        1.6173575342      2.7625361343      1.3204392832                 
H        2.5346521238      1.5284541088      1.4871949158                 
O       -3.2136410521     -0.0722178800      2.1578065852                 
H       -3.0810788379      0.4609359830      1.3551808219                 
H       -4.1533244930     -0.2854627494      2.1814648389                 
O       -1.4517378550      3.7520312988     -0.2304375208                 
H       -1.9728281305      4.1784198963     -0.9307787904                 
H       -0.5359772434      4.0358245338     -0.3242421312                 
O        1.4638390518      3.7836788019     -0.3403592760                 
H        2.4268094362      3.7061278787     -0.1630697758                 
H        1.3221557973      3.4335441862     -1.2335337724                 
O        3.3017127514      1.2089216814     -2.2381910135                 
H        3.4372684688      0.4168781756     -2.7810098669                 
H        3.2993678997      0.9021042287     -1.2934172339                 
O       -0.7139457353      0.8937733171     -7.7399835592                 
H       -1.1430978976      1.3282241048     -6.9743576944                 
H       -0.1867245724      1.5923961508     -8.1673011950                 
O       -1.1916722144      4.3363970651     -4.1446252414                 
H       -1.8856497513      4.5614361599     -3.5039503912                 
H       -0.5355177061      3.8041529811     -3.6445224297                 
O        0.2123211915      1.6372742056      4.1274922236                 
H        1.0120528246      1.8005090688      3.6042076871                 
H        0.4293442795      0.8923359001      4.7226223882                 
O        2.9601518484      0.8607538625      4.2292675092                 
H        2.5762858823      0.0171013587      3.8728895987                 
H        3.6243802372      1.1600944337      3.5865043106                 
O       -2.3739727059      1.0763618101      4.3678457480                 
H       -2.7207068911      0.7923410571      3.4858644987                 
H       -1.4242858096      1.2753323023      4.2129948802                 
O       -4.6409977836      2.6842368029      1.8335051095                 
H       -5.0789947046      2.8188363095      2.6890846750                 
H       -3.6665049443      2.7091439822      2.0491732369                 
O       -1.8663558228      1.9420159166     -5.4793979121                 
H       -1.8389008204      2.8832275537     -5.2439753976                 
H       -1.0784274905      1.5637244140     -5.0359125529                 
O       -3.4586846340      1.7710646799     -2.7841202516                 
H       -3.3454603419      1.5889575777     -1.8139985745                 
H       -4.3315861146      1.4075268286     -3.0024017849                 
O        3.2343828961      0.3306621565      0.3042712555                 
H        2.7844088660     -0.5233245582      0.1084968289                 
H        4.1530652884      0.0986550061      0.4847791826                 
O       -1.9967370886      2.8026426005      2.2056393617                 
H       -2.0520570209      3.3576255999      2.9996003525                 
H       -1.7596189946      3.3777945250      1.4628051269                 
O        1.1283775747     -1.0919283105     -7.2811956278                 
H        0.9659888388     -1.3631046351     -6.3572560411                 
H        0.5113442584     -0.3454723345     -7.4321626746                 
