
                                 *****************
                                 * O   R   C   A *
                                 *****************

                                            #,                                       
                                            ###                                      
                                            ####                                     
                                            #####                                    
                                            ######                                   
                                           ########,                                 
                                     ,,################,,,,,                         
                               ,,#################################,,                 
                          ,,##########################################,,             
                       ,#########################################, ''#####,          
                    ,#############################################,,   '####,        
                  ,##################################################,,,,####,       
                ,###########''''           ''''###############################       
              ,#####''   ,,,,##########,,,,          '''####'''          '####       
            ,##' ,,,,###########################,,,                        '##       
           ' ,,###''''                  '''############,,,                           
         ,,##''                                '''############,,,,        ,,,,,,###''
      ,#''                                            '''#######################'''  
     '                                                          ''''####''''         
             ,#######,   #######,   ,#######,      ##                                
            ,#'     '#,  ##    ##  ,#'     '#,    #''#        ,####,   ,####,        
            ##       ##  ##   ,#'  ##            #'  '#       #'       #'  '#        
            ##       ##  #######   ##           ,######,      #####,   #    #        
            '#,     ,#'  ##    ##  '#,     ,#' ,#      #,     #,   #   #,  ,#        
             '#######'   ##     ##  '#######'  #'      '#     '####' # '####'        



                #########################################################
                #                        -***-                          #
                #          Department of theory and spectroscopy        #
                #                                                       #
                #                      Frank Neese                      #
                #                                                       #
                #     Directorship, Architecture, Infrastructure        #
                #                    SHARK, DRIVERS                     #
                #        Core code/Algorithms in most modules           #
                #                                                       #
                #        Max Planck Institute fuer Kohlenforschung      #
                #                Kaiser Wilhelm Platz 1                 #
                #                 D-45470 Muelheim/Ruhr                 #
                #                      Germany                          #
                #                                                       #
                #                  All rights reserved                  #
                #                        -***-                          #
                #########################################################


                         Program Version 6.0.1  -  RELEASE   -


 With contributions from (in alphabetic order):
[Max-Planck-Institut fuer Kohlenforschung]                               
  Daniel Aravena         : Magnetic Suceptibility                        
  Michael Atanasov       : Ab Initio Ligand Field Theory (pilot matlab implementation)
  Alexander A. Auer      : GIAO ZORA, VPT2 properties, NMR spectrum      
  Ute Becker             : All parallelization in ORCA, NUMFREQ, NUMCALC 
  Giovanni Bistoni       : ED, misc. LED, open-shell LED, HFLD           
  Martin Brehm           : Molecular dynamics                            
  Dmytro Bykov           : pre 5.0 version of the SCF Hessian            
  Marcos Casanova-Páez   : Triplet and SCS-CIS(D). UHF-(DLPNO)-IP/EA/STEOM-CCSD. UHF-CVS-IP/STEOM-CCSD   
  Vijay G. Chilkuri      : MRCI spin determinant printing, contributions to CSF-ICE 
  Pauline Colinet        : FMM embedding                                 
  Dipayan Datta          : RHF DLPNO-CCSD density                        
  Achintya Kumar Dutta   : EOM-CC, STEOM-CC                              
  Nicolas Foglia         : Exact transition moments, OPA infrastructure, MCD improvements    
  Dmitry Ganyushin       : Spin-Orbit,Spin-Spin,Magnetic field MRCI      
  Miquel Garcia-Rates    : C-PCM and meta-GGA Hessian, CCSD/C-PCM, Gaussian charge scheme 
  Tiago L. C. Gouveia    : GS-ROHF, GS-ROCIS                             
  Yang Guo               : DLPNO-NEVPT2, F12-NEVPT2, CIM, IAO-localization        
  Andreas Hansen         : Spin unrestricted coupled pair/coupled cluster methods 
  Ingolf Harden          : AUTO-CI MPn and infrastructure                
  Benjamin Helmich-Paris : MC-RPA, TRAH-(SCF,CASSCF), AVAS, COSX integrals, SCF dyn. polar. 
  Lee Huntington         : MR-EOM, pCC                                   
  Robert Izsak           : Overlap fitted RIJCOSX, COSX-SCS-MP3, EOM     
  Riya Kayal             : Wick's Theorem for AUTO-CI, AUTO-CI UHF-CCSDT 
  Emily Kempfer          : AUTO-CI, RHF CISDT and CCSDT                  
  Christian Kollmar      : KDIIS, OOCD, Brueckner-CCSD(T), CCSD density, CASPT2, CASPT2-K, improved NEVPT2 
  Axel Koslowski         : Symmetry handling                             
  Simone Kossmann        : meta-GGA functionals, TD-DFT gradient, OOMP2, (MP2 Hessian; deprecated post 5.0) 
  Lucas Lang             : DCDCAS                                        
  Marvin Lechner         : AUTO-CI (C++ implementation), FIC-MRCC        
  Spencer Leger          : CASSCF response                               
  Dagmar Lenk            : GEPOL surface, SMD, ORCA-2-JSON               
  Dimitrios Liakos       : Extrapolation schemes; Compound Job, initial MDCI parallelization 
  Dimitrios Manganas     : Further ROCIS development; embedding schemes. LFT, Crystal Embedding 
  Dimitrios Pantazis     : SARC Basis sets                               
  Anastasios Papadopoulos: AUTO-CI, single reference methods and gradients 
  Taras Petrenko         : pre 6.0 DFT Hessian and TD-DFT gradient, (ASA, deprecated), ECA, 1-Electron XAS/XES, NRVS 
  Peter Pinski           : DLPNO-MP2, DLPNO-MP2 Gradient                 
  Christoph Reimann      : Effective Core Potentials                     
  Marius Retegan         : Local ZFS, SOC                                
  Christoph Riplinger    : Optimizer, TS searches, QM/MM, DLPNO-CCSD(T), (RO)-DLPNO pert. Triples 
  Michael Roemelt        : Original ROCIS implementation                 
  Masaaki Saitow         : Open-shell DLPNO-CCSD energy and density      
  Barbara Sandhoefer     : DKH picture change effects                    
  Kantharuban Sivalingam : CASSCF convergence/infrastructure, NEVPT2 and variants, FIC-MRCI 
  Bernardo de Souza      : ESD, SOC TD-DFT                               
  Georgi L. Stoychev     : AutoAux, RI-MP2 NMR, DLPNO-MP2 response, X2C  
  Van Anh Tran           : RI-MP2 g-tensors                              
  Willem Van den Heuvel  : Paramagnetic NMR                              
  Zikuan Wang            : NOTCH, Electric field optimization            
  Frank Wennmohs         : Technical directorship and infrastructure     
  Hang Xu                : AUTO-CI-Response properties                   
                                                                         
[FACCTs GmbH]                                                            
  Markus Bursch, Miquel Garcia-Rates, Christoph Riplinger, Bernardo de Souza, Georgi L. Stoychev 
                                                                 
  APM, Basis sets (HGBS, AHGBS, def-TZVP (Ac-Lr), def2-XVPD (La-Lu)), CI-OPT, improved COSX, DLPNO-Multilevel,           
  DOCKER, DRACO, updates on ESD, GOAT, IRC, LR-CPCM, MBIS, meta-GGA TD-DFT gradient, ML-optimized integration grids, 
  MM, NACMEs, nearIR, NEB, NEB-TS, NL-DFT gradient (VV10), 2- and 3-layer-ONIOM, interface openCOSMO-RS, QMMM,   
  Crystal-QMMM, SF, symmetry and pop. for TD-DFT, r2SCAN hybrids, SOLVATOR                                   
                                                                         
[Other institutions]                                                     
  V. Asgeirsson          : NEB                                           
  Christoph Bannwarth    : sTDA-DFT, sTD-DFT, PBEh-3c, B97-3c, D3        
  Sebastian Ehlert       : rSCAN, r2SCAN, r2SCAN-3c, D4, dhf basis sets  
  Marvin Friede          : D4 for Fr, Ra, Ac-Lr                          
  Lars Goerigk           : TD-DFT with DH, B97 family of functionals     
  Stefan Grimme          : VdW corrections, initial TS optimization, DFT functionals, gCP, sTDA/sTD-DF 
  Waldemar Hujo          : DFT-NL                                        
  H. Jonsson             : NEB                                           
  Holger Kruse           : gCP                                           
  Marcel Mueller         : wB97X-3c, vDZP basis set                      
  Hagen Neugebauer       : wr2SCAN                                       
  Tobias Risthaus        : range-separated hybrid DFT                    
  Lukas Wittmann         : regularized MP2, r2SCAN double-hybrids, wr2SCAN        
                                                                         
We gratefully acknowledge several colleagues who have allowed us to      
interface, adapt or use parts of their codes:                            
  Ed Valeev, F. Pavosevic, A. Kumar             : LibInt (2-el integral package), F12 methods 
  Garnet Chan, S. Sharma, J. Yang, R. Olivares  : DMRG                   
  Ulf Ekstrom                                   : XCFun DFT Library      
  Mihaly Kallay                                 : mrcc  (arbitrary order and MRCC methods)
  Frank Weinhold                                : gennbo (NPA and NBO analysis)           
  Simon Mueller                                 : openCOSMO-RS                            
  Christopher J. Cramer and Donald G. Truhlar   : smd solvation model                     
  S Lehtola, MJT Oliveira, MAL Marques          : LibXC Library                           
  Liviu Ungur et al                             : ANISO software                          


 Your calculation uses the libint2 library for the computation of 2-el integrals
 For citations please refer to: http://libint.valeyev.net

 Your ORCA version has been built with support for libXC version: 6.2.2
 For citations please refer to: https://libxc.gitlab.io

 This ORCA versions uses:
   CBLAS   interface :  Fast vector & matrix operations
   LAPACKE interface :  Fast linear algebra routines
   SCALAPACK package :  Parallel linear algebra routines
   Shared memory     :  Shared parallel matrices
   BLAS/LAPACK       :  OpenBLAS 0.3.27  USE64BITINT DYNAMIC_ARCH NO_AFFINITY SkylakeX SINGLE_THREADED
        Core in use  :  SkylakeX
   Copyright (c) 2011-2014, The OpenBLAS Project


NOTE: MaxCore=3000 MB was set to SCF,MP2,MDCI,CIPSI,MRCI and CIS
      => If you want to overwrite this, your respective input block should be placed after the MaxCore statement
Your calculation utilizes the atom-pairwise dispersion correction
based on EEQ partial charges (D4)


Warning: RI is on but no J-basis has been assigned. Assigning Def2/J (nothing to worry about!)
================================================================================

----- Orbital basis set information -----
Your calculation utilizes the basis: def2-TZVP
   F. Weigend and R. Ahlrichs, Phys. Chem. Chem. Phys. 7, 3297 (2005).

----- AuxJ basis set information -----
Your calculation utilizes the auxiliary basis: def2/J
   F. Weigend, Phys. Chem. Chem. Phys. 8, 1057 (2006).

================================================================================
                                        WARNINGS
                       Please study these warnings very carefully!
================================================================================


WARNING: Geometry Optimization
  ===> : Switching off AutoStart
         For restart on a previous wavefunction, please use MOREAD

================================================================================
                                       INPUT FILE
================================================================================
NAME = 06_Aminobutyric-acid_zwitterion.inp
|  1> ! Opt B3LYP D4 def2-TZVP TightSCF TightOpt CPCM(water)
|  2> 
|  3> %maxcore 3000
|  4> 
|  5> %pal
|  6> nprocs 30
|  7> end
|  8> 
|  9> * xyz 0 1
| 10> N          0.02030        1.01270        0.72510
| 11> C          0.72120        1.61240       -0.40640
| 12> C         -0.13770        1.78700       -1.67810
| 13> C         -0.62990        0.51670       -2.40180
| 14> C         -1.88390       -0.11020       -1.83660
| 15> O         -1.90190       -0.69900       -0.62990
| 16> O         -2.90210       -0.12480       -2.51050
| 17> H          0.60030        1.14490        1.58520
| 18> H         -0.90860        1.47000        0.87180
| 19> H          1.05570        2.63120       -0.10670
| 20> H          1.63260        1.01750       -0.63840
| 21> H          0.54240        2.30060       -2.39390
| 22> H         -0.99290        2.47360       -1.49530
| 23> H          0.18980       -0.22730       -2.49190
| 24> H         -0.89230        0.84090       -3.43420
| 25> H         -0.06930       -0.01490        0.58380
| 26> *
| 27> 
| 28>                          ****END OF INPUT****
================================================================================

                       *****************************
                       * Geometry Optimization Run *
                       *****************************

Geometry optimization settings:
Update method            Update   .... BFGS
Choice of coordinates    CoordSys .... (2022) Redundant Internals
Initial Hessian          InHess   .... Almloef's Model
Max. no of cycles        MaxIter  .... 50

Convergence Tolerances:
Energy Change            TolE     ....  1.0000e-06 Eh
Max. Gradient            TolMAXG  ....  1.0000e-04 Eh/bohr
RMS Gradient             TolRMSG  ....  3.0000e-05 Eh/bohr
Max. Displacement        TolMAXD  ....  1.0000e-03 bohr
RMS Displacement         TolRMSD  ....  6.0000e-04 bohr
Strict Convergence                .... False

------------------------------------------------------------------------------
                        ORCA OPTIMIZATION COORDINATE SETUP
------------------------------------------------------------------------------

The optimization will be done in redundant internal coordinates (2022)
Making redundant internal coordinates   ...  (2022 redundants) done
Evaluating the initial hessian          ...  (Almloef) done
Evaluating the coordinates              ...  done
Calculating the B-matrix                .... done
Calculating the G-matrix                .... done
Diagonalizing the G-matrix              .... done
The first mode is                       ....   24
The number of degrees of freedom        ....   42

    -----------------------------------------------------------------
                    Redundant Internal Coordinates


    -----------------------------------------------------------------
         Definition                    Initial Value    Approx d2E/dq
    -----------------------------------------------------------------
      1. B(C   1,N   0)                  1.4599         0.432930   
      2. B(C   2,C   1)                  1.5445         0.354223   
      3. B(C   3,C   2)                  1.5426         0.356656   
      4. B(C   4,C   3)                  1.5116         0.399682   
      5. B(O   5,C   4)                  1.3428         0.665529   
      6. B(O   6,C   4)                  1.2211         1.040745   
      7. B(H   7,N   0)                  1.0458         0.379416   
      8. B(H   8,N   0)                  1.0457         0.379516   
      9. B(H   9,C   1)                  1.1134         0.330436   
     10. B(H  10,C   1)                  1.1128         0.331136   
     11. B(H  11,C   2)                  1.1130         0.330967   
     12. B(H  12,C   2)                  1.1118         0.332329   
     13. B(H  13,C   3)                  1.1107         0.333783   
     14. B(H  14,C   3)                  1.1135         0.330356   
     15. B(H  15,N   0)                  1.0411         0.385946   
     16. B(H  15,O   5)                  2.3021         0.003757   
     17. A(H   8,N   0,H  15)          111.9762         0.291675   
     18. A(H   7,N   0,H   8)          108.7839         0.290894   
     19. A(C   1,N   0,H   8)          110.8287         0.330343   
     20. A(C   1,N   0,H  15)          109.9732         0.331262   
     21. A(C   1,N   0,H   7)          108.6178         0.330328   
     22. A(H   7,N   0,H  15)          106.5063         0.291663   
     23. A(H   9,C   1,H  10)          107.4113         0.283229   
     24. A(C   2,C   1,H  10)          110.1347         0.317132   
     25. A(N   0,C   1,H  10)          109.5844         0.325767   
     26. A(C   2,C   1,H   9)          106.5747         0.317022   
     27. A(N   0,C   1,C   2)          114.6848         0.366962   
     28. A(N   0,C   1,H   9)          108.1496         0.325653   
     29. A(C   1,C   2,H  11)          103.9989         0.317105   
     30. A(C   3,C   2,H  12)          109.8911         0.317671   
     31. A(C   1,C   2,H  12)          111.2342         0.317318   
     32. A(C   3,C   2,H  11)          105.8581         0.317459   
     33. A(C   1,C   2,C   3)          118.0750         0.357240   
     34. A(H  11,C   2,H  12)          106.9050         0.283457   
     35. A(H  13,C   3,H  14)          107.0826         0.283568   
     36. A(C   2,C   3,C   4)          115.5178         0.364671   
     37. A(C   4,C   3,H  14)          105.7795         0.323327   
     38. A(C   2,C   3,H  14)          105.6886         0.317364   
     39. A(C   4,C   3,H  13)          111.3937         0.323875   
     40. A(C   2,C   3,H  13)          110.7442         0.317897   
     41. A(O   5,C   4,O   6)          118.6541         0.476799   
     42. A(C   3,C   4,O   6)          119.3630         0.437395   
     43. A(C   3,C   4,O   5)          121.9363         0.403863   
     44. D(H   9,C   1,N   0,H   8)     71.5004         0.017125   
     45. D(H   9,C   1,N   0,H   7)    -47.9520         0.017125   
     46. D(H   9,C   1,N   0,H  15)   -164.1475         0.017125   
     47. D(C   2,C   1,N   0,H  15)     77.0977         0.017125   
     48. D(C   2,C   1,N   0,H   7)   -166.7068         0.017125   
     49. D(C   2,C   1,N   0,H   8)    -47.2544         0.017125   
     50. D(C   3,C   2,C   1,N   0)    -66.1320         0.010090   
     51. D(H  11,C   2,C   1,H  10)    -58.8589         0.010090   
     52. D(H  11,C   2,C   1,H   9)     57.3499         0.010090   
     53. D(H  11,C   2,C   1,N   0)    176.9860         0.010090   
     54. D(C   3,C   2,C   1,H  10)     58.0231         0.010090   
     55. D(C   3,C   2,C   1,H   9)    174.2319         0.010090   
     56. D(C   4,C   3,C   2,H  12)    -45.9502         0.010219   
     57. D(C   4,C   3,C   2,H  11)   -161.0534         0.010219   
     58. D(C   4,C   3,C   2,C   1)     83.0640         0.010219   
     59. D(H  13,C   3,C   2,H  12)   -173.7587         0.010219   
     60. D(H  13,C   3,C   2,H  11)     71.1381         0.010219   
     61. D(H  13,C   3,C   2,C   1)    -44.7445         0.010219   
     62. D(O   6,C   4,C   3,C   2)    114.2927         0.011856   
     63. D(O   5,C   4,C   3,H  14)    175.2710         0.011856   
     64. D(O   5,C   4,C   3,H  13)     59.2595         0.011856   
     65. D(O   6,C   4,C   3,H  13)   -118.2232         0.011856   
     66. D(O   5,C   4,C   3,C   2)    -68.2246         0.011856   
    -----------------------------------------------------------------

Number of atoms                         .... 16
Number of degrees of freedom            .... 66


         *************************************************************
         *                GEOMETRY OPTIMIZATION CYCLE   1            *
         *************************************************************
---------------------------------
CARTESIAN COORDINATES (ANGSTROEM)
---------------------------------
  N      0.020300    1.012700    0.725100
  C      0.721200    1.612400   -0.406400
  C     -0.137700    1.787000   -1.678100
  C     -0.629900    0.516700   -2.401800
  C     -1.883900   -0.110200   -1.836600
  O     -1.901900   -0.699000   -0.629900
  O     -2.902100   -0.124800   -2.510500
  H      0.600300    1.144900    1.585200
  H     -0.908600    1.470000    0.871800
  H      1.055700    2.631200   -0.106700
  H      1.632600    1.017500   -0.638400
  H      0.542400    2.300600   -2.393900
  H     -0.992900    2.473600   -1.495300
  H      0.189800   -0.227300   -2.491900
  H     -0.892300    0.840900   -3.434200
  H     -0.069300   -0.014900    0.583800

----------------------------
CARTESIAN COORDINATES (A.U.)
----------------------------
  NO LB      ZA    FRAG     MASS         X           Y           Z
   0 N     7.0000    0    14.007    0.038361    1.913726    1.370240
   1 C     6.0000    0    12.011    1.362870    3.046994   -0.767985
   2 C     6.0000    0    12.011   -0.260215    3.376941   -3.171149
   3 C     6.0000    0    12.011   -1.190338    0.976421   -4.538744
   4 C     6.0000    0    12.011   -3.560055   -0.208248   -3.470671
   5 O     8.0000    0    15.999   -3.594070   -1.320919   -1.190338
   6 O     8.0000    0    15.999   -5.484174   -0.235838   -4.744157
   7 H     1.0000    0     1.008    1.134403    2.163547    2.995594
   8 H     1.0000    0     1.008   -1.717005    2.777897    1.647463
   9 H     1.0000    0     1.008    1.994984    4.972247   -0.201634
  10 H     1.0000    0     1.008    3.085167    1.922796   -1.206401
  11 H     1.0000    0     1.008    1.024987    4.347504   -4.523815
  12 H     1.0000    0     1.008   -1.876309    4.674427   -2.825707
  13 H     1.0000    0     1.008    0.358670   -0.429535   -4.709009
  14 H     1.0000    0     1.008   -1.686203    1.589071   -6.489697
  15 H     1.0000    0     1.008   -0.130958   -0.028157    1.103222

--------------------------------
INTERNAL COORDINATES (ANGSTROEM)
--------------------------------
 N      0   0   0     0.000000000000     0.00000000     0.00000000
 C      1   0   0     1.459860661159     0.00000000     0.00000000
 C      2   1   0     1.544478960685   114.68484672     0.00000000
 C      3   2   1     1.542616160942   118.07496824   293.86804111
 C      4   3   2     1.511611937635   115.51777587    83.06403325
 O      5   4   3     1.342808374266   121.93627144   291.77537226
 O      5   4   3     1.221100163787   119.36304455   114.29266070
 H      1   2   3     1.045776673100   108.61779567   193.29316557
 H      1   2   3     1.045705211807   110.82865595   312.74561423
 H      2   1   3     1.113401895094   108.14961876   118.75482061
 H      2   1   3     1.112825219880   109.58436137   235.55361029
 H      3   2   1     1.112964783809   103.99889111   176.98604956
 H      3   2   1     1.111846410256   111.23417048    62.25331908
 H      4   3   2     1.110658408333   110.74422281   315.25554600
 H      4   3   2     1.113467179579   105.68864825   199.61972706
 H      1   2   3     1.041131888859   109.97322204    77.09771143

---------------------------
INTERNAL COORDINATES (A.U.)
---------------------------
 N      0   0   0     0.000000000000     0.00000000     0.00000000
 C      1   0   0     2.758736843276     0.00000000     0.00000000
 C      2   1   0     2.918642255299   114.68484672     0.00000000
 C      3   2   1     2.915122073942   118.07496824   293.86804111
 C      4   3   2     2.856532582896   115.51777587    83.06403325
 O      5   4   3     2.537540077700   121.93627144   291.77537226
 O      5   4   3     2.307544891643   119.36304455   114.29266070
 H      1   2   3     1.976231509402   108.61779567   193.29316557
 H      1   2   3     1.976096467129   110.82865595   312.74561423
 H      2   1   3     2.104024658718   108.14961876   118.75482061
 H      2   1   3     2.102934900493   109.58436137   235.55361029
 H      3   2   1     2.103198638099   103.99889111   176.98604956
 H      3   2   1     2.101085218368   111.23417048    62.25331908
 H      4   3   2     2.098840220086   110.74422281   315.25554600
 H      4   3   2     2.104148028514   105.68864825   199.61972706
 H      1   2   3     1.967454139236   109.97322204    77.09771143

---------------------
BASIS SET INFORMATION
---------------------
There are 4 groups of distinct atoms

 Group   1 Type N   : 11s6p2d1f contracted to 5s3p2d1f pattern {62111/411/11/1}
 Group   2 Type C   : 11s6p2d1f contracted to 5s3p2d1f pattern {62111/411/11/1}
 Group   3 Type O   : 11s6p2d1f contracted to 5s3p2d1f pattern {62111/411/11/1}
 Group   4 Type H   : 5s1p contracted to 3s1p pattern {311/1}

Atom   0N    basis set group =>   1
Atom   1C    basis set group =>   2
Atom   2C    basis set group =>   2
Atom   3C    basis set group =>   2
Atom   4C    basis set group =>   2
Atom   5O    basis set group =>   3
Atom   6O    basis set group =>   3
Atom   7H    basis set group =>   4
Atom   8H    basis set group =>   4
Atom   9H    basis set group =>   4
Atom  10H    basis set group =>   4
Atom  11H    basis set group =>   4
Atom  12H    basis set group =>   4
Atom  13H    basis set group =>   4
Atom  14H    basis set group =>   4
Atom  15H    basis set group =>   4
---------------------------------
AUXILIARY/J BASIS SET INFORMATION
---------------------------------
There are 4 groups of distinct atoms

 Group   1 Type N   : 12s5p4d2f1g contracted to 6s4p3d1f1g pattern {711111/2111/211/2/1}
 Group   2 Type C   : 12s5p4d2f1g contracted to 6s4p3d1f1g pattern {711111/2111/211/2/1}
 Group   3 Type O   : 12s5p4d2f1g contracted to 6s4p3d1f1g pattern {711111/2111/211/2/1}
 Group   4 Type H   : 5s2p1d contracted to 3s1p1d pattern {311/2/1}

Atom   0N    basis set group =>   1
Atom   1C    basis set group =>   2
Atom   2C    basis set group =>   2
Atom   3C    basis set group =>   2
Atom   4C    basis set group =>   2
Atom   5O    basis set group =>   3
Atom   6O    basis set group =>   3
Atom   7H    basis set group =>   4
Atom   8H    basis set group =>   4
Atom   9H    basis set group =>   4
Atom  10H    basis set group =>   4
Atom  11H    basis set group =>   4
Atom  12H    basis set group =>   4
Atom  13H    basis set group =>   4
Atom  14H    basis set group =>   4
Atom  15H    basis set group =>   4


           ************************************************************
           *        Program running with 30 parallel MPI-processes    *
           *              working on a common directory               *
           ************************************************************
------------------------------------------------------------------------------
                             ORCA STARTUP CALCULATIONS
                           -- RI-GTO INTEGRALS CHOSEN --
------------------------------------------------------------------------------
------------------------------------------------------------------------------
                   ___                                                        
                  /   \      - P O W E R E D   B Y -                         
                 /     \                                                     
                 |  |  |   _    _      __       _____    __    __             
                 |  |  |  | |  | |    /  \     |  _  \  |  |  /  |          
                  \  \/   | |  | |   /    \    | | | |  |  | /  /          
                 / \  \   | |__| |  /  /\  \   | |_| |  |  |/  /          
                |  |  |   |  __  | /  /__\  \  |    /   |      \           
                |  |  |   | |  | | |   __   |  |    \   |  |\   \          
                \     /   | |  | | |  |  |  |  | |\  \  |  | \   \       
                 \___/    |_|  |_| |__|  |__|  |_| \__\ |__|  \__/        
                                                                              
                      - O R C A' S   B I G   F R I E N D -                    
                                      &                                       
                       - I N T E G R A L  F E E D E R -                       
                                                                              
 v1 FN, 2020, v2 2021, v3 2022-2024                                           
------------------------------------------------------------------------------


----------------------
SHARK INTEGRAL PACKAGE
----------------------

Number of atoms                             ...     16
Number of basis functions                   ...    271
Number of shells                            ...    113
Maximum angular momentum                    ...      3
Integral batch strategy                     ... SHARK/LIBINT Hybrid
RI-J (if used) integral strategy            ... SPLIT-RIJ (Revised 2003 algorithm where possible)
Printlevel                                  ...      1
Contraction scheme used                     ... SEGMENTED contraction
Prescreening option                         ... SCHWARTZ
   Thresh                                   ... 2.500e-11
   Tcut                                     ... 2.500e-12
   Tpresel                                  ... 2.500e-12 
Coulomb Range Separation                    ... NOT USED
Exchange Range Separation                   ... NOT USED
Multipole approximations                    ... NOT USED
Finite Nucleus Model                        ... NOT USED
CABS basis                                  ... NOT available
Auxiliary Coulomb fitting basis             ... AVAILABLE
   # of basis functions in Aux-J            ...    442
   # of shells in Aux-J                     ...    150
   Maximum angular momentum in Aux-J        ...      4
Auxiliary J/K fitting basis                 ... NOT available
Auxiliary Correlation fitting basis         ... NOT available
Auxiliary 'external' fitting basis          ... NOT available

Checking pre-screening integrals            ... done (  0.0 sec) Dimension = 113
Check shell pair data                       ... done (  0.0 sec)
Shell pair information
Shell pair cut-off parameter TPreSel        ...   2.5e-12
Total number of shell pairs                 ...      6441
Shell pairs after pre-screening             ...      5955
Total number of primitive shell pairs       ...     19096
Primitive shell pairs kept                  ...     13410
          la=0 lb=0:   1759 shell pairs
          la=1 lb=0:   1733 shell pairs
          la=1 lb=1:    451 shell pairs
          la=2 lb=0:    794 shell pairs
          la=2 lb=1:    401 shell pairs
          la=2 lb=2:    102 shell pairs
          la=3 lb=0:    395 shell pairs
          la=3 lb=1:    200 shell pairs
          la=3 lb=2:     94 shell pairs
          la=3 lb=3:     26 shell pairs

Calculating one electron integrals          ... done (  0.0 sec)
Calculating RI/J V-Matrix + Cholesky decomp.... done (  0.0 sec)
Calculating Nuclear repulsion               ... done (  0.0 sec) ENN=    315.138445737711 Eh

Diagonalization of the overlap matrix:
Smallest eigenvalue                        ... 2.683e-04
Time for diagonalization                   ...    0.006 sec
Threshold for overlap eigenvalues          ... 1.000e-07
Number of eigenvalues below threshold      ... 0
Time for construction of square roots      ...    0.004 sec
Total time needed                          ...    0.014 sec

-------------------
DFT GRID GENERATION
-------------------

General Integration Accuracy     IntAcc      ... 4.388
Radial Grid Type                 RadialGrid  ... OptM3 with GC (2021)
Angular Grid (max. ang.)         AngularGrid ... 4 (Lebedev-302)
Angular grid pruning method      GridPruning ... 4 (adaptive)
Weight generation scheme         WeightScheme... mBecke (2022)
Basis function cutoff            BFCut       ... 1.0000e-11
Integration weight cutoff        WCut        ... 1.0000e-14
Partially contracted basis set               ... off
Rotationally invariant grid construction     ... off
Angular grids for H and He will be reduced by one unit

Total number of grid points                  ...    71182
Total number of batches                      ...     1118
Average number of points per batch           ...       63
Average number of grid points per atom       ...     4449

--------------------
COSX GRID GENERATION
--------------------

GRIDX 1
-------
General Integration Accuracy     IntAcc      ... 3.816
Radial Grid Type                 RadialGrid  ... OptM3 with GC (2021)
Angular Grid (max. ang.)         AngularGrid ... 1 (Lebedev-50)
Angular grid pruning method      GridPruning ... 4 (adaptive)
Weight generation scheme         WeightScheme... mBecke (2022)
Basis function cutoff            BFCut       ... 1.0000e-11
Integration weight cutoff        WCut        ... 1.0000e-14
Partially contracted basis set               ... on
Rotationally invariant grid construction     ... off
Angular grids for H and He will be reduced by one unit

Total number of grid points                  ...     9112
Total number of batches                      ...       83
Average number of points per batch           ...      109
Average number of grid points per atom       ...      570
UseSFitting                                  ... on

GRIDX 2
-------
General Integration Accuracy     IntAcc      ... 4.020
Radial Grid Type                 RadialGrid  ... OptM3 with GC (2021)
Angular Grid (max. ang.)         AngularGrid ... 2 (Lebedev-110)
Angular grid pruning method      GridPruning ... 4 (adaptive)
Weight generation scheme         WeightScheme... mBecke (2022)
Basis function cutoff            BFCut       ... 1.0000e-11
Integration weight cutoff        WCut        ... 1.0000e-14
Partially contracted basis set               ... on
Rotationally invariant grid construction     ... off
Angular grids for H and He will be reduced by one unit

Total number of grid points                  ...    19478
Total number of batches                      ...      162
Average number of points per batch           ...      120
Average number of grid points per atom       ...     1217
UseSFitting                                  ... on

GRIDX 3
-------
General Integration Accuracy     IntAcc      ... 4.338
Radial Grid Type                 RadialGrid  ... OptM3 with GC (2021)
Angular Grid (max. ang.)         AngularGrid ... 3 (Lebedev-194)
Angular grid pruning method      GridPruning ... 4 (adaptive)
Weight generation scheme         WeightScheme... mBecke (2022)
Basis function cutoff            BFCut       ... 1.0000e-11
Integration weight cutoff        WCut        ... 1.0000e-14
Partially contracted basis set               ... on
Rotationally invariant grid construction     ... off
Angular grids for H and He will be reduced by one unit

Total number of grid points                  ...    42721
Total number of batches                      ...      341
Average number of points per batch           ...      125
Average number of grid points per atom       ...     2670
UseSFitting                                  ... on
Initializing property integral containers    ... done (  0.0 sec)

SHARK setup successfully completed in   0.6 seconds

Maximum memory used throughout the entire STARTUP-calculation: 23.8 MB


           ************************************************************
           *        Program running with 30 parallel MPI-processes    *
           *              working on a common directory               *
           ************************************************************
-------------------------------------------------------------------------------
                                 ORCA GUESS
                   Start orbitals & Density for SCF / CASSCF
-------------------------------------------------------------------------------

------------
SCF SETTINGS
------------
Hamiltonian:
 Density Functional     Method          .... DFT(GTOs)
 Exchange Functional    Exchange        .... B88
   X-Alpha parameter    XAlpha          ....  0.666667
   Becke's b parameter  XBeta           ....  0.004200
 Correlation Functional Correlation     .... LYP
 LDA part of GGA corr.  LDAOpt          .... VWN-5
 Gradients option       PostSCFGGA      .... off
 Hybrid DFT is turned on
   Fraction HF Exchange ScalHFX         ....  0.200000
   Scaling of DF-GGA-X  ScalDFX         ....  0.720000
   Scaling of DF-GGA-C  ScalDFC         ....  0.810000
   Scaling of DF-LDA-C  ScalLDAC        ....  1.000000
   Perturbative correction              ....  0.000000
   NL short-range parameter             ....  4.800000
 RI-approximation to the Coulomb term is turned on
   Number of AuxJ basis functions       .... 442
   RIJ-COSX (HFX calculated with COS-X)).... on


General Settings:
 Integral files         IntName         .... 06_Aminobutyric-acid_zwitterion
 Hartree-Fock type      HFTyp           .... RHF
 Total Charge           Charge          ....    0
 Multiplicity           Mult            ....    1
 Number of Electrons    NEL             ....   56
 Basis Dimension        Dim             ....  271
 Nuclear Repulsion      ENuc            ....    315.1384457377 Eh

Convergence Acceleration:
 AO-DIIS                CNVDIIS         .... on
   Start iteration      DIISMaxIt       ....    12
   Startup error        DIISStart       ....  0.200000
   # of expansion vecs  DIISMaxEq       ....     5
   Bias factor          DIISBfac        ....   1.050
   Max. coefficient     DIISMaxC        ....  10.000
 MO-DIIS                CNVKDIIS        .... off
 Trust-Rad. Augm. Hess. CNVTRAH         .... auto
   Auto Start mean grad. ratio tolernc. ....  1.125000
   Auto Start start iteration           ....    50
   Auto Start num. interpolation iter.  ....    10
   Max. Number of Micro iterations      ....    24
   Max. Number of Macro iterations      .... Maxiter - #DIIS iter
   Number of Davidson start vectors     ....     2
   Converg. threshold    (grad. norm)   ....   1.000e-05
   Grad. Scal. Fac. for Micro threshold ....   0.100
   Minimum threshold for Micro iter.    ....   1.000e-02
   NR start threshold (gradient norm)   ....   1.000e-04
   Initial trust radius                 ....   0.400
   Minimum AH scaling param. (alpha)    ....   1.000
   Maximum AH scaling param. (alpha)    .... 1000.000
   Quad. conv. algorithm                .... NR
   White noise on init. David. guess    .... on
   Maximum white noise                  ....   0.010
   Pseudo random numbers                .... off
   Inactive MOs                         .... canonical
   Orbital update algorithm             .... Taylor
   Preconditioner                       .... Diag
   Full preconditioner red. dimension   ....   250
 SOSCF                  CNVSOSCF        .... on
   Start iteration      SOSCFMaxIt      ....   150
   Startup grad/error   SOSCFStart      ....  0.003300
   Hessian update       SOSCFHessUp     .... L-BFGS
 Level Shifting         CNVShift        .... on
   Level shift para.    LevelShift      ....    0.2500
   Turn off err/grad.   ShiftErr        ....    0.0010
 Zerner damping         CNVZerner       .... off
 Static damping         CNVDamp         .... on
   Fraction old density DampFac         ....    0.7000
   Max. Damping (<1)    DampMax         ....    0.9800
   Min. Damping (>=0)   DampMin         ....    0.0000
   Turn off err/grad.   DampErr         ....    0.1000

SCF Procedure:
 Maximum # iterations   MaxIter         ....   125
 SCF integral mode      SCFMode         .... Direct
   Integral package                     .... SHARK and LIBINT hybrid scheme
 Reset frequency        DirectResetFreq ....    20
 Integral Threshold     Thresh          ....  2.500e-11 Eh
 Primitive CutOff       TCut            ....  2.500e-12 Eh

Convergence Tolerance:
 Convergence Check Mode ConvCheckMode   .... Total+1el-Energy
 Convergence forced     ConvForced      .... 0
 Energy Change          TolE            ....  1.000e-08 Eh
 1-El. energy change                    ....  1.000e-05 Eh
 Orbital Gradient       TolG            ....  1.000e-05
 Orbital Rotation angle TolX            ....  1.000e-05
 DIIS Error             TolErr          ....  5.000e-07

------------------------------
INITIAL GUESS: MODEL POTENTIAL
------------------------------
Loading Hartree-Fock densities                     ... done
Calculating cut-offs                               ... done
Initializing the effective Hamiltonian             ... done
Setting up the integral package (SHARK)            ... done
Starting the Coulomb interaction                   ... done (   0.0 sec)
Making the grid                                    ... done (   0.1 sec)
Mapping shells                                     ... done
Starting the XC term evaluation                    ... done (   0.0 sec)
  promolecular density results
     # of electrons  =     55.997473914
     EX              =    -46.169413530
     EC              =     -1.889448458
     EX+EC           =    -48.058861988
Transforming the Hamiltonian                       ... done (   0.0 sec)
Diagonalizing the Hamiltonian                      ... done (   0.0 sec)
Back transforming the eigenvectors                 ... done (   0.0 sec)
Now organizing SCF variables                       ... done
                      ------------------
                      INITIAL GUESS DONE (   0.1 sec)
                      ------------------
             **** ENERGY FILE WAS UPDATED (06_Aminobutyric-acid_zwitterion.en.tmp) ****
Finished Guess after   0.7 sec
Maximum memory used throughout the entire GUESS-calculation: 15.7 MB


           ************************************************************
           *        Program running with 30 parallel MPI-processes    *
           *              working on a common directory               *
           ************************************************************

-------------------------------------------------------------------------------------------
                                      ORCA LEAN-SCF
                              memory conserving SCF solver
-------------------------------------------------------------------------------------------

--------------------
CPCM SOLVATION MODEL
--------------------
CPCM parameters:
  Epsilon                                         ...      80.1510
  Refrac                                          ...       1.3328
  Rsolv                                           ...       1.3000
  Surface type                                    ... GAUSSIAN VDW
  Discretization scheme                           ... Constant charge density
    Threshold for H atoms                         ...       5.0000 (charges/Ang^2)
    Threshold for non-H atoms                     ...       5.0000 (charges/Ang^2)
  Epsilon function type                           ...         CPCM
Solvent:                                          ... WATER
Radii:
  Scheme                                          ... Element-dependent radii
  Radius for N  used is    3.5149 Bohr (=   1.8600 Ang.)
  Radius for C  used is    3.8550 Bohr (=   2.0400 Ang.)
  Radius for O  used is    3.4469 Bohr (=   1.8240 Ang.)
  Radius for H  used is    2.4944 Bohr (=   1.3200 Ang.)
Calculating surface                               ...        done! (  0.0s)
Cavity surface points                             ...         1373
Cavity Volume                                     ...     903.3837
Cavity Surface-area                               ...     536.8552
Calculating surface distance matrix               ...        done! (  0.0s)
Performing Cholesky decomposition & store         ...        done! (  0.0s)
Overall time for CPCM initialization              ...                 0.1s

----------------------------------------D-I-I-S--------------------------------------------
Iteration    Energy (Eh)           Delta-E    RMSDP     MaxDP     DIISErr   Damp  Time(sec)
-------------------------------------------------------------------------------------------
               ***  Starting incremental Fock matrix formation  ***
    1    -362.6841888745149163     0.00e+00  3.73e-03  3.60e-01  3.54e-01  0.700   0.5
    2    -362.8411871981306831    -1.57e-01  3.41e-03  3.70e-01  1.41e-01  0.700   0.4
                               ***Turning on AO-DIIS***
    3    -362.8949485330132347    -5.38e-02  1.14e-03  1.10e-01  3.44e-02  0.700   0.4
    4    -362.9288834823483967    -3.39e-02  1.03e-03  4.44e-02  1.46e-02  0.000   0.4
    5    -363.0061972749075494    -7.73e-02  8.39e-04  9.91e-02  7.84e-03  0.000   0.3
                              *** Initializing SOSCF ***
---------------------------------------S-O-S-C-F--------------------------------------
Iteration    Energy (Eh)           Delta-E    RMSDP     MaxDP     MaxGrad    Time(sec)
--------------------------------------------------------------------------------------
    6    -363.0066515009672230    -4.54e-04  3.03e-04  3.58e-02  2.21e-03     0.4
               *** Restarting incremental Fock matrix formation ***
    7    -363.0066793108006777    -2.78e-05  1.90e-04  2.14e-02  3.77e-04     0.4
    8    -363.0066766980205557     2.61e-06  4.66e-05  3.95e-03  7.54e-04     0.4
    9    -363.0066857266964462    -9.03e-06  5.61e-05  6.63e-03  1.49e-04     0.4
   10    -363.0066856397204447     8.70e-08  1.31e-05  1.47e-03  8.89e-05     0.4
   11    -363.0066862967942143    -6.57e-07  9.61e-06  1.12e-03  1.76e-05     0.4
   12    -363.0066862787152786     1.81e-08  4.37e-06  5.02e-04  3.03e-05     0.3
   13    -363.0066863060815194    -2.74e-08  8.78e-07  1.06e-04  1.45e-06     0.3
                  *** Gradient check signals convergence ***

               *****************************************************
               *                     SUCCESS                       *
               *           SCF CONVERGED AFTER  13 CYCLES          *
               *****************************************************

Recomputing exchange energy using gridx3       ... done (    0.450 sec)
Old exchange energy                            :     -9.387602269 Eh
New exchange energy                            :     -9.387591839 Eh
Exchange energy change after final integration :      0.000010430 Eh
Total energy after final integration           :   -363.006675876 Eh
             **** ENERGY FILE WAS UPDATED (06_Aminobutyric-acid_zwitterion.en.tmp) ****

----------------
TOTAL SCF ENERGY
----------------

Total Energy       :       -363.00667587586656 Eh           -9877.91383 eV

Components:
Nuclear Repulsion  :        315.13844573771132 Eh            8575.35307 eV
Electronic Energy  :       -678.05557352419760 Eh          -18450.83018 eV
One Electron Energy:      -1119.28027349137187 Eh          -30457.16465 eV
Two Electron Energy:        441.22469996717433 Eh           12006.33448 eV
CPCM Dielectric    :         -0.08955851959521 Eh              -2.43701 eV

Virial components:
Potential Energy   :       -724.08899490848557 Eh          -19703.46326 eV
Kinetic Energy     :        361.08231903261895 Eh            9825.54942 eV
Virial Ratio       :          2.00532941310559

DFT components:
N(Alpha)           :       27.999955294629 electrons
N(Beta)            :       27.999955294629 electrons
N(Total)           :       55.999910589259 electrons
E(X)               :      -37.336836551777 Eh       
E(C)               :       -2.235108335515 Eh       
E(XC)              :      -39.571944887291 Eh       

CPCM Solvation Model Properties:
Surface-charge          :         -0.02222171268608
Corrected charge        :          0.00000000000000
Outlying charge corr.   :          0.00003869490436 Eh               0.00105 eV
Free-energy (cav+disp)  :  This term is not implemented in the current solvation scheme

---------------
SCF CONVERGENCE
---------------

  Last Energy change         ...    2.7366e-08  Tolerance :   1.0000e-08
  Last MAX-Density change    ...    1.0564e-04  Tolerance :   1.0000e-07
  Last RMS-Density change    ...    8.7765e-07  Tolerance :   5.0000e-09
  Last DIIS Error            ...    2.2055e-03  Tolerance :   5.0000e-07
  Last Orbital Gradient      ...    1.4518e-06  Tolerance :   1.0000e-05
  Last Orbital Rotation      ...    5.0949e-06  Tolerance :   1.0000e-05


----------------
ORBITAL ENERGIES
----------------

  NO   OCC          E(Eh)            E(eV) 
   0   2.0000     -19.060509      -518.6628 
   1   2.0000     -19.045963      -518.2670 
   2   2.0000     -14.422638      -392.4599 
   3   2.0000     -10.245611      -278.7972 
   4   2.0000     -10.226387      -278.2741 
   5   2.0000     -10.183640      -277.1109 
   6   2.0000     -10.166881      -276.6549 
   7   2.0000      -1.018064       -27.7029 
   8   2.0000      -0.989079       -26.9142 
   9   2.0000      -0.897849       -24.4317 
  10   2.0000      -0.786445       -21.4003 
  11   2.0000      -0.704187       -19.1619 
  12   2.0000      -0.615383       -16.7454 
  13   2.0000      -0.573128       -15.5956 
  14   2.0000      -0.559752       -15.2316 
  15   2.0000      -0.498302       -13.5595 
  16   2.0000      -0.490722       -13.3532 
  17   2.0000      -0.444437       -12.0937 
  18   2.0000      -0.429613       -11.6904 
  19   2.0000      -0.420530       -11.4432 
  20   2.0000      -0.390535       -10.6270 
  21   2.0000      -0.380681       -10.3588 
  22   2.0000      -0.365543        -9.9469 
  23   2.0000      -0.340696        -9.2708 
  24   2.0000      -0.336354        -9.1527 
  25   2.0000      -0.243355        -6.6220 
  26   2.0000      -0.239987        -6.5304 
  27   2.0000      -0.216242        -5.8842 
  28   0.0000       0.016539         0.4500 
  29   0.0000       0.037271         1.0142 
  30   0.0000       0.063974         1.7408 
  31   0.0000       0.066773         1.8170 
  32   0.0000       0.072854         1.9825 
  33   0.0000       0.088768         2.4155 
  34   0.0000       0.104170         2.8346 
  35   0.0000       0.110361         3.0031 
  36   0.0000       0.122629         3.3369 
  37   0.0000       0.133133         3.6227 
  38   0.0000       0.142867         3.8876 
*Only the first 10 virtual orbitals were printed.

                    ********************************
                    * MULLIKEN POPULATION ANALYSIS *
                    ********************************

-----------------------
MULLIKEN ATOMIC CHARGES
-----------------------
   0 N :   -0.234922
   1 C :   -0.175553
   2 C :   -0.213903
   3 C :   -0.137067
   4 C :    0.198509
   5 O :   -0.682905
   6 O :   -0.490808
   7 H :    0.328163
   8 H :    0.324476
   9 H :    0.158279
  10 H :    0.164595
  11 H :    0.125821
  12 H :    0.132739
  13 H :    0.107290
  14 H :    0.084485
  15 H :    0.310801
Sum of atomic charges:    0.0000000

--------------------------------
MULLIKEN REDUCED ORBITAL CHARGES
--------------------------------
  0 N s       :     3.435270  s :     3.435270
      pz      :     1.229653  p :     3.751802
      px      :     1.251038
      py      :     1.271111
      dz2     :     0.013513  d :     0.045548
      dxz     :     0.010492
      dyz     :     0.004989
      dx2y2   :     0.010657
      dxy     :     0.005896
      f0      :     0.000252  f :     0.002302
      f+1     :     0.000630
      f-1     :     0.000296
      f+2     :     0.000359
      f-2     :     0.000160
      f+3     :     0.000056
      f-3     :     0.000549

  1 C s       :     3.268144  s :     3.268144
      pz      :     0.814326  p :     2.796122
      px      :     0.952257
      py      :     1.029538
      dz2     :     0.031121  d :     0.103065
      dxz     :     0.018982
      dyz     :     0.021884
      dx2y2   :     0.012672
      dxy     :     0.018405
      f0      :     0.001613  f :     0.008223
      f+1     :     0.001651
      f-1     :     0.000954
      f+2     :     0.001411
      f-2     :     0.001599
      f+3     :     0.000390
      f-3     :     0.000605

  2 C s       :     3.241939  s :     3.241939
      pz      :     0.925116  p :     2.874846
      px      :     0.993269
      py      :     0.956462
      dz2     :     0.020384  d :     0.091377
      dxz     :     0.017158
      dyz     :     0.020011
      dx2y2   :     0.008905
      dxy     :     0.024918
      f0      :     0.000735  f :     0.005741
      f+1     :     0.000870
      f-1     :     0.000972
      f+2     :     0.000636
      f-2     :     0.001286
      f+3     :     0.000368
      f-3     :     0.000873

  3 C s       :     3.176506  s :     3.176506
      pz      :     0.984519  p :     2.877594
      px      :     0.972856
      py      :     0.920219
      dz2     :     0.018238  d :     0.077392
      dxz     :     0.009843
      dyz     :     0.011783
      dx2y2   :     0.012470
      dxy     :     0.025057
      f0      :     0.000523  f :     0.005575
      f+1     :     0.000680
      f-1     :     0.000966
      f+2     :     0.000541
      f-2     :     0.000902
      f+3     :     0.000955
      f-3     :     0.001007

  4 C s       :     3.053747  s :     3.053747
      pz      :     0.770985  p :     2.513249
      px      :     0.931998
      py      :     0.810266
      dz2     :     0.056462  d :     0.210066
      dxz     :     0.050668
      dyz     :     0.041209
      dx2y2   :     0.026902
      dxy     :     0.034825
      f0      :     0.003344  f :     0.024429
      f+1     :     0.007562
      f-1     :     0.001713
      f+2     :     0.002920
      f-2     :     0.004260
      f+3     :     0.002214
      f-3     :     0.002417

  5 O s       :     3.821871  s :     3.821871
      pz      :     1.418763  p :     4.836825
      px      :     1.824656
      py      :     1.593407
      dz2     :     0.008394  d :     0.022848
      dxz     :     0.004198
      dyz     :     0.007526
      dx2y2   :     0.001663
      dxy     :     0.001068
      f0      :     0.000389  f :     0.001360
      f+1     :     0.000212
      f-1     :     0.000415
      f+2     :     0.000179
      f-2     :     0.000124
      f+3     :     0.000016
      f-3     :     0.000024

  6 O s       :     3.751522  s :     3.751522
      pz      :     1.641399  p :     4.709851
      px      :     1.485484
      py      :     1.582969
      dz2     :     0.005285  d :     0.027633
      dxz     :     0.007759
      dyz     :     0.003001
      dx2y2   :     0.005243
      dxy     :     0.006345
      f0      :     0.000168  f :     0.001802
      f+1     :     0.000513
      f-1     :     0.000025
      f+2     :     0.000322
      f-2     :     0.000338
      f+3     :     0.000177
      f-3     :     0.000259

  7 H s       :     0.640490  s :     0.640490
      pz      :     0.015805  p :     0.031347
      px      :     0.009668
      py      :     0.005874

  8 H s       :     0.643495  s :     0.643495
      pz      :     0.005986  p :     0.032029
      px      :     0.017876
      py      :     0.008167

  9 H s       :     0.820873  s :     0.820873
      pz      :     0.003826  p :     0.020848
      px      :     0.005039
      py      :     0.011983

 10 H s       :     0.814706  s :     0.814706
      pz      :     0.003850  p :     0.020700
      px      :     0.010858
      py      :     0.005992

 11 H s       :     0.852926  s :     0.852926
      pz      :     0.007838  p :     0.021253
      px      :     0.007005
      py      :     0.006410

 12 H s       :     0.846458  s :     0.846458
      pz      :     0.003902  p :     0.020803
      px      :     0.009069
      py      :     0.007832

 13 H s       :     0.871651  s :     0.871651
      pz      :     0.004241  p :     0.021059
      px      :     0.008803
      py      :     0.008016

 14 H s       :     0.894084  s :     0.894084
      pz      :     0.012349  p :     0.021431
      px      :     0.004373
      py      :     0.004709

 15 H s       :     0.655137  s :     0.655137
      pz      :     0.006328  p :     0.034062
      px      :     0.006087
      py      :     0.021646



                     *******************************
                     * LOEWDIN POPULATION ANALYSIS *
                     *******************************

----------------------
LOEWDIN ATOMIC CHARGES
----------------------
   0 N :    0.170031
   1 C :   -0.271608
   2 C :   -0.255330
   3 C :   -0.249100
   4 C :   -0.642525
   5 O :   -0.273138
   6 O :   -0.066670
   7 H :    0.234510
   8 H :    0.232517
   9 H :    0.153514
  10 H :    0.152616
  11 H :    0.157182
  12 H :    0.146640
  13 H :    0.147124
  14 H :    0.148513
  15 H :    0.215724

-------------------------------
LOEWDIN REDUCED ORBITAL CHARGES
-------------------------------
  0 N s       :     2.985510  s :     2.985510
      pz      :     1.220158  p :     3.673578
      px      :     1.224081
      py      :     1.229339
      dz2     :     0.045966  d :     0.160521
      dxz     :     0.037932
      dyz     :     0.019371
      dx2y2   :     0.036440
      dxy     :     0.020813
      f0      :     0.001412  f :     0.010360
      f+1     :     0.002023
      f-1     :     0.001718
      f+2     :     0.001795
      f-2     :     0.001408
      f+3     :     0.000405
      f-3     :     0.001597

  1 C s       :     2.804064  s :     2.804064
      pz      :     0.942513  p :     2.980139
      px      :     1.009583
      py      :     1.028043
      dz2     :     0.120303  d :     0.436465
      dxz     :     0.099837
      dyz     :     0.086529
      dx2y2   :     0.053252
      dxy     :     0.076544
      f0      :     0.010714  f :     0.050940
      f+1     :     0.008368
      f-1     :     0.007699
      f+2     :     0.008985
      f-2     :     0.008316
      f+3     :     0.002905
      f-3     :     0.003953

  2 C s       :     2.794964  s :     2.794964
      pz      :     1.006048  p :     3.043967
      px      :     1.019537
      py      :     1.018382
      dz2     :     0.072744  d :     0.380331
      dxz     :     0.085215
      dyz     :     0.082002
      dx2y2   :     0.041366
      dxy     :     0.099005
      f0      :     0.005182  f :     0.036068
      f+1     :     0.004658
      f-1     :     0.006772
      f+2     :     0.005179
      f-2     :     0.006003
      f+3     :     0.002647
      f-3     :     0.005627

  3 C s       :     2.796818  s :     2.796818
      pz      :     1.015882  p :     3.058377
      px      :     1.025650
      py      :     1.016845
      dz2     :     0.087139  d :     0.357517
      dxz     :     0.046958
      dyz     :     0.056442
      dx2y2   :     0.058713
      dxy     :     0.108266
      f0      :     0.003315  f :     0.036387
      f+1     :     0.004535
      f-1     :     0.005619
      f+2     :     0.006088
      f-2     :     0.004487
      f+3     :     0.005819
      f-3     :     0.006524

  4 C s       :     2.787964  s :     2.787964
      pz      :     0.924214  p :     2.730295
      px      :     1.009702
      py      :     0.796379
      dz2     :     0.256415  d :     0.967186
      dxz     :     0.265047
      dyz     :     0.164380
      dx2y2   :     0.131781
      dxy     :     0.149563
      f0      :     0.019506  f :     0.157080
      f+1     :     0.049468
      f-1     :     0.014190
      f+2     :     0.017854
      f-2     :     0.026290
      f+3     :     0.014376
      f-3     :     0.015395

  5 O s       :     3.494974  s :     3.494974
      pz      :     1.474966  p :     4.725466
      px      :     1.718427
      py      :     1.532073
      dz2     :     0.017491  d :     0.048873
      dxz     :     0.010382
      dyz     :     0.016063
      dx2y2   :     0.002427
      dxy     :     0.002510
      f0      :     0.000929  f :     0.003825
      f+1     :     0.000668
      f-1     :     0.001310
      f+2     :     0.000404
      f-2     :     0.000441
      f+3     :     0.000040
      f-3     :     0.000033

  6 O s       :     3.406790  s :     3.406790
      pz      :     1.587368  p :     4.588324
      px      :     1.531255
      py      :     1.469701
      dz2     :     0.012872  d :     0.065534
      dxz     :     0.022157
      dyz     :     0.005223
      dx2y2   :     0.014905
      dxy     :     0.010377
      f0      :     0.000638  f :     0.006023
      f+1     :     0.001702
      f-1     :     0.000053
      f+2     :     0.001484
      f-2     :     0.000793
      f+3     :     0.000744
      f-3     :     0.000609

  7 H s       :     0.671516  s :     0.671516
      pz      :     0.045669  p :     0.093974
      px      :     0.030922
      py      :     0.017383

  8 H s       :     0.673184  s :     0.673184
      pz      :     0.016102  p :     0.094299
      px      :     0.053020
      py      :     0.025177

  9 H s       :     0.789402  s :     0.789402
      pz      :     0.011099  p :     0.057083
      px      :     0.013443
      py      :     0.032542

 10 H s       :     0.789897  s :     0.789897
      pz      :     0.011248  p :     0.057487
      px      :     0.028138
      py      :     0.018101

 11 H s       :     0.786867  s :     0.786867
      pz      :     0.020157  p :     0.055950
      px      :     0.019718
      py      :     0.016075

 12 H s       :     0.796539  s :     0.796539
      pz      :     0.011924  p :     0.056820
      px      :     0.024920
      py      :     0.019976

 13 H s       :     0.795811  s :     0.795811
      pz      :     0.012043  p :     0.057065
      px      :     0.023726
      py      :     0.021295

 14 H s       :     0.796084  s :     0.796084
      pz      :     0.029560  p :     0.055403
      px      :     0.012399
      py      :     0.013444

 15 H s       :     0.682091  s :     0.682091
      pz      :     0.018554  p :     0.102185
      px      :     0.017161
      py      :     0.066471



                      *****************************
                      * MAYER POPULATION ANALYSIS *
                      *****************************

  NA   - Mulliken gross atomic population
  ZA   - Total nuclear charge
  QA   - Mulliken gross atomic charge
  VA   - Mayer's total valence
  BVA  - Mayer's bonded valence
  FA   - Mayer's free valence

  ATOM       NA         ZA         QA         VA         BVA        FA
  0 N      7.2349     7.0000    -0.2349     3.4912     3.4912    -0.0000
  1 C      6.1756     6.0000    -0.1756     3.8741     3.8741    -0.0000
  2 C      6.2139     6.0000    -0.2139     3.8735     3.8735    -0.0000
  3 C      6.1371     6.0000    -0.1371     3.5539     3.5539     0.0000
  4 C      5.8015     6.0000     0.1985     4.5959     4.5959     0.0000
  5 O      8.6829     8.0000    -0.6829     1.6982     1.6982    -0.0000
  6 O      8.4908     8.0000    -0.4908     1.9120     1.9120     0.0000
  7 H      0.6718     1.0000     0.3282     0.8866     0.8866     0.0000
  8 H      0.6755     1.0000     0.3245     0.9039     0.9039    -0.0000
  9 H      0.8417     1.0000     0.1583     0.9586     0.9586    -0.0000
 10 H      0.8354     1.0000     0.1646     0.9582     0.9582    -0.0000
 11 H      0.8742     1.0000     0.1258     0.9632     0.9632    -0.0000
 12 H      0.8673     1.0000     0.1327     0.9646     0.9646    -0.0000
 13 H      0.8927     1.0000     0.1073     0.9766     0.9766     0.0000
 14 H      0.9155     1.0000     0.0845     1.0021     1.0021     0.0000
 15 H      0.6892     1.0000     0.3108     0.9426     0.9426     0.0000

  Mayer bond orders larger than 0.100000
B(  0-N ,  1-C ) :   0.9166 B(  0-N ,  7-H ) :   0.8700 B(  0-N ,  8-H ) :   0.8667 
B(  0-N , 15-H ) :   0.8460 B(  1-C ,  2-C ) :   0.9898 B(  1-C ,  9-H ) :   0.9606 
B(  1-C , 10-H ) :   0.9593 B(  2-C ,  3-C ) :   0.9308 B(  2-C , 11-H ) :   0.9577 
B(  2-C , 12-H ) :   0.9620 B(  3-C ,  4-C ) :   0.9242 B(  3-C ,  5-O ) :  -0.1046 
B(  3-C , 13-H ) :   0.9351 B(  3-C , 14-H ) :   0.9467 B(  4-C ,  5-O ) :   1.6766 
B(  4-C ,  6-O ) :   1.9322 

-------
TIMINGS
-------

Total SCF time: 0 days 0 hours 0 min 6 sec 

Total time                  ....       6.189 sec
Sum of individual times     ....       6.098 sec  ( 98.5%)

SCF preparation             ....       0.752 sec  ( 12.2%)
Fock matrix formation       ....       4.715 sec  ( 76.2%)
  Startup                   ....       0.059 sec  (  1.2% of F)
  Split-RI-J                ....       0.393 sec  (  8.3% of F)
  Chain of spheres X        ....       2.723 sec  ( 57.8% of F)
  XC integration            ....       0.853 sec  ( 18.1% of F)
    XC Preparation          ....       0.000 sec  (  0.0% of XC)
    Basis function eval.    ....       0.130 sec  ( 15.3% of XC)
    Density eval.           ....       0.132 sec  ( 15.5% of XC)
    XC-Functional eval.     ....       0.019 sec  (  2.2% of XC)
    XC-Potential eval.      ....       0.171 sec  ( 20.0% of XC)
  CPCM terms                ....       0.553 sec  ( 11.7% of F)
Diagonalization             ....       0.000 sec  (  0.0%)
Density matrix formation    ....       0.099 sec  (  1.6%)
Total Energy calculation    ....       0.084 sec  (  1.4%)
Population analysis         ....       0.028 sec  (  0.4%)
Orbital Transformation      ....       0.046 sec  (  0.7%)
Orbital Orthonormalization  ....       0.000 sec  (  0.0%)
DIIS solution               ....       0.230 sec  (  3.7%)
SOSCF solution              ....       0.145 sec  (  2.3%)
Finished LeanSCF after   6.2 sec

Maximum memory used throughout the entire LEANSCF-calculation: 26.7 MB


-------------------------------------------------------------------------------
                          DFT DISPERSION CORRECTION                            
                                                                               
                                DFTD4 V3.4.0                                   
-------------------------------------------------------------------------------
The B3LYP functional is recognized
Active option DFTDOPT                   ...         5   

-------------------------   ----------------
Dispersion correction           -0.019122382
-------------------------   ----------------


-------------------------   --------------------
FINAL SINGLE POINT ENERGY      -363.025798257468
-------------------------   --------------------



           ************************************************************
           *        Program running with 30 parallel MPI-processes    *
           *              working on a common directory               *
           ************************************************************
------------------------------------------------------------------------------
                         ORCA SCF GRADIENT CALCULATION
------------------------------------------------------------------------------

Nuc. rep. gradient        (SHARK) ... done (  0.0 sec)
HCore & Overlap gradient  (SHARK) ... done (  0.0 sec)
Split-RIJ-J gradient      (SHARK) ... done (  0.1 sec)
COSX-gradient                     ... done (  1.4 sec)
XC gradient                       ... done (  0.2 sec)
CPCM gradient                     ... done (  0.2 sec)
Dispersion correction             ... done (  0.0 sec)

-------------------
DISPERSION GRADIENT
-------------------

   1   N   :    0.000342467    0.000180789    0.000714881
   2   C   :    0.000470994    0.000329428    0.000201049
   3   C   :    0.000258692    0.000430617   -0.000243778
   4   C   :   -0.000014783   -0.000086012   -0.000543288
   5   C   :   -0.000469836   -0.000326771   -0.000308950
   6   O   :   -0.000501285   -0.000584786    0.000139337
   7   O   :   -0.000441270   -0.000186694   -0.000221924
   8   H   :    0.000115646    0.000016630    0.000251178
   9   H   :   -0.000092202    0.000091262    0.000188493
  10   H   :    0.000067233    0.000064940    0.000063625
  11   H   :    0.000130895    0.000032024    0.000073716
  12   H   :    0.000074707    0.000116649   -0.000104102
  13   H   :   -0.000006690    0.000171588   -0.000052370
  14   H   :    0.000063668   -0.000102047   -0.000159138
  15   H   :   -0.000029517   -0.000003937   -0.000146387
  16   H   :    0.000031282   -0.000143678    0.000147658

Difference to translation invariance:
           :    0.0000000000    0.0000000000   -0.0000000000

Difference to rotation invariance:
           :    0.0000000000   -0.0000000000   -0.0000000000

Norm of the Dispersion gradient    ...    0.0018149661
RMS gradient                       ...    0.0002619678
MAX gradient                       ...    0.0007148812

------------------
CARTESIAN GRADIENT
------------------

   1   N   :   -0.003041135    0.007334875   -0.026991444
   2   C   :   -0.016358782   -0.023697000    0.029650557
   3   C   :   -0.008337798   -0.002321342    0.003280341
   4   C   :   -0.007296620   -0.007120683    0.011945219
   5   C   :    0.003520540    0.044758926   -0.071217627
   6   O   :   -0.026198266   -0.031410947    0.040324191
   7   O   :    0.024145506   -0.009853913    0.031061510
   8   H   :    0.013931340    0.001616903    0.012021442
   9   H   :   -0.014855434    0.015204214    0.000525807
  10   H   :    0.003798317    0.014383805    0.000276547
  11   H   :    0.013330385   -0.004735160   -0.005898475
  12   H   :    0.008391933    0.002545938   -0.009189198
  13   H   :   -0.009235819    0.006956830   -0.000671982
  14   H   :    0.007932369   -0.006260599   -0.003947209
  15   H   :   -0.004470908    0.006177868   -0.011488047
  16   H   :    0.014744372   -0.013579714    0.000318368

Difference to translation invariance:
           :   -0.0000000000   -0.0000000000    0.0000000000

Difference to rotation invariance:
           :    0.0008548855    0.0014331204    0.0001330972

Norm of the Cartesian gradient     ...    0.1308386386
RMS gradient                       ...    0.0188849308
MAX gradient                       ...    0.0712176269

-------
TIMINGS
-------

Total SCF gradient time     ....        2.053 sec

Densities                   ....       0.002 sec  (  0.1%)
One electron gradient       ....       0.024 sec  (  1.2%)
RI-J Coulomb gradient       ....       0.140 sec  (  6.8%)
COSX gradient               ....       1.405 sec  ( 68.4%)
XC gradient                 ....       0.210 sec  ( 10.2%)
CPCM gradient               ....       0.236 sec  ( 11.5%)
   A-Matrix (El+Nuc)        ....       0.054 sec  (  2.6%)
   Potential                ....       0.183 sec  (  8.9%)

Maximum memory used throughout the entire SCFGRAD-calculation: 34.3 MB
------------------------------------------------------------------------------
                         ORCA GEOMETRY RELAXATION STEP
------------------------------------------------------------------------------

Reading the OPT-File                    .... done
Getting information on internals        .... done
Copying old internal coords+grads       .... done
Making the new internal coordinates     .... (2022 redundants) done
Validating the new internal coordinates .... (2022 redundants) done
Calculating the B-matrix                .... done
Calculating the G,G- and P matrices     .... done
Transforming gradient to internals      .... done
Projecting the internal gradient        .... done
Number of atoms                         ....  16
Number of internal coordinates          ....  66
Current Energy                          ....  -363.025798257 Eh
Current gradient norm                   ....     0.130838639 Eh/bohr
Maximum allowed component of the step   ....  0.300
Current trust radius                    ....  0.300
Evaluating the initial hessian          ....  (Almloef) done
Projecting the Hessian                  .... done
Forming the augmented Hessian           .... done
Diagonalizing the augmented Hessian     .... done
Last element of RFO vector              ....  0.938244625
Lowest eigenvalues of augmented Hessian:
 -0.019489598  0.006705585  0.010243625  0.011763793  0.012698481
Length of the computed step             ....  0.368744533
Warning: the length of the step is outside the trust region - taking restricted step instead
The input lambda is                     ....     0.004616
   iter:   5  x=   -0.002588  g=  502.028796 f(x)=     1.442818
   iter:  10  x=   -0.029151  g=    3.713612 f(x)=     0.009861
The output lambda is                    ....    -0.029475 (14 iterations)
The final length of the internal step   ....  0.300000000
Converting the step to Cartesian space:
 Initial RMS(Int)=    0.0369274473
Transforming coordinates:
 Iter   0:  RMS(Cart)=    0.0391341056 RMS(Int)=    0.0364230918
 Iter   5:  RMS(Cart)=    0.0000000115 RMS(Int)=    0.0000000084
done
Storing new coordinates                 .... done

                                .--------------------.
          ----------------------|Geometry convergence|-------------------------
          Item                value                   Tolerance       Converged
          ---------------------------------------------------------------------
          RMS gradient        0.0114318136            0.0000300000      NO
          MAX gradient        0.0526696926            0.0001000000      NO
          RMS step            0.0369274473            0.0006000000      NO
          MAX step            0.1881661241            0.0010000000      NO
          ........................................................
          Max(Bonds)      0.0996      Max(Angles)    3.69
          Max(Dihed)        4.25      Max(Improp)    0.00
          ---------------------------------------------------------------------

The optimization has not yet converged - more geometry cycles are needed


    ---------------------------------------------------------------------------
                         Redundant Internal Coordinates
                            (Angstroem and degrees)

        Definition                    Value    dE/dq     Step     New-Value
    ----------------------------------------------------------------------------
     1. B(C   1,N   0)                1.4599 -0.019764  0.0227    1.4826   
     2. B(C   2,C   1)                1.5445  0.009055 -0.0133    1.5312   
     3. B(C   3,C   2)                1.5426  0.000206 -0.0010    1.5416   
     4. B(C   4,C   3)                1.5116 -0.006713  0.0078    1.5194   
     5. B(O   5,C   4)                1.3428  0.052670 -0.0399    1.3029   
     6. B(O   6,C   4)                1.2211 -0.037157  0.0184    1.2395   
     7. B(H   7,N   0)                1.0458  0.017809 -0.0230    1.0227   
     8. B(H   8,N   0)                1.0457  0.019955 -0.0258    1.0199   
     9. B(H   9,C   1)                1.1134  0.014379 -0.0211    1.0923   
    10. B(H  10,C   1)                1.1128  0.014671 -0.0215    1.0913   
    11. B(H  11,C   2)                1.1130  0.012223 -0.0179    1.0950   
    12. B(H  12,C   2)                1.1118  0.011269 -0.0165    1.0954   
    13. B(H  13,C   3)                1.1107  0.010395 -0.0151    1.0955   
    14. B(H  14,C   3)                1.1135  0.013493 -0.0198    1.0936   
    15. B(H  15,N   0)                1.0411  0.015089 -0.0188    1.0223   
    16. B(H  15,O   5)                2.3021  0.006964 -0.0996    2.2025   
    17. A(H   8,N   0,H  15)          111.98  0.010305   -2.45    109.53   
    18. A(H   7,N   0,H   8)          108.78  0.004439   -0.66    108.13   
    19. A(C   1,N   0,H   8)          110.83 -0.004471    0.47    111.30   
    20. A(C   1,N   0,H  15)          109.97 -0.005938    0.93    110.90   
    21. A(C   1,N   0,H   7)          108.62 -0.005122    1.19    109.80   
    22. A(H   7,N   0,H  15)          106.51  0.000694    0.60    107.11   
    23. A(H   9,C   1,H  10)          107.41 -0.000108    0.14    107.56   
    24. A(C   2,C   1,H  10)          110.13 -0.001850    0.20    110.34   
    25. A(N   0,C   1,H  10)          109.58  0.004196   -0.93    108.66   
    26. A(C   2,C   1,H   9)          106.57 -0.002765    1.04    107.62   
    27. A(N   0,C   1,C   2)          114.68 -0.003775    0.25    114.93   
    28. A(N   0,C   1,H   9)          108.15  0.004428   -0.67    107.48   
    29. A(C   1,C   2,H  11)          104.00  0.001363    0.14    104.14   
    30. A(C   3,C   2,H  12)          109.89 -0.000868    0.02    109.91   
    31. A(C   1,C   2,H  12)          111.23  0.003048   -0.72    110.51   
    32. A(C   3,C   2,H  11)          105.86 -0.000914    0.60    106.46   
    33. A(C   1,C   2,C   3)          118.07 -0.002803    0.06    118.14   
    34. A(H  11,C   2,H  12)          106.91  0.000353   -0.01    106.89   
    35. A(H  13,C   3,H  14)          107.08  0.002423   -0.36    106.72   
    36. A(C   2,C   3,C   4)          115.52 -0.006177    0.66    116.18   
    37. A(C   4,C   3,H  14)          105.78 -0.000724    0.50    106.28   
    38. A(C   2,C   3,H  14)          105.69 -0.001484    0.89    106.58   
    39. A(C   4,C   3,H  13)          111.39  0.002939   -0.87    110.52   
    40. A(C   2,C   3,H  13)          110.74  0.003180   -0.72    110.03   
    41. A(O   5,C   4,O   6)          118.65 -0.030153    3.69    122.35   
    42. A(C   3,C   4,O   6)          119.36  0.006588   -0.51    118.86   
    43. A(C   3,C   4,O   5)          121.94  0.023397   -2.98    118.95   
    44. D(H   9,C   1,N   0,H   8)     71.50 -0.002959    0.42     71.92   
    45. D(H   9,C   1,N   0,H   7)    -47.95 -0.002506    0.19    -47.76   
    46. D(H   9,C   1,N   0,H  15)   -164.15  0.002876   -1.72   -165.87   
    47. D(C   2,C   1,N   0,H  15)     77.10  0.005623   -2.72     74.37   
    48. D(C   2,C   1,N   0,H   7)   -166.71  0.000241   -0.81   -167.51   
    49. D(C   2,C   1,N   0,H   8)    -47.25 -0.000212   -0.58    -47.84   
    50. D(C   3,C   2,C   1,N   0)    -66.13  0.000086   -0.59    -66.72   
    51. D(H  11,C   2,C   1,H  10)    -58.86  0.003053   -2.38    -61.24   
    52. D(H  11,C   2,C   1,H   9)     57.35  0.000443   -1.52     55.83   
    53. D(H  11,C   2,C   1,N   0)    176.99  0.001791   -1.49    175.50   
    54. D(C   3,C   2,C   1,H  10)     58.02  0.001348   -1.48     56.54   
    55. D(C   3,C   2,C   1,H   9)    174.23 -0.001262   -0.63    173.60   
    56. D(C   4,C   3,C   2,H  12)    -45.95 -0.000381    0.30    -45.65   
    57. D(C   4,C   3,C   2,H  11)   -161.05  0.000113   -0.01   -161.07   
    58. D(C   4,C   3,C   2,C   1)     83.06  0.000659   -0.67     82.40   
    59. D(H  13,C   3,C   2,H  12)   -173.76 -0.002092    1.60   -172.16   
    60. D(H  13,C   3,C   2,H  11)     71.14 -0.001599    1.29     72.43   
    61. D(H  13,C   3,C   2,C   1)    -44.74 -0.001053    0.63    -44.11   
    62. D(O   6,C   4,C   3,C   2)    114.29  0.001773   -3.03    111.26   
    63. D(O   5,C   4,C   3,H  14)    175.27  0.002215    0.77    176.04   
    64. D(O   5,C   4,C   3,H  13)     59.26 -0.001732    1.35     60.61   
    65. D(O   6,C   4,C   3,H  13)   -118.22  0.003573   -4.25   -122.48   
    66. D(O   5,C   4,C   3,C   2)    -68.22 -0.003532    2.58    -65.64   
    ----------------------------------------------------------------------------

Geometry step timings:
Preparation and reading OPT file:      0.000 s ( 7.801 %)
Internal coordinates            :      0.000 s ( 1.103 %)
B/P matrices and projection     :      0.000 s (18.834 %)
[...]
      pz      :     0.014948  p :     0.060548
      px      :     0.025952
      py      :     0.019648



                     *******************************
                     * LOEWDIN POPULATION ANALYSIS *
                     *******************************

----------------------
LOEWDIN ATOMIC CHARGES
----------------------
   0 N :    0.134234
   1 C :   -0.253876
   2 C :   -0.259478
   3 C :   -0.246753
   4 C :   -0.635690
   5 O :   -0.096642
   6 O :   -0.096644
   7 H :    0.203336
   8 H :    0.205181
   9 H :    0.140548
  10 H :    0.143993
  11 H :    0.150406
  12 H :    0.144213
  13 H :    0.151491
  14 H :    0.143879
  15 H :    0.171802

-------------------------------
LOEWDIN REDUCED ORBITAL CHARGES
-------------------------------
  0 N s       :     2.997738  s :     2.997738
      pz      :     1.203842  p :     3.708585
      px      :     1.253110
      py      :     1.251633
      dz2     :     0.027899  d :     0.149526
      dxz     :     0.039929
      dyz     :     0.036699
      dx2y2   :     0.009329
      dxy     :     0.035670
      f0      :     0.002305  f :     0.009918
      f+1     :     0.001336
      f-1     :     0.000926
      f+2     :     0.001547
      f-2     :     0.001744
      f+3     :     0.001315
      f-3     :     0.000746

  1 C s       :     2.799119  s :     2.799119
      pz      :     0.930553  p :     2.972342
      px      :     0.995667
      py      :     1.046122
      dz2     :     0.113996  d :     0.432039
      dxz     :     0.104867
      dyz     :     0.079114
      dx2y2   :     0.029092
      dxy     :     0.104971
      f0      :     0.009796  f :     0.050375
      f+1     :     0.009225
      f-1     :     0.007030
      f+2     :     0.009408
      f-2     :     0.007865
      f+3     :     0.004379
      f-3     :     0.002672

  2 C s       :     2.781506  s :     2.781506
      pz      :     1.012749  p :     3.054492
      px      :     1.022869
      py      :     1.018874
      dz2     :     0.067627  d :     0.385243
      dxz     :     0.088671
      dyz     :     0.088927
      dx2y2   :     0.042128
      dxy     :     0.097890
      f0      :     0.006143  f :     0.038237
      f+1     :     0.004676
      f-1     :     0.006321
      f+2     :     0.005050
      f-2     :     0.007000
      f+3     :     0.003176
      f-3     :     0.005871

  3 C s       :     2.792068  s :     2.792068
      pz      :     1.022190  p :     3.063378
      px      :     1.026810
      py      :     1.014378
      dz2     :     0.077583  d :     0.355994
      dxz     :     0.052216
      dyz     :     0.066367
      dx2y2   :     0.051490
      dxy     :     0.108339
      f0      :     0.003215  f :     0.035313
      f+1     :     0.004840
      f-1     :     0.005964
      f+2     :     0.004642
      f-2     :     0.004962
      f+3     :     0.004705
      f-3     :     0.006986

  4 C s       :     2.779483  s :     2.779483
      pz      :     0.966297  p :     2.703285
      px      :     0.898532
      py      :     0.838456
      dz2     :     0.291038  d :     0.993880
      dxz     :     0.265406
      dyz     :     0.238415
      dx2y2   :     0.096577
      dxy     :     0.102444
      f0      :     0.026158  f :     0.159043
      f+1     :     0.045696
      f-1     :     0.036003
      f+2     :     0.018122
      f-2     :     0.014839
      f+3     :     0.009182
      f-3     :     0.009042

  5 O s       :     3.417514  s :     3.417514
      pz      :     1.452312  p :     4.611970
      px      :     1.589272
      py      :     1.570386
      dz2     :     0.026574  d :     0.061957
      dxz     :     0.017230
      dyz     :     0.015108
      dx2y2   :     0.000537
      dxy     :     0.002507
      f0      :     0.002322  f :     0.005201
      f+1     :     0.001354
      f-1     :     0.001233
      f+2     :     0.000027
      f-2     :     0.000191
      f+3     :     0.000011
      f-3     :     0.000063

  6 O s       :     3.423755  s :     3.423755
      pz      :     1.612982  p :     4.606878
      px      :     1.503467
      py      :     1.490429
      dz2     :     0.013430  d :     0.060592
      dxz     :     0.015615
      dyz     :     0.011734
      dx2y2   :     0.007196
      dxy     :     0.012616
      f0      :     0.000724  f :     0.005418
      f+1     :     0.001089
      f-1     :     0.000714
      f+2     :     0.000693
      f-2     :     0.001358
      f+3     :     0.000350
      f-3     :     0.000490

  7 H s       :     0.692958  s :     0.692958
      pz      :     0.039204  p :     0.103706
      px      :     0.035246
      py      :     0.029256

  8 H s       :     0.691727  s :     0.691727
      pz      :     0.026561  p :     0.103092
      px      :     0.030067
      py      :     0.046465

  9 H s       :     0.798763  s :     0.798763
      pz      :     0.012406  p :     0.060689
      px      :     0.018356
      py      :     0.029927

 10 H s       :     0.795737  s :     0.795737
      pz      :     0.012123  p :     0.060270
      px      :     0.022782
      py      :     0.025365

 11 H s       :     0.790602  s :     0.790602
      pz      :     0.020973  p :     0.058991
      px      :     0.019199
      py      :     0.018820

 12 H s       :     0.796646  s :     0.796646
      pz      :     0.014153  p :     0.059141
      px      :     0.025274
      py      :     0.019714

 13 H s       :     0.788760  s :     0.788760
      pz      :     0.013860  p :     0.059748
      px      :     0.025252
      py      :     0.020636

 14 H s       :     0.796722  s :     0.796722
      pz      :     0.030155  p :     0.059399
      px      :     0.015423
      py      :     0.013821

 15 H s       :     0.640730  s :     0.640730
      pz      :     0.045476  p :     0.187469
      px      :     0.080890
      py      :     0.061102



                      *****************************
                      * MAYER POPULATION ANALYSIS *
                      *****************************

  NA   - Mulliken gross atomic population
  ZA   - Total nuclear charge
  QA   - Mulliken gross atomic charge
  VA   - Mayer's total valence
  BVA  - Mayer's bonded valence
  FA   - Mayer's free valence

  ATOM       NA         ZA         QA         VA         BVA        FA
  0 N      7.3031     7.0000    -0.3031     3.3716     3.3716    -0.0000
  1 C      6.1404     6.0000    -0.1404     3.8559     3.8559    -0.0000
  2 C      6.1880     6.0000    -0.1880     3.8460     3.8460     0.0000
  3 C      6.2316     6.0000    -0.2316     3.6846     3.6846     0.0000
  4 C      5.7310     6.0000     0.2690     4.4794     4.4794     0.0000
  5 O      8.5598     8.0000    -0.5598     1.7888     1.7888     0.0000
  6 O      8.5304     8.0000    -0.5304     1.9124     1.9124     0.0000
  7 H      0.6957     1.0000     0.3043     0.9067     0.9067    -0.0000
  8 H      0.6983     1.0000     0.3017     0.9094     0.9094    -0.0000
  9 H      0.8485     1.0000     0.1515     0.9626     0.9626     0.0000
 10 H      0.8509     1.0000     0.1491     0.9654     0.9654     0.0000
 11 H      0.8777     1.0000     0.1223     0.9647     0.9647     0.0000
 12 H      0.8803     1.0000     0.1197     0.9689     0.9689     0.0000
 13 H      0.8858     1.0000     0.1142     0.9746     0.9746    -0.0000
 14 H      0.8936     1.0000     0.1064     0.9930     0.9930     0.0000
 15 H      0.6848     1.0000     0.3152     0.9797     0.9797     0.0000

  Mayer bond orders larger than 0.100000
B(  0-N ,  1-C ) :   0.9050 B(  0-N ,  7-H ) :   0.8890 B(  0-N ,  8-H ) :   0.8911 
B(  0-N , 15-H ) :   0.7127 B(  1-C ,  2-C ) :   0.9727 B(  1-C ,  9-H ) :   0.9687 
B(  1-C , 10-H ) :   0.9650 B(  2-C ,  3-C ) :   0.9335 B(  2-C , 11-H ) :   0.9561 
B(  2-C , 12-H ) :   0.9679 B(  3-C ,  4-C ) :   0.9588 B(  3-C , 13-H ) :   0.9394 
B(  3-C , 14-H ) :   0.9595 B(  4-C ,  5-O ) :   1.5672 B(  4-C ,  6-O ) :   1.9030 
B(  5-O , 15-H ) :   0.2517 

-------
TIMINGS
-------

Total SCF time: 0 days 0 hours 0 min 2 sec 

Total time                  ....       2.594 sec
Sum of individual times     ....       2.542 sec  ( 98.0%)

SCF preparation             ....       0.747 sec  ( 28.8%)
Fock matrix formation       ....       1.569 sec  ( 60.5%)
  Startup                   ....       0.015 sec  (  1.0% of F)
  Split-RI-J                ....       0.091 sec  (  5.8% of F)
  Chain of spheres X        ....       1.127 sec  ( 71.8% of F)
  XC integration            ....       0.184 sec  ( 11.8% of F)
    Basis function eval.    ....       0.030 sec  ( 16.5% of XC)
    Density eval.           ....       0.034 sec  ( 18.7% of XC)
    XC-Functional eval.     ....       0.004 sec  (  2.4% of XC)
    XC-Potential eval.      ....       0.043 sec  ( 23.3% of XC)
  CPCM terms                ....       0.127 sec  (  8.1% of F)
Diagonalization             ....       0.000 sec  (  0.0%)
Density matrix formation    ....       0.020 sec  (  0.8%)
Total Energy calculation    ....       0.021 sec  (  0.8%)
Population analysis         ....       0.078 sec  (  3.0%)
Orbital Transformation      ....       0.023 sec  (  0.9%)
Orbital Orthonormalization  ....       0.000 sec  (  0.0%)
DIIS solution               ....       0.028 sec  (  1.1%)
SOSCF solution              ....       0.056 sec  (  2.2%)
Finished LeanSCF after   2.7 sec

Maximum memory used throughout the entire LEANSCF-calculation: 29.7 MB


-------------------------------------------------------------------------------
                          DFT DISPERSION CORRECTION                            
                                                                               
                                DFTD4 V3.4.0                                   
-------------------------------------------------------------------------------
The B3LYP functional is recognized
Active option DFTDOPT                   ...         5   

-------------------------   ----------------
Dispersion correction           -0.019627727
-------------------------   ----------------


-------------------------   --------------------
FINAL SINGLE POINT ENERGY      -363.052663894887
-------------------------   --------------------

                                *** OPTIMIZATION RUN DONE ***



           ************************************************************
           *        Program running with 30 parallel MPI-processes    *
           *              working on a common directory               *
           ************************************************************

------------------------------------------------------------------------------
                              ORCA PROPERTY CALCULATIONS
------------------------------------------------------------------------------

GBWName                                 ... 06_Aminobutyric-acid_zwitterion.gbw
Number of atoms                         ...     16
Number of basis functions               ...    271
Max core memory                         ...   3000 MB

Electric properties:
Dipole moment                           ... YES
Quadrupole moment                       ...  NO
Static polarizability (Dipole/Dipole)   ...  NO
Static polarizability (Dipole/Quad.)    ...  NO
Static polarizability (Quad./Quad.)     ...  NO
Static polarizability (Velocity)        ...  NO

Atomic electric properties:
Dipole moment                           ...  NO
Quadrupole moment                       ...  NO
Static polarizability                   ...  NO

Choice of electric origin               ... Center of mass
Position of electric origin             ...    -1.662885     0.982351    -2.234224

General magnetic properties:
Magnetizability                         ...  NO

EPR properties:
g-Tensor (aka g-matrix)                 ...  NO
Zero-Field splitting spin-orbit         ...  NO
Zero-field splitting spin-spin          ...  NO
Hyperfine couplings                     ...  NO (   0 nuclei)
Quadrupole couplings                    ...  NO (   0 nuclei)
Contact density                         ...  NO (   0 nuclei)

NMR properties:
Chemical shifts                         ...  NO (   0 nuclei)
Spin-rotation constants                 ...  NO (   0 nuclei)
Spin-spin couplings                     ...  NO (   0 nuclei,    0 pairs)

Choice of magnetic origin               ... GIAO
Position of magnetic origin             ...     0.000000     0.000000     0.000000

Properties with geometric perturbations:
SCF Hessian                             ...  NO
IR spectrum                             ...  NO
VCD spectrum                            ...  NO
X-ray spectroscopy properties:
SCF XES/XAS/RIXS spectra                ...  NO


-------------
DIPOLE MOMENT
-------------

Method             : SCF
Type of density    : Electron Density
Multiplicity       :   1
Irrep              :   0
Energy             :  -363.0330361679010025 Eh
Relativity type    : 
Basis              : AO
                                X                 Y                 Z
Electronic contribution:     -4.017457696      -3.578824850       0.115270699
Nuclear contribution   :      7.964309321       6.798587548       2.815976746
                        -----------------------------------------
Total Dipole Moment    :      3.946851625       3.219762698       2.931247445
                        -----------------------------------------
Magnitude (a.u.)       :      5.876795144
Magnitude (Debye)      :     14.937626142



--------------------
Rotational spectrum 
--------------------
 
Rotational constants in cm-1:             0.159416             0.060114             0.046261 
Rotational constants in MHz :          4779.164866          1802.160661          1386.861437 

Dipole components along the rotational axes: 
x,y,z [a.u.] :     5.872810    -0.200229    -0.082076 
x,y,z [Debye]:    14.927496    -0.508942    -0.208622 

 

Dipole moment calculation done in   0.0 sec 

Maximum memory used throughout the entire PROP-calculation: 15.9 MB

--------------------------------
SUGGESTED CITATIONS FOR THIS RUN
--------------------------------

Below you find a list of papers that are relevant to this ORCA run
We neither can nor want to force you to cite these papers, but we appreciate if you do
You receive ORCA, which is the product of decades of hard work by many enthusiastic individuals, for free
The only thing we kindly ask in return is that you cite our papers,
We deeply appreciate it, if you show your appreciation for ORCA by not just citing the generic ORCA reference.

Please note that relegating all ORCA citations to the supporting information does *not* help us.
SI sections are not indexed - citations you put there will not count into any citation statistics
But we need these citations in order to attract the funding resources that allow us to do what we are doing

Therefore, if you are a happy ORCA user, please consider citing a few of the papers listed below in the main body of your paper

In addition to the list printed below, the program has created the file 06_Aminobutyric-acid_zwitterion.bibtex that contains the list in bibtex format
You can import this file easily into all common literature databanks and citation aid programs


List of essential papers. We consider these as the minimum necessary citations

  1. Neese,F.
     Software update: the ORCA program system, version 5.0
     WIRES Comput. Molec. Sci., 2022 12(1)e1606
     doi.org/10.1002/wcms.1606

List of papers to cite with high priority. The work reported in these papers was absolutely
necessary for this run to complete.
Our perspective: the developers of density functionals and basis sets usually get cited in chemistry papers
Good! But without the algorithms to do something with them, the functionals or basis sets would not do anything.
Hence, in our opinion, the algorithm design and method developments papers are equally worthy of getting cited

  1. Neese,F.
     An improvement of the resolution of the identity approximation for the formation of the Coulomb matrix
     J. Comp. Chem., 2003 24(14)1740-1747
     doi.org/10.1002/jcc.10318
  2. Neese,F.; Wennmohs,F.; Hansen,A.; Becker,U.
     Efficient, approximate and parallel Hartree-Fock and hybrid DFT calculations. A 'chain-of-spheres' algorithm for the Hartree-Fock exchange
     Chem. Phys., 2009 356(1-3)98-109
     doi.org/10.1016/j.chemphys.2008.10.036
  3. Garcia-Rates,M.; Neese,F.
     Effect of the Solute Cavity on the Solvation Energy and its Derivatives within the Framework of the Gaussian Charge Scheme
     J. Comput. Chem., 2020 41 922-939
     doi.org/10.1002/jcc.26139
  4. Helmich-Paris,B.; de Souza,B.; Neese,F.; Izsák,R.
     An improved chain of spheres for exchange algorithm
     J. Chem. Phys., 2021 155 104109
     doi.org/doi: 10.1063/5.0058766.
  5. Neese,F.
     The SHARK Integral Generation and Digestion System
     J. Comp. Chem., 2022  1-16
     doi.org/10.1002/jcc.26942
  6. Caldeweyher,E.; Bannwarth,C.; Grimme,S.
     Extension of the D3 dispersion coefficient model
     J. Chem. Phys., 2017 147 034112
     doi.org/10.1063/1.4993215
  7. Caldeweyher,E.; Ehlert,S.; Hansen,A.; Neugebauer,H.; Spicher,S.; Bannwarth,C.; Grimme,S.
     A generally applicable atomic-charge dependent London dispersion correction
     J. Chem. Phys., 2019 150 154122
     doi.org/10.1063/1.5090222
  8. Caldeweyher,E.; Mewes,J.; Ehlert,S.; Grimme,S.
     Extension and evaluation of the D4 London-dispersion model for periodic systems
     Phys. Chem. Chem. Phys., 2020 22(16)8499-8512
     doi.org/10.1039/D0CP00502A
  9. Wittmann,L.; Gordiy,I.; Friede,M.; Helmich-Paris,B.; Grimme,S.; Hansen,A.; Bursch,M.
     Extension of the D3 and D4 London Dispersion Corrections to the full Actinides Series
     Phys. Chem. Chem. Phys., 2024 26(32)21379-21394
     doi.org/https://doi.org/10.1039/D4CP01514B 

List of suggested additional citations. These are papers that are important in the 'surrounding' of 
of this run, or papers that preceded the highly important papers. If you like your results we are grateful for a citation.

  1. Izsak,R.; Neese,F.
     An overlap fitted chain of spheres exchange method
     J. Chem. Phys., 2011 135 144105
     doi.org/10.1063/1.3646921
  2. Izsak,R.; Hansen,A.; Neese,F.
     The resolution of identity and chain of spheres approximations for the LPNO-CCSD singles Fock term
     Molec. Phys., 2012 110 2413-2417
     doi.org/10.1080/00268976.2012.687466
  3. Neese,F.
     The ORCA program system
     WIRES Comput. Molec. Sci., 2012 2(1)73-78
     doi.org/10.1002/wcms.81
  4. Izsak,R.; Neese,F.; Klopper,W.
     Robust fitting techniques in the chain of spheres approximation to the Fock exchange: The role of the complementary space
     J. Chem. Phys., 2013 139 
     doi.org/10.1063/1.4819264
  5. Neese,F.
     Software update: the ORCA program system, version 4.0
     WIRES Comput. Molec. Sci., 2018 8(1)1-6
     doi.org/10.1002/wcms.1327
  6. Neese,F.; Wennmohs,F.; Becker,U.; Riplinger,C.
     The ORCA quantum chemistry program package
     J. Chem. Phys., 2020 152 Art. No. L224108
     doi.org/10.1063/5.0004608

List of optional additional citations

  1. Neese,F.
     Approximate second-order SCF convergence for spin unrestricted wavefunctions
     Chem. Phys. Lett., 2000 325(1-3)93-98
     doi.org/10.1016/s0009-2614(00)00662-x

Timings for individual modules:

Sum of individual times          ...      250.058 sec (=   4.168 min)
Startup calculation              ...       35.533 sec (=   0.592 min)  14.2 %
SCF iterations                   ...      144.168 sec (=   2.403 min)  57.7 %
Property calculations            ...        1.046 sec (=   0.017 min)   0.4 %
SCF Gradient evaluation          ...       69.226 sec (=   1.154 min)  27.7 %
Geometry relaxation              ...        0.084 sec (=   0.001 min)   0.0 %
                             ****ORCA TERMINATED NORMALLY****
TOTAL RUN TIME: 0 days 0 hours 4 minutes 34 seconds 230 msec
