13
 energy: -275.734866436618 gnorm: 0.000708166431 xtb: 6.7.1 (edcfbbe)
H            1.27895744065181        0.33052433173812        0.19358274067616
C            0.24416947531218        0.12812386615980       -0.08139352067257
H            0.19085586519226        1.31585089551781       -1.82020152406558
H            0.19864210245566       -0.78907131268325       -0.66451843766238
N           -0.27971220649683        1.22605017907273       -0.90233256373909
H           -0.55282872376367       -1.04912985978062        1.54354523220270
C           -0.61237496712630       -0.02889236781897        1.16929722608787
O           -1.15835471262843        1.29385695688837        3.07049182570751
C           -0.21292032234435        0.81792652630500        2.36759002252790
H           -0.17577531460865        2.12855394356338       -0.41021605872604
O            0.98788364067758        0.98287715688744        2.65711413579978
H           -1.29619759093124        1.09554858883135       -1.08247905909489
H           -1.65910437428983        0.16370424567969        0.94150582891150
