163
 energy: -275.754393871846 gnorm: 0.000324993434 xtb: 6.7.1 (edcfbbe)
C           -0.82118853761320       -0.64013299962060        1.03038304009105
C           -1.04306030369478       -0.27782672029097        2.48168170844387
O           -1.92507718494816       -0.91277388614481        3.13314433936830
O           -0.35573940712562        0.63042659294307        3.00222763686748
C            0.00103170485280        0.41289662189009        0.30325621865982
N            0.07070030490641        0.12712582845216       -1.13612974090562
H           -0.33338151663371       -1.61608751194560        1.00777605045807
H           -1.80564501356656       -0.75417938602150        0.57662499482028
H           -0.47309293248945        1.38428800506810        0.44529155535173
H            1.00411889846369        0.45347222259724        0.72591289615761
H           -0.87051457336815       -0.14662846485207       -1.47744876941002
H            0.73144519163098       -0.63852090727006       -1.35087251706897
H            0.38645850917710        1.00512376988166       -1.60378504386485
O           -1.47288249472856       -3.54326145316857        3.06885247472431
H           -1.69472521543526       -3.82702302217550        3.97179708244359
H           -1.73075601941560       -2.59617277124970        3.05025627063007
O            0.18137931308800        4.06496482731679        4.95699349107506
H           -0.19153737381800        4.79421869848287        4.41914257318893
H            0.84545466940576        3.64240356506359        4.37285329922797
O            1.19167455133282       -3.32176267740369        2.49130663635635
H            1.30662000567492       -4.07673588008052        1.88238964623757
H            0.26674479258603       -3.38564225316212        2.79240174805441
O           -1.51545386624218        3.46094724837130        0.00161652526475
H           -1.89301631548967        4.16640801321671       -0.56090487169795
H           -2.00895810641932        3.50843402872928        0.84643864603340
O           -4.71502921700131        1.93596935115444        1.04154481546272
H           -4.38885288735848        1.93247259945279        0.12255906225845
H           -4.67317934453495        1.00478949801639        1.32678886350902
O           -0.95096631597539       -2.89075840731522       -2.40207555692750
H           -1.21441412811020       -3.21480219138492       -1.53254652719113
H           -1.45820264425191       -3.36711502237928       -3.07138363516865
O            0.98112061191713        2.64675994811697       -1.67459458167683
H            1.44266170857422        2.62309621481579       -0.81630929900535
H            1.68987299720297        2.80413660197707       -2.32575255734066
O           -2.07539309351702        1.63701093262313       -3.81149967320685
H           -1.48088981683756        0.84621536521748       -3.76018601880862
H           -2.53121403662486        1.54252903226129       -4.65054591087940
O           -0.12473501186817        2.62094892744022        7.45864731274122
H            0.00460223950951        3.23964634565333        6.72144627176224
H            0.36962150817568        1.82015654098930        7.20067952358089
O           -2.92704862285164        3.60272088243318        2.28860499371928
H           -2.61607055950670        3.11758695814009        3.08201980193500
H           -3.69414888693381        3.09783988419501        1.95136104149702
O           -0.99029837699382        5.65261467861185        3.03978949974280
H           -0.39988998172094        5.53576472258718        2.27262505373276
H           -1.78621315998242        5.14458103648278        2.82283493346887
O           -2.02853684100524        0.55538288539986       -6.48408689867048
H           -2.30913738893570        1.05013086044526       -7.25367301582343
H           -1.12713585643558        0.89581163189600       -6.24638953426230
O            3.09319122232462        0.14282922290705       -1.18664275527499
H            3.08900701491295        0.96020293260878       -0.66166379490042
H            2.86698332002998       -0.55838336498030       -0.55220878090592
O           -0.47526700670192       -0.54446788594365       -3.88381932481767
H            0.45550580669120       -0.31353712564381       -3.68072879698007
H           -0.74338508342110       -1.25232702327834       -3.27637159081839
O            2.73928171513414        2.07727814651039        5.14496463001819
H            3.42030443337127        2.27976342055843        5.78937665328849
H            2.07698665084729        1.52643770089153        5.60471217339731
O            1.83504271177877       -0.82292726206039       -6.70675925342421
H            0.99407600146597       -1.32618822004245       -6.65069685670318
H            2.38717113338445       -1.21348226803104       -6.00403951601651
O            4.98543947257633       -1.06549888885786       -2.71142900218374
H            4.40227669951766       -1.36456174705445       -3.43451834482494
H            4.38810488504798       -0.57109970669493       -2.10384603585802
O            5.64664917834481       -3.29559483164819       -1.40530484779396
H            5.48048246528244       -2.45979976959486       -1.91658746009677
H            6.16734146435000       -3.03245134013269       -0.64280298359756
O           -2.55460974486265       -0.69058671433226       -1.81875018555720
H           -2.87520851302238       -0.83799205215502       -2.72977284372961
H           -2.93110201239481        0.17318588885544       -1.54788303441983
O            1.57386995891809       -2.04862328189896       -2.34145839929747
H            0.70118991722600       -2.47882917119466       -2.42722682431257
H            2.11452067775173       -2.65752265298937       -1.80898723722971
O            0.57201324555859        4.82161154935160        0.87937009734557
H           -0.12582634872328        4.26604636007757        0.44212569657618
H            1.19866768816301        5.07049614177164        0.19577399858375
O            3.07082814049157       -2.11532479884944        4.13266084108355
H            2.81329698965510       -1.20628189525630        3.81741387089570
H            2.42116724842337       -2.69995478566648        3.70229298075825
O           -3.35594080923068       -1.15044950524302       -4.41682205126048
H           -2.90509699411862       -0.62874625268494       -5.09796556688263
H           -3.06256869324832       -2.06714742393574       -4.54671896661477
O            4.16296018078268        4.05055895294394       -1.24409931916811
H            5.11107148619176        4.07988113641550       -1.38250182394910
H            3.77755482597436        3.75039127081158       -2.09077684106343
O            2.95188155385496        3.06875604844592       -3.55387984092765
H            2.42903279069621        3.55011264936261       -4.22745291320067
H            2.76963489098864        2.11576407225101       -3.72099750925371
O            3.04089121817802       -3.72381296949207       -0.79594800879542
H            2.96422355965136       -2.98501110532952       -0.13533099096648
H            3.99007926016213       -3.75769932077348       -1.02060067964625
O           -0.61407218615913       -1.85297652177987       -6.13162407218545
H           -1.22051003799922       -1.28798346323328       -6.62736726935237
H           -0.51740916843489       -1.35200459389050       -5.25801459287873
O           -2.39767476360473        5.32144934477643       -1.79097967525146
H           -2.20994245258325        6.26016781506969       -1.82870999269512
H           -1.81594649532513        4.88399526045710       -2.46446889846492
O            5.03753599456566       -1.74455906669004        2.25848713262436
H            4.50762972051363       -2.00263326749401        3.03915788903199
H            5.44379804730776       -0.90338494810148        2.48208858532332
O            2.79064979687283       -1.75403384926903        6.80775771795074
H            2.50893217565277       -2.59278940535336        7.18119241591215
H            2.96518086255554       -1.92159776356700        5.85306296815148
O            3.05708329709050       -2.01125314174670       -4.50059853162575
H            3.26577147046512       -2.92285001477640       -4.70569227001419
H            2.43096643497013       -2.04200782839115       -3.71098915526223
O            1.28954713969329       -5.26073718645274        0.51171086641892
H            1.95596930049522       -4.79587580550473       -0.04811012882081
H            1.57162021595765       -6.17422249599031        0.58070937885464
O           -3.22987325515923        1.83087649998318       -1.32685590540679
H           -3.02029526226381        1.97045455421960       -2.26969965624463
H           -2.51994381994643        2.31160957476070       -0.84940509778760
O           -4.33558381872490       -0.74250975170934        1.71957237056631
H           -4.22174978157231       -1.42218390053672        1.01603055310718
H           -3.56480378862385       -0.84346736526097        2.30224400008809
O            0.46822020307532        1.41057185537861       -5.89042639494713
H            1.03454969855209        0.73880471862510       -6.31936778556672
H            0.63414007393580        1.28184950158448       -4.94043588738448
O           -1.23206707404047       -4.00385220195918        0.26505835948355
H           -1.42482567177725       -3.92665465983249        1.21001747035912
H           -0.40550402463755       -4.51524857876147        0.22611757023956
O            2.68481587478569       -1.67176754472726        0.82173839969568
H            3.52808855950975       -1.58875215262051        1.30209768263529
H            2.05153745397439       -2.03178257740246        1.46310456715582
O            1.03940742080339        0.33068039367061        6.40946245967785
H            1.65760311642039       -0.37662386712773        6.67749873525719
H            0.22568645471279       -0.12632396446636        6.11929832577900
O            2.71967810352640        2.34700300911534        0.38949102865734
H            3.31694476088664        3.05241360912244        0.09867880521031
H            2.44753867938331        2.52555265033276        1.30670832040364
O           -2.48694395554416        1.32218935892472        6.84085601726392
H           -1.75720470310237        1.78220812179164        7.30320760254065
H           -2.47607582719155        1.73707480246706        5.95118907553187
O            1.11218080479939        4.05135794833914       -5.28558420727750
H            0.40395175539372        4.14783652000945       -4.60829991655695
H            0.89485895536712        3.21159833155768       -5.73229676695762
O           -3.69356313036588       -2.51009712474476       -0.25641974986826
H           -3.28697060295819       -1.86154840267890       -0.89373500476767
H           -2.98123707897753       -3.12657683146510       -0.04291046334288
O           -1.37007049387237       -0.90560362667315        5.79710125704735
H           -1.60032911622182       -0.80434600423455        4.84717391509118
H           -1.87136440314133       -0.19506143485851        6.26033511699631
O           -1.82216776562746        2.36040028113989        4.42800022923679
H           -1.13788541137101        3.01358740771319        4.71635387071175
H           -1.29318542533886        1.64793070356352        4.00887006937311
O            2.41274636936723        0.23907746738719        3.12395861036427
H            2.66387476293296        0.96591136494132        3.71838537612219
H            1.44472591316221        0.30156790428677        3.07998964317470
O            2.01273468871376        0.53028356794757       -3.61370874628866
H            2.33420901660940        0.35579920626406       -2.69872722510112
H            2.53598645447030       -0.04193366390468       -4.18012032483813
O           -2.13045888921811       -3.56888256598510        5.76726111913685
H           -1.80839517527279       -2.65271462117101        5.89121656769401
H           -3.04106370679339       -3.57040997118539        6.07480069590912
O            1.33872264438403        2.96316354080557        2.68930466865215
H            0.99191415183005        3.67530168201172        2.11100255902547
H            0.66406550543515        2.26842705694023        2.70418029549203
O           -2.12234897530338       -3.66063717198867       -4.84734536571948
H           -2.38012498079404       -4.42097503884021       -5.36847667107874
H           -1.48736034347979       -3.13261152017967       -5.39236000770855
O           -0.74258994520560        3.89049242623796       -3.30740255733202
H           -1.26666979697519        3.09663953352483       -3.56644351443904
H           -0.17019312781178        3.54048798561061       -2.58800487403731
