37
 energy: -59.775716941933 gnorm: 0.174420846060 xtb: 6.7.1 (edcfbbe)
N            0.00260500000000        0.26833900000000        2.34949800000000
C            0.00561000000000       -0.53426800000000        1.12782400000000
C           -0.01360500000000        0.36044200000000       -0.11757000000000
C           -0.00658000000000       -0.48411400000000       -1.39958300000000
C            0.00530900000000        0.34606300000000       -2.65559300000000
O            0.01598000000000        1.56658800000000       -2.61114500000000
O            0.01013600000000       -0.27058000000000       -3.85192000000000
H            0.84383000000000        0.88923800000000        2.37341700000000
H           -0.86762500000000        0.84621600000000        2.39703300000000
H           -0.88589600000000       -1.19861800000000        1.12403900000000
H            0.91775600000000       -1.17084600000000        1.11100500000000
H            0.88289000000000        1.01613200000000       -0.10393900000000
H           -0.92488100000000        0.99783100000000       -0.09978000000000
H           -0.91002800000000       -1.12912700000000       -1.41351300000000
H            0.89428700000000       -1.13411000000000       -1.40682800000000
H            0.03021100000000       -0.36918600000000        3.17705500000000
O           -1.46806500000000       -1.27906300000000        5.09084200000000
H           -1.43393800000000       -1.07241300000000        6.05869600000000
H           -2.33684200000000       -1.73746400000000        4.96550800000000
O           -1.84397900000000        2.79029500000000        2.75985800000000
H           -2.64205700000000        2.61484900000000        3.31923400000000
H           -1.76982100000000        3.77748700000000        2.73608300000000
O           -1.19355100000000       -3.55034000000000        5.44727200000000
H           -0.20649000000000       -3.58052100000000        5.52083800000000
H           -1.49961000000000       -3.24667300000000        6.33874700000000
O            0.10874700000000        1.78750000000000       -7.81581400000000
H            0.98695500000000        1.33204200000000       -7.85962100000000
H           -0.53624900000000        1.06380400000000       -7.61368100000000
O            0.68429700000000        3.74055300000000       -4.21027800000000
H           -0.18700200000000        3.31019600000000       -4.40065300000000
H            0.90262700000000        3.46048100000000       -3.28588400000000
O           -0.58292900000000        4.10341100000000       -1.75754900000000
H           -0.98739900000000        4.35808900000000       -2.62481700000000
H           -1.35373300000000        4.00474400000000       -1.14375800000000
O            0.66831600000000       -1.69378400000000       -7.37730300000000
H            1.44009200000000       -1.19645100000000       -7.74829300000000
H            1.04816900000000       -2.21855900000000       -6.62834700000000
37
 energy: -59.803272542697 gnorm: 0.086148612155 xtb: 6.7.1 (edcfbbe)
N           -0.00146615108358        0.26944402369630        2.35709946525057
C            0.00409558291876       -0.53841107344549        1.12717428185024
C           -0.01207600468759        0.35310685158824       -0.11444011224192
C           -0.00630939932297       -0.49052670899850       -1.39123235196461
C            0.00735985124764        0.34082685591233       -2.66368053499740
O            0.00972046764825        1.57440604616750       -2.60935829466632
O            0.00889108877355       -0.29358912708761       -3.79246819539666
H            0.82734278107821        0.88370327419777        2.38222740693170
H           -0.84914153677748        0.86252631197120        2.40004879978430
H           -0.87394395324092       -1.19467330296057        1.11964097844854
H            0.90158453345587       -1.16905907681257        1.10808368199215
H            0.86416493454752        1.01288459518008       -0.12230463816000
H           -0.90405737440637        0.99152264814646       -0.11287539408859
H           -0.89385650575045       -1.13566265476273       -1.42434952332710
H            0.87952006365662       -1.13878488323343       -1.41466737753419
H            0.01059064527339       -0.34897534024546        3.18509128572834
O           -1.50975566618364       -1.14469958393020        5.06706746335225
H           -1.43516441071552       -1.04297224623246        6.03546695240552
H           -2.30676805010837       -1.70133237549994        4.94844437810872
O           -1.85308577970841        2.78018492722650        2.76552528857925
H           -2.64191404879022        2.62043067703639        3.30904423589181
H           -1.76169508306192        3.74618029498176        2.73507787425843
O           -1.17949820066544       -3.67550359099345        5.49068733261951
H           -0.20687010549353       -3.59932543219696        5.52102244463271
H           -1.47880139791469       -3.30146197945133        6.33972638932819
O            0.10097429991181        1.77625782702433       -7.83498044099191
H            0.97288240647344        1.34814590378041       -7.84775693274954
H           -0.52189052699129        1.06484840862577       -7.61171596112237
O            0.67292353128775        3.77793929758641       -4.20747117944152
H           -0.14378234264426        3.29151298526033       -4.41822708403755
H            0.90286607449126        3.44746415886287       -3.31795742187912
O           -0.59874549776210        4.15842639619484       -1.72414448265945
H           -0.97468558359706        4.35644873104531       -2.59962160268661
H           -1.36741001997611        4.00167301776366       -1.15018308099162
O            0.68079016150420       -1.69857775346210       -7.38655466885156
H            1.44306154986265       -1.21374840822649       -7.74273707823806
H            1.03168666675088       -2.20244669470890       -6.63362190313564
37
 energy: -59.812399713158 gnorm: 0.031090009203 xtb: 6.7.1 (edcfbbe)
N           -0.01241969382180        0.27804667663688        2.36672013762450
C           -0.00108317294995       -0.53839210205879        1.13108230234053
C           -0.01261214028568        0.34614711998644       -0.11044178055752
C           -0.00710180602944       -0.50184592968437       -1.37911099957609
C           -0.00073476434346        0.32804689222062       -2.67614838890231
O            0.00124688075435        1.57246362708128       -2.59875652996846
O            0.01833701104413       -0.31603523365518       -3.74138159938162
H            0.81283277511029        0.88081778631768        2.39502133688690
H           -0.83668910644447        0.89485916693179        2.39601280896661
H           -0.87334219608520       -1.18539180369035        1.11959309602966
H            0.88854443941215       -1.16308621558535        1.11653665965743
H            0.85333279844187        1.00501578442960       -0.13956689254921
H           -0.89412881625344        0.98277120679285       -0.12665526873641
H           -0.88505454202537       -1.14535515617361       -1.43146242875392
H            0.87176934462939       -1.14511174686607       -1.42104166939500
H           -0.02941428958179       -0.32052594130935        3.20029805296639
O           -1.48620019819310       -1.11767420687435        5.05621867231047
H           -1.44640725062077       -0.96159960969021        5.99367742441363
H           -2.27044416013971       -1.64624069808964        4.90953645116748
O           -1.85844821144606        2.74961448725043        2.77487283856170
H           -2.65100726276759        2.61422942818202        3.29688116783631
H           -1.73625721022060        3.69894949430886        2.73067529234432
O           -1.17403948727172       -3.69180497274106        5.50762941604589
H           -0.22111747675453       -3.66021329949555        5.52424804087643
H           -1.46816321272606       -3.38636411143040        6.36333391533519
O            0.08923316287044        1.76542532123507       -7.85321474539353
H            0.96509774208843        1.37356568830245       -7.83827890843669
H           -0.51168638944488        1.05710034486815       -7.61542992887436
O            0.66768891881474        3.80955027067790       -4.21377803618544
H           -0.09950850428752        3.27287929622054       -4.45087079844212
H            0.90649044294806        3.43912265603036       -3.35213508646187
O           -0.61808618711530        4.23022002022748       -1.66815198352374
H           -0.94170102427065        4.37179918653144       -2.56655021940412
H           -1.40073100053197        4.00479790820237       -1.14981192037363
O            0.69462741886272       -1.69868705151120       -7.39851678366616
H            1.46076403118075       -1.24089780461998       -7.74703958709343
H            1.00395013745412       -2.18801347895808       -6.63291405768723
37
 energy: -59.817162580382 gnorm: 0.051467655810 xtb: 6.7.1 (edcfbbe)
N           -0.02943535083333        0.29512206279567        2.37602520543145
C           -0.01187155948793       -0.52987980396272        1.14292510721450
C           -0.01468425604365        0.34535514124766       -0.10469277090267
C           -0.00531972356093       -0.50936800922407       -1.36620015538770
C            0.00871441338503        0.31261002031567       -2.68266974993159
O           -0.01324375355045        1.55966968532563       -2.60071192817402
O            0.01918945448169       -0.34985125040561       -3.73359228827715
H            0.80947440987250        0.88022396502260        2.41275299460269
H           -0.83815808795638        0.93804132276035        2.38419123598674
H           -0.88836416415487       -1.17297717442266        1.12863662197038
H            0.87807254507354       -1.15645641340605        1.14000540505940
H            0.85485105255132        1.00043891904274       -0.14174561475368
H           -0.89759971866478        0.98180239611387       -0.13429738088501
H           -0.88411115827770       -1.15298472016621       -1.42630807561769
H            0.87562036141179       -1.15075494444732       -1.41023338620990
H           -0.08135267859746       -0.29481741101377        3.21741153049094
O           -1.47553136965483       -1.04612280334160        5.01831425873595
H           -1.44106091683268       -0.90454304894964        5.96364272693839
H           -2.21928003076324       -1.64796807415598        4.86224470085116
O           -1.85777578351642        2.69164832321694        2.78792341421317
H           -2.68179884330645        2.60437853213526        3.28100311459892
H           -1.68686495543574        3.63710584760886        2.71723092563046
O           -1.18105750523541       -3.70880180847285        5.52311267630621
H           -0.22243568273053       -3.68875316624718        5.50075995553949
H           -1.45106292621203       -3.45964424799041        6.40897270395682
O            0.06347132738033        1.75672325436240       -7.90006696222272
H            0.96829567187169        1.41583610440883       -7.81576886875761
H           -0.50617291681248        1.03343420017887       -7.61316212735139
O            0.65547799790672        3.85200596142559       -4.20925685355778
H           -0.05855904639402        3.24469685211271       -4.49859937700600
H            0.92004070920678        3.42134108532595       -3.37479234970993
O           -0.63062184254237        4.32427846409683       -1.59215835391923
H           -0.88694030284404        4.38665579076187       -2.53843675756520
H           -1.45366400424418        4.00129783241455       -1.15189761960056
O            0.70393636872837       -1.69806318386543       -7.42442265580488
H            1.50140341013095       -1.27623233989129       -7.75842337723850
H            0.95595585565215       -2.16726436070859       -6.61663592465223
37
 energy: -59.820601375361 gnorm: 0.059072654177 xtb: 6.7.1 (edcfbbe)
N           -0.05467178396639        0.31898168470481        2.38939712729153
C           -0.02840839340162       -0.51669729690265        1.16010023708540
C           -0.01900437680494        0.34498696860358       -0.09679607727567
C           -0.00653292381689       -0.51946766801320       -1.34800576199884
C            0.00862088375482        0.29156267022591       -2.69274626178755
O           -0.02649363261821        1.54034235571557       -2.60695063221403
O            0.03296113015482       -0.39961975411267       -3.72873420852881
H            0.80706194962894        0.87555966359259        2.44118565566019
H           -0.83992700386374        1.00142549511203        2.36792844516742
H           -0.91053431492016       -1.15664534064294        1.14264159498513
H            0.86299683615337       -1.14636000882942        1.17329117497875
H            0.85645107814722        0.99500956003930       -0.14234074247465
H           -0.90439052247882        0.98174462089806       -0.14224953444150
H           -0.88676198205471       -1.16411121507078       -1.41451550743134
H            0.87833666912719       -1.15880066421328       -1.39594929421676
H           -0.16050342477524       -0.25969943378052        3.24100076514562
O           -1.46253156403974       -0.93520108942482        4.95511790403003
H           -1.42218516654736       -0.82314674871542        5.91620639949684
H           -2.14829222826410       -1.63666991684684        4.79691101559977
O           -1.85590490182287        2.61458489516668        2.79869941470422
H           -2.71209805691330        2.58322784305272        3.26197671266068
H           -1.62116218692521        3.55399037690119        2.70647495741553
O           -1.19558804010289       -3.74094709122669        5.54645710527472
H           -0.22690050514837       -3.73308572293188        5.46804925775899
H           -1.42799009780366       -3.56656666733953        6.47601111961407
O            0.04235015425126        1.74782216933427       -7.92523735396309
H            0.96979946644822        1.46153966661004       -7.81075748530079
H           -0.49894468332012        1.00376719148970       -7.62303891649553
O            0.67822709958202        3.81000214824559       -4.23554856668386
H           -0.04606511200098        3.26976929830345       -4.53523071593735
H            0.90766570765595        3.42874665555674       -3.38598100367006
O           -0.65730221755587        4.31514978329238       -1.54893587470345
H           -0.83296065860308        4.46769335409535       -2.48388410979751
H           -1.47609914483853        4.08232361504936       -1.12646369846569
O            0.71620666404247       -1.68988818135066       -7.44720048077882
H            1.55571657400266       -1.32819114318229       -7.77758914489340
H            0.90239570964082       -2.14494907340338       -6.60221351580959
37
 energy: -59.824855876966 gnorm: 0.038268721702 xtb: 6.7.1 (edcfbbe)
N           -0.07671194853428        0.33862120430520        2.39710169749480
C           -0.04507570532024       -0.50310235786475        1.17299593642541
C           -0.02437383648205        0.34736988562754       -0.09268982570078
C           -0.01099833209912       -0.52573034218926       -1.33804924312581
C           -0.00615101032973        0.28009316687613       -2.69146591660407
O           -0.02412368793089        1.52572952511676       -2.61403466403695
O            0.05086028909865       -0.42198809497554       -3.72736859613011
H            0.79999325121517        0.87374846721588        2.46418008848057
H           -0.84793729604536        1.04122306532586        2.36083003223648
H           -0.92898033346612       -1.14265103183719        1.15503495681251
H            0.84491216297488       -1.13711680486041        1.19769622195529
H            0.85394410230444        0.99492465581908       -0.13369249692262
H           -0.90822349365062        0.98743169455678       -0.14294025783739
H           -0.89142504038050       -1.17147166972284       -1.39721799647576
H            0.87555365323741       -1.16513352393405       -1.38163957957179
H           -0.21613331878639       -0.23386183471287        3.25123554464189
O           -1.41745458228711       -0.93154762110038        4.90290446991614
H           -1.37833949693302       -0.76049747307476        5.85395571431389
H           -2.13424763808072       -1.54268272627112        4.75850745034116
O           -1.85022536817334        2.57315235065195        2.77926588543188
H           -2.68759836778527        2.53315740931270        3.25522539376433
H           -1.60309972299726        3.50582551365525        2.72269225023343
O           -1.20570894934685       -3.77791241292228        5.56203250580110
H           -0.23800958539694       -3.78008620851274        5.47669696329392
H           -1.42257107255907       -3.61624509167310        6.49745471915599
O            0.05294282017675        1.74864110038511       -7.88207072914021
H            0.96148840573599        1.46027427969306       -7.85161309630483
H           -0.49489545288572        0.99514591420159       -7.64913435633167
O            0.65626375552932        3.84212029840408       -4.21669266397652
H           -0.02528054613427        3.25640992485865       -4.58045949928869
H            0.90125434087841        3.39888422516529       -3.39033375505751
O           -0.66689123207788        4.35959712882040       -1.50308335782415
H           -0.77476243500837        4.50297653207126       -2.45751125762894
H           -1.51861569911628        4.09509062533261       -1.14282158032432
O            0.71979774742385       -1.67860148054400       -7.43475677366490
H            1.56617484535170       -1.35534662598844       -7.79131575279035
H            0.91218577788706       -2.14825866720859       -6.61783843156361
37
 energy: -59.827812139484 gnorm: 0.056693491502 xtb: 6.7.1 (edcfbbe)
N           -0.10423520132182        0.35820495270083        2.40675078225485
C           -0.06736916843767       -0.48851309082523        1.18884815087129
C           -0.03099347834032        0.34907655929039       -0.08683781209067
C           -0.01072316441371       -0.53596414860753       -1.32598687094608
C            0.00925283570445        0.26706217296480       -2.67877372890232
O           -0.01967795084953        1.50868351865885       -2.61379942153133
O            0.04728997040491       -0.43066866090148       -3.71235240735409
H            0.78178836130895        0.87073787122132        2.49451413190393
H           -0.86010712530411        1.07527797775305        2.36037415742264
H           -0.95035634060004       -1.12667453806299        1.17028461028285
H            0.81747673884463       -1.12695550339652        1.22501385727774
H            0.84832976683093        0.99345957538128       -0.11650735983313
H           -0.90755218320979        0.99621857747919       -0.14364459057832
H           -0.89210807249208       -1.17895272907678       -1.37934348880123
H            0.87228055757280       -1.17853156685264       -1.35486338391489
H           -0.27531480588433       -0.20632143005568        3.25855472931974
O           -1.37452210633416       -0.88003705694995        4.82962851357327
H           -1.33846476805162       -0.68472492747171        5.77116513024789
H           -2.05571714859264       -1.54676302014939        4.71205534327532
O           -1.83647564247608        2.52517903367618        2.76366712711163
H           -2.66644442823131        2.47564482546025        3.23215904265975
H           -1.58694349019218        3.44716842633518        2.73662273450874
O           -1.20754626024298       -3.76396776978947        5.56110687816023
H           -0.25517405756465       -3.84017456388513        5.51611047899161
H           -1.42554123949269       -3.66151391297669        6.50116074614174
O            0.02663602910070        1.73817744108993       -7.90843011373602
H            0.96019111057346        1.50619668111825       -7.84836998083266
H           -0.47699708560311        0.95195103487071       -7.66564624662557
O            0.64154814633575        3.84563440628094       -4.20140715703144
H           -0.02655784918237        3.27804395500402       -4.60808126350107
H            0.88419551600716        3.36053104567250       -3.39075626632737
O           -0.66146915423559        4.45913759976232       -1.44854939957069
H           -0.71898268175189        4.51940806569807       -2.42904944078476
H           -1.55283384934602        4.08374915600256       -1.17399077514735
O            0.73248957057280       -1.69848205252212       -7.46284079965146
H            1.57265049953098       -1.36775859542592       -7.78695527237610
H            0.90551514937147       -2.12535630946760       -6.62075063447004
37
 energy: -59.825826790848 gnorm: 0.093233428966 xtb: 6.7.1 (edcfbbe)
N           -0.12675562417516        0.36975232911313        2.41527079080833
C           -0.08737925784323       -0.47876212737580        1.20344475868876
C           -0.03770614379777        0.35021091808243       -0.07928228492016
C           -0.01077731155444       -0.54519401821550       -1.31362406881562
C            0.03011814408826        0.25342064159539       -2.66034265292053
O           -0.01344605284935        1.49134438173721       -2.61223991052610
O            0.04377271484466       -0.43705612799941       -3.69513959803854
H            0.76429648660723        0.86201525872812        2.52481381598186
H           -0.86907702459869        1.09637572587789        2.36245580748854
H           -0.97071232596542       -1.11388845291217        1.18348408641253
H            0.79174247623048       -1.12188567706158        1.24682260293538
H            0.84357857413691        0.99102815305705       -0.09844204894988
H           -0.90695171241651        1.00454724597451       -0.14289399159533
H           -0.89340835338303       -1.18550088087397       -1.36139834788956
H            0.86853194231872       -1.19106559231488       -1.32593754647739
H           -0.32594014256930       -0.18746984333298        3.26283812167198
O           -1.33255607025830       -0.83245888677382        4.75416822267027
H           -1.29265621368020       -0.61309089283070        5.68613000932686
H           -1.98132830863368       -1.55729035365324        4.67200098653822
O           -1.83434119233758        2.48620047310369        2.74864212096700
H           -2.66698042290281        2.44310713293222        3.20814195923284
H           -1.55529320009618        3.39915913044997        2.75526775023207
O           -1.21324427458086       -3.75066997815313        5.56611029860433
H           -0.27177290770371       -3.89798930038055        5.54889777571384
H           -1.42592031475566       -3.69109887937698        6.50266140019422
O            0.00472698819696        1.72889015451292       -7.94137252221005
H            0.95810802380611        1.53846890343801       -7.84342802466537
H           -0.46076745418431        0.91804309734812       -7.67838266700260
O            0.58645511635311        3.91835058301574       -4.15382760611218
H           -0.00174976234549        3.25186719399239       -4.66317308186264
H            0.86519448461002        3.30413441566752       -3.39485941432815
O           -0.65627969508992        4.46399174705168       -1.46445009833601
H           -0.74647447865617        4.53411790054493       -2.39959492116945
H           -1.49958575025401        4.16471442220768       -1.14698012583592
O            0.74447593315885       -1.70870060727363       -7.49262901120082
H            1.59417689274445       -1.39240054091048       -7.78470258633348
H            0.88346321754603       -2.09703464898721       -6.61736999828159
37
 energy: -59.830980672412 gnorm: 0.052757346826 xtb: 6.7.1 (edcfbbe)
N           -0.13099594361018        0.36809264352606        2.41844138503770
C           -0.09319374025413       -0.47973640784278        1.20913386134222
C           -0.04004819316849        0.35116500910469       -0.07190678049998
C           -0.01362321118069       -0.54484999934446       -1.30535272981544
C            0.02429399965668        0.24818624581461       -2.64885831158283
O           -0.00524449723893        1.48764162608608       -2.60872598235662
O            0.05833043064308       -0.44612252362212       -3.68579720734786
H            0.76080191097354        0.85199529823145        2.53776829090579
H           -0.86714375787743        1.10073599969440        2.36024433645029
H           -0.98101122447067       -1.10901633255007        1.18642987761212
H            0.78311539989593       -1.12594905484060        1.25233994014870
H            0.84393545229916        0.98963722303491       -0.09368927657890
H           -0.90813529697250        1.00693398296660       -0.14252640095427
H           -0.89568174607675       -1.18640065054596       -1.35270865069714
H            0.86581807194122       -1.19115120714998       -1.31573423558188
H           -0.34625358834768       -0.18528210869083        3.26616615692769
O           -1.30948979460327       -0.82456364732365        4.72097956652117
H           -1.26487571442839       -0.58387163913769        5.64978174070362
H           -1.96412440976560       -1.53043112601578        4.65373837320350
O           -1.84817146600106        2.47600921654552        2.73973978276486
H           -2.69281241768279        2.44913425045965        3.19657636852039
H           -1.52546403969569        3.38927838281147        2.76765564730058
O           -1.22194942692254       -3.76159578312678        5.58099008324245
H           -0.27327959281320       -3.92238894064028        5.54287292032679
H           -1.42453857050131       -3.70335741081710        6.51241236161909
O            0.01359074792101        1.72888265313892       -7.93067213965149
H            0.94961184672860        1.52042694774941       -7.85908551777589
H           -0.45913464109035        0.92314212271424       -7.68876340656895
O            0.62454619432232        3.81660154831498       -4.20001842876977
H           -0.04240394472075        3.29592461587493       -4.62768640164107
H            0.84012492899888        3.35822392703165       -3.38925341319595
O           -0.65970048543221        4.48440720597851       -1.45852160237163
H           -0.73863810151500        4.51495991750383       -2.40395185635046
H           -1.49197401085181        4.20752983194474       -1.14040359899915
O            0.74513329076103       -1.69192057672256       -7.49116795932970
H            1.62289805895575       -1.42265737746731       -7.79280344106621
H            0.86322448213420       -2.09143086268404       -6.61656335149645
37
 energy: -59.829168139376 gnorm: 0.091249904333 xtb: 6.7.1 (edcfbbe)
N           -0.13412744606217        0.36497496424795        2.42552165352634
C           -0.09968767205978       -0.48362985938310        1.21540007728571
C           -0.04039564672194        0.35170500509324       -0.06069368689984
C           -0.01837035595357       -0.54124176144428       -1.29302310415320
C           -0.00560517476230        0.24314599997054       -2.64667554940839
O            0.00737581039457        1.48879989984786       -2.60609656006361
O            0.09495370039245       -0.47052321239908       -3.67567577872695
H            0.76906845131948        0.83451385934018        2.55148508330453
H           -0.85973381039441        1.11864464722016        2.35208773105786
H           -0.99703608913439       -1.10164145355773        1.18874801638154
H            0.77270484509828       -1.13693350340826        1.26008533421773
H            0.84732939575458        0.98588114786420       -0.09026507503424
H           -0.90995376246983        1.00641251367074       -0.13878785164093
H           -0.89915808221961       -1.18498587593177       -1.34357204553939
H            0.86246879776028       -1.18794374104485       -1.31058629561459
H           -0.37702218936556       -0.18647587648954        3.27860260796698
O           -1.29965470768199       -0.77952353330229        4.68813844386847
H           -1.24441106378839       -0.54927725346607        5.62207285969853
H           -1.91730142946329       -1.54316923505077        4.63242038587122
O           -1.84034459108930        2.47258403460289        2.75802984996314
H           -2.70656531237148        2.45216206114809        3.18968314976828
H           -1.51324120559841        3.38227309945294        2.77872446444889
O           -1.23652465563771       -3.72367581173958        5.58280297290232
H           -0.28095278659672       -3.92996265841720        5.50260108213019
H           -1.41882765033872       -3.77155492668769        6.56573582099170
O            0.00870572324131        1.72065731797160       -7.93500344178287
H            0.94583655634523        1.53052395712338       -7.86558716444519
H           -0.45361662315088        0.90828105213419       -7.70557977770461
O            0.60910105069870        3.83259943366858       -4.17944485994098
H           -0.03775388552834        3.31032210865210       -4.66779259220314
H            0.81093570325590        3.30074901408540       -3.39215576344488
O           -0.67382612700073        4.52975062634409       -1.39123351383379
H           -0.60971529854124        4.52943260605015       -2.41444202333729
H           -1.59569204352442        4.20462354987495       -1.19001789234244
O            0.74470653011163       -1.66818673764182       -7.48302379884710
H            1.64907097750853       -1.45586947036330       -7.81131076103376
H            0.84479706758541       -2.08525898803076       -6.62009199739170
37
 energy: -59.834561447878 gnorm: 0.038925922599 xtb: 6.7.1 (edcfbbe)
N           -0.13530089547761        0.36199385303872        2.42804226033536
C           -0.10589861710712       -0.48480562786214        1.21896678449162
C           -0.04209928289539        0.35082163337184       -0.05668628831994
C           -0.01582333133068       -0.54401538653153       -1.28857666993076