34
 energy: -56.600284730311 gnorm: 0.184662828645 xtb: 6.7.1 (edcfbbe)
C            0.00071700000000       -0.52255800000000        0.67804400000000
C            0.00015500000000        0.09392700000000        2.05036800000000
O           -0.00019500000000       -0.63013100000000        3.03226200000000
O           -0.00079700000000        1.43155900000000        2.21643300000000
C            0.00098900000000        0.52531100000000       -0.44326000000000
N           -0.00030100000000       -0.11659100000000       -1.75665200000000
H            0.90259300000000       -1.16292800000000        0.57888800000000
H           -0.90264000000000       -1.16023800000000        0.57901700000000
H           -0.90200200000000        1.16741300000000       -0.35103700000000
H            0.90366600000000        1.16894900000000       -0.35172000000000
H           -0.85706900000000       -0.70553200000000       -1.86752300000000
H            0.85322800000000       -0.71006900000000       -1.86779500000000
H            0.00165600000000        0.62088700000000       -2.49702600000000
O            0.99262100000000       -4.11014100000000       -1.05968100000000
H            1.96474300000000       -4.23685300000000       -1.19944500000000
H            0.60874300000000       -4.10946000000000       -1.97250700000000
O            1.61906500000000       -3.11214300000000        3.83832300000000
H            1.14477400000000       -2.80954900000000        3.02340100000000
H            2.54362500000000       -2.77547800000000        3.72671000000000
O           -1.48336500000000       -4.26783200000000        2.16815000000000
H           -2.24393900000000       -3.63951700000000        2.25394200000000
H           -0.68095600000000       -3.68752700000000        2.16809600000000
O            2.99043900000000       -0.32045600000000        4.07198200000000
H            3.31866500000000        0.46454000000000        3.56536700000000
H            2.08178100000000       -0.48444700000000        3.71412600000000
O           -1.44441500000000       -3.34493100000000       -1.78598400000000
H           -2.25518300000000       -3.54023800000000       -1.25201600000000
H           -1.51153400000000       -3.94797400000000       -2.56857400000000
O           -1.46326600000000       -3.08962200000000        5.35713000000000
H           -1.39483900000000       -2.67060000000000        6.25175200000000
H           -2.34808600000000       -2.80396200000000        5.01638800000000
O            2.10095700000000        2.68820300000000        4.05408900000000
H            2.87455000000000        2.60307100000000        3.44178500000000
H            2.24264000000000        1.98103800000000        4.73265800000000
34
 energy: -56.625022796286 gnorm: 0.093590911935 xtb: 6.7.1 (edcfbbe)
C           -0.00009952039194       -0.51050502180797        0.66369514877120
C           -0.00506860814860        0.10242096260280        2.05397642153284
O            0.04100101655584       -0.64593760263439        3.04247792679487
O           -0.01245989639949        1.38795211472893        2.16020516063655
C           -0.00115176210240        0.53188484752513       -0.44720261968257
N           -0.00155021522204       -0.11858931318531       -1.76818972377074
H            0.88616701677497       -1.15393312187245        0.58657082073280
H           -0.88265731430099       -1.15809499483240        0.58796241326733
H           -0.88556108374138        1.16863509188162       -0.33701697376073
H            0.88315143614317        1.17014231303441       -0.33941161095288
H           -0.83834778972088       -0.71619248322591       -1.87212933559643
H            0.83764880027126       -0.70985196238711       -1.87205451320228
H           -0.00229217092026        0.60033391302324       -2.50847428744180
O            1.03319407002697       -4.08192837948611       -1.05983692861518
H            1.97689054017919       -4.25837775437760       -1.20572839096860
H            0.62628846437356       -4.11474298811304       -1.94359503864552
O            1.64712005650687       -3.16441825141930        3.80535649608997
H            1.14700840943537       -2.76822768229010        3.06366032860432
H            2.53465219115320       -2.76312198208043        3.73994981087627
O           -1.49403405608283       -4.26014237979938        2.11740108684262
H           -2.23163465273125       -3.64539628546611        2.27561804552119
H           -0.69683080393661       -3.70686260330757        2.20003042756765
O            2.99104482540640       -0.33621110974664        4.04478674403915
H            3.30678379897216        0.44092867831627        3.55379701410509
H            2.06409302480152       -0.46053957539127        3.75822754060907
O           -1.50834647115404       -3.28892119318452       -1.83979022693353
H           -2.23734404168668       -3.55420353501271       -1.24733864562025
H           -1.53667967695384       -3.94744603941016       -2.55801695365152
O           -1.48883568608584       -3.09634225908830        5.36979111635637
H           -1.38944815212292       -2.66509546244178        6.23485712993726
H           -2.34613738952181       -2.79094665602602        5.03186263127826
O            2.13067964022864        2.70643942863154        4.07975814784920
H            2.87080016633093        2.61503960310645        3.45655641486934
H            2.23897583406428        1.97837268373675        4.71793542256053
34
 energy: -56.634693909609 gnorm: 0.040880979397 xtb: 6.7.1 (edcfbbe)
C            0.00327110202461       -0.51374237657938        0.64613279563115
C            0.03173195314128        0.11996390775633        2.05373441064518
O            0.12551453066394       -0.67106051046672        3.02872797166669
O           -0.05142236189448        1.34690620854352        2.12573811483018
C           -0.00608950140681        0.53353383564293       -0.44702041578464
N           -0.00657338225033       -0.12254068397275       -1.77608828426355
H            0.88006844154487       -1.15651713364896        0.57924835382938
H           -0.87112795665249       -1.16177727742809        0.59561188031840
H           -0.88086050141062        1.16494438992567       -0.32907276624745
H            0.86914272385581        1.16664950542588       -0.33745777707031
H           -0.82418962439773       -0.73563180720275       -1.86889998457689
H            0.82415128643456       -0.71125508328835       -1.86972082721017
H           -0.01315649249056        0.58033542348062       -2.51880541201155
O            1.07574978273531       -4.04596532083398       -1.06007931910682
H            1.99557977065753       -4.27793678798698       -1.20744177856788
H            0.63965499019671       -4.10734352195495       -1.91543150155342
O            1.67484822781577       -3.20674363323160        3.77401721160885
H            1.14161398724553       -2.70538362799392        3.11844246583307
H            2.53158580809835       -2.75709759133422        3.75634613126255
O           -1.51013013420974       -4.25302933347437        2.06960543017669
H           -2.22588163154707       -3.64883478390693        2.29248022087769
H           -0.70713834883362       -3.74012211743028        2.23224125249777
O            2.95575146137308       -0.34190272071560        4.03819248583350
H            3.29921442458178        0.39444390859440        3.52819895901814
H            2.02961180339944       -0.44759163529485        3.78240183813135
O           -1.52513519901334       -3.28625283653772       -1.86154170378129
H           -2.22646537323264       -3.52263730955873       -1.26106883720888
H           -1.58241909066170       -3.90862560067794       -2.58057337288918
O           -1.52043314569640       -3.09869910148891        5.37811099514088
H           -1.37913248550726       -2.66811266199298        6.22341679714155
H           -2.36058597548692       -2.77707836511181        5.05237256045288
O            2.15286467890030        2.71644189601142        4.10415176207896
H            2.87629710657529        2.64543954516241        3.48070042520595
H            2.24110912544863        1.98334420157056        4.71902091809085
34
 energy: -56.638300020218 gnorm: 0.088256855947 xtb: 6.7.1 (edcfbbe)
C            0.01091536898746       -0.53238402556703        0.63611019816021
C            0.04629638919419        0.12572321702519        2.04941672170126
O            0.24640688652030       -0.68239809008543        3.01362508724408
O           -0.07964226919239        1.34469507029073        2.10909360937178
C           -0.01234838439135        0.52097291288983       -0.44971796434443
N           -0.01205624279506       -0.13271652930514       -1.78364523122137
H            0.89163470885088       -1.16756046770097        0.56697396410685
H           -0.86316367365298       -1.18034348684398        0.60182854952904
H           -0.89064241318997        1.14837138040533       -0.32894846045026
H            0.86089968861676        1.15924272437208       -0.34485776581621
H           -0.81990500250035       -0.76069078269140       -1.86687358115874
H            0.82239785327768       -0.71709005863346       -1.87146715607606
H           -0.02809885469465        0.56470399870045       -2.53100134510269
O            1.13461371302887       -3.95378365906362       -1.05180857656407
H            2.03001681304084       -4.32828204667945       -1.20995031112688
H            0.65161544749658       -4.12226007616039       -1.88356003175782
O            1.68982334586623       -3.22780792519691        3.75058837465360
H            1.13752862544819       -2.64850986325218        3.16143883605079
H            2.53071569591226       -2.74244717595888        3.78312661595134
O           -1.53124323697121       -4.24971999731218        1.98603415486051
H           -2.22562940343195       -3.64737975343839        2.33425932030049
H           -0.70641952506228       -3.78426666433310        2.28121320821105
O            2.92218686173149       -0.36627872545232        4.01858925788213
H            3.28622536375260        0.34708132716770        3.48810539128075
H            1.96618073318052       -0.42222292609893        3.82242156709932
O           -1.59946433661571       -3.18088145500114       -1.95918032950419
H           -2.17764459552897       -3.53418844969163       -1.21888827943510
H           -1.62003290156173       -3.91541388716047       -2.59620043682257
O           -1.56850459490754       -3.12473734238254        5.39033461857680
H           -1.35177667092661       -2.66023161227618        6.21142684529262
H           -2.39123485632760       -2.73891189749611        5.07527103342796
O            2.18657192737891        2.75340320452879        4.15125044732253
H            2.88442499309666        2.67675882203551        3.49732174822704
H            2.23637254637183        1.96567524036797        4.71336092012952
34
 energy: -56.642059330517 gnorm: 0.061000509506 xtb: 6.7.1 (edcfbbe)
C            0.02397044982963       -0.55189876487608        0.63039055289309
C            0.06951435894244        0.12321050910476        2.04644543120808
O            0.34353891587803       -0.68716150054797        3.00276626501311
O           -0.11193878297100        1.34847705106622        2.09855881761792
C           -0.01539402230373        0.50351089099399       -0.45456764174106
N           -0.01717587997170       -0.14716988326353       -1.79164513365405
H            0.90506635385002       -1.18552534808254        0.55442714176528
H           -0.85447938043805       -1.19462920581210        0.61219728692138
H           -0.89875231846241        1.12731311233652       -0.32831108590051
H            0.85559689740965        1.15011492350898       -0.35498516637773
H           -0.81744280678004       -0.78931493865909       -1.86545356674928
H            0.82371502777932       -0.72596222087985       -1.87685011174152
H           -0.04472692200771        0.54697106108045       -2.54391403867944
O            1.17587511357715       -3.95215721608635       -1.04550717228765
H            2.06133220511052       -4.30790780406597       -1.21150306735253
H            0.66748094892575       -4.10149419231680       -1.85866094274850
O            1.68110621846544       -3.18346579055863        3.75579696506748
H            1.14891987557309       -2.63187174862501        3.17886666457945
H            2.53030062999274       -2.73945376069587        3.80867781347494
O           -1.53429088455544       -4.24934563353372        2.05691923266344
H           -2.22879939075812       -3.65309878529295        2.30784894617740
H           -0.71438281715213       -3.80882307310335        2.23668595847807
O            2.88149656533596       -0.37725590975492        4.01793286402729
H            3.27401611790824        0.30161741615691        3.45129005197835
H            1.91829743136288       -0.41205001971004        3.83622878567051
O           -1.59777518810525       -3.18823204588970       -1.96087221408187
H           -2.19967912117339       -3.46845863115689       -1.25500396001198
H           -1.65603851830546       -3.87729698504390       -2.62969185655802
O           -1.60689329849339       -3.14950113672978        5.40094866679884
H           -1.32709766729378       -2.66912359490135        6.20565798960357
H           -2.41850813997609       -2.70943468676076        5.10218200987410
O            2.21577618245152        2.78887099085102        4.19847130594961
H            2.88814826139065        2.70551485572502        3.51073006472092
H            2.23624358496732        1.95115306552545        4.70963414340042
34
 energy: -56.639137297594 gnorm: 0.113849636965 xtb: 6.7.1 (edcfbbe)
C            0.04121159831020       -0.56636227165174        0.63048434994008
C            0.11676336391657        0.11177092547022        2.04190191640251
O            0.32618790722146       -0.67685461218241        2.98969140385192
O           -0.11936436565501        1.34757564004433        2.10790223299610
C           -0.01092349776607        0.48371856949944       -0.46275553294302
N           -0.02051633913726       -0.16627798994425       -1.79767031742483
H            0.91254453976505       -1.21510310936991        0.54371418676782
H           -0.85310282063255       -1.19052570922940        0.62324464432959
H           -0.90139761252953        1.10391533662413       -0.33036613667573
H            0.85891059266204        1.13963121553865       -0.37131424162518
H           -0.81828953055868       -0.81766524367270       -1.86386762721554
H            0.82952418066714       -0.73787632828473       -1.88687587982607
H           -0.06101482869859        0.52847255755788       -2.55356267659449
O            1.19791280828238       -3.97162289239881       -1.04680081611138
H            2.07796889532724       -4.26317683568418       -1.20645336962786
H            0.68492987851650       -4.06601337960896       -1.84672661343183
O            1.70286319308504       -3.25871378335972        3.69631984733334
H            1.12957093722066       -2.52129134516130        3.23664360319760
H            2.52280590689614       -2.70912276750137        3.85188373251035
O           -1.55268800180121       -4.24337860493650        1.98239358411978
H           -2.22661037680487       -3.64390736089243        2.34522328984734
H           -0.70445595311560       -3.85706249482982        2.26878499102174
O            2.84203708009884       -0.35608244594884        4.06056032145730
H            3.26321462482101        0.26872448338540        3.43098260677231
H            1.92396340738403       -0.44695654578923        3.79654927577248
O           -1.56663639311891       -3.22833133580371       -1.92830266788129
H           -2.22996824734340       -3.39097700985592       -1.30908443154606
H           -1.68224729622755       -3.82442770660022       -2.66416279548274
O           -1.60763117092159       -3.11152354867605        5.39165912824990
H           -1.34729641631327       -2.70234063668405        6.21862414780051
H           -2.44117620142843       -2.71145167060858        5.12482856756040
O            2.20870789235364        2.77477846823098        4.20808933182829
H            2.89384105501522        2.72905946568239        3.52898623671284
H            2.26738119051197        1.97551996664354        4.73516670791321
34
 energy: -56.640461622333 gnorm: 0.108906513963 xtb: 6.7.1 (edcfbbe)
C            0.04177897147453       -0.56732757004857        0.62874133933944
C            0.11720901698377        0.10288876531144        2.03777299769223
O            0.30932217679150       -0.67619146635876        2.98044234221742
O           -0.08352902019072        1.32265554073699        2.11787219070267
C           -0.01014924493786        0.47579158057119       -0.46924268460203
N           -0.02224087150523       -0.17893963840331       -1.80056014091408
H            0.90770666358442       -1.22393793574273        0.54363442564413
H           -0.85416552651317       -1.18790204227701        0.62375336947537
H           -0.90201486104790        1.09147192769111       -0.33473761369033
H            0.85673694917742        1.13403955339772       -0.38072836127581
H           -0.81669921764263       -0.83384706174359       -1.86417247670387
H            0.83080283967744       -0.74459195938453       -1.89316014380444
H           -0.06968794157944        0.51432544146292       -2.55672350373603
O            1.22186784893744       -3.91115917287241       -1.04520522839016
H            2.08904542122720       -4.28912117232493       -1.20889882397152
H            0.68726959941423       -4.06829890369174       -1.83164945061484
O            1.66483458568129       -3.12012291829503        3.75552033255816
H            1.14508288412930       -2.57313837380810        3.21478034996045
H            2.53061314660319       -2.74914499011837        3.83246427899646
O           -1.56481342817302       -4.24176123882381        1.91828492049795
H           -2.22461446464488       -3.63959647441995        2.37432635924921
H           -0.69723693249090       -3.88535736454781        2.29927379048592
O            2.83952593162638       -0.35456832666097        4.06751729577572
H            3.24917355558441        0.26162889946391        3.43701615278039
H            1.93155187341914       -0.45994058695176        3.78074382662780
O           -1.56934506190677       -3.19979868613998       -1.96118453317819
H           -2.20194117975369       -3.37407089785737       -1.29239806245063
H           -1.70749615805296       -3.81295127338652       -2.68068719051904
O           -1.61130535272355       -3.08596190698451        5.38374079028575
H           -1.36065054695318       -2.72242482723818        6.22224571994804
H           -2.45651821173167       -2.71314956638844        5.14223543703875
O            2.20731574138793        2.76687262227062        4.21478236556470
H            2.89685418572835        2.74264589619941        3.54489352871898
H            2.28273662842173        1.98710512736490        4.74499740029099
34
 energy: -56.633531376951 gnorm: 0.155621679299 xtb: 6.7.1 (edcfbbe)
C            0.02812264700271       -0.56269402154495        0.62249493843091
C            0.04519982403557        0.09998966117772        2.03057136535409
O            0.36705678156538       -0.68793145692659        2.97980777361144
O           -0.04702260300282        1.29460201159954        2.11166720523039
C           -0.01451794905223        0.47344318207745       -0.47671600069107
N           -0.02321638012827       -0.18988746197034       -1.80387480474701
H            0.90038035196582       -1.21209455616359        0.54769460785988
H           -0.85178544239587       -1.20127565713243        0.61528194733695
H           -0.90364412910567        1.08397357003088       -0.34452865280559
H            0.84914848022964        1.12869974375270       -0.38873182558274
H           -0.81321287328640       -0.84496149911699       -1.86773233377895
H            0.82829561462552       -0.75014461922069       -1.89986807934483
H           -0.07430517964375        0.50043465967931       -2.55792213992328
O            1.24000818447922       -3.83051506998635       -1.03440513370054
H            2.10224332289294       -4.34116761746630       -1.21281104166415
H            0.67893189271583       -4.09111403266274       -1.81522540790965
O            1.67257043171519       -3.13493850549224        3.74532751044705
H            1.13294452772952       -2.52290529136083        3.23752366297611
H            2.53321819927847       -2.75634695904976        3.83946091199610
O           -1.54155702401270       -4.24623543475517        2.10104467425276
H           -2.22779182992793       -3.66005951978567        2.29579166243864
H           -0.71689455656215       -3.85605646277021        2.21035684020670
O            2.85941300750024       -0.36479912401466        4.03743479075901
H            3.23328453032378        0.26839694349144        3.44272125210314
H            1.91198980185148       -0.44167768205928        3.79869869951035
O           -1.59597981478299       -3.11441189975943       -2.04496572214036
H           -2.14646364696777       -3.40280201421170       -1.21856374272203
H           -1.73262747430316       -3.83361055689213       -2.68706921585052
O           -1.62699687882727       -3.10599618703685        5.38363066185197
H           -1.33052699620926       -2.73478996675812        6.22189251065481
H           -2.47061246371205       -2.70009313925602        5.17008033731623
O            2.22801334921468        2.80266699673878        4.23642664726598
H            2.89364405669497        2.75678309399596        3.54747014652447
H            2.26971023810123        1.96363987285090        4.72272695473366
34
 energy: -56.646994763750 gnorm: 0.064807921777 xtb: 6.7.1 (edcfbbe)
C            0.03120072418219       -0.57273124939942        0.62216317282392
C            0.09026023804438        0.08745913832286        2.02945943340941
O            0.37383354564389       -0.69826858719788        2.98111841974659
O           -0.08780602488809        1.31446914442683        2.10707735281314
C           -0.01654049779320        0.46645885847239       -0.47841626498434
N           -0.02450854933149       -0.19726219036499       -1.80438906123113
H            0.90293796817100       -1.22136538697408        0.53756397249278
H           -0.85436373506127       -1.20762107572818        0.61871524746397
H           -0.90639616232080        1.08051952318425       -0.34762968021536
H            0.84899982507801        1.12372931707588       -0.39306820704163
H           -0.81422219603814       -0.85532820257529       -1.86800992633156
H            0.83043302979108       -0.75558388496218       -1.90214683307288
H           -0.07853160511177        0.49333496767941       -2.56050382107084
O            1.22913489625786       -3.93436800257299       -1.03569491525546
H            2.10488479827081       -4.25663129197884       -1.20259865642131
H            0.69832222630964       -4.04356490025666       -1.82034384675774
O            1.67191680859649       -3.16975357091068        3.72653401249503
H            1.12666521947794       -2.48419163268243        3.24624991444594
H            2.53119251496598       -2.74540751075522        3.85793392194809
O           -1.55657790011116       -4.25094126785225        2.04921439899886
H           -2.22594430784093       -3.64052783825604        2.32080537362578
H           -0.70211414152381       -3.88399657088237        2.23563224436103
O            2.85761514750861       -0.35843761436393        4.05040387882041
H            3.24427837777576        0.26040854907278        3.42573290095855
H            1.90540976120184       -0.43928286075779        3.81088599169636
O           -1.57073115978245       -3.14403516190567       -2.00602845844448
H           -2.17996544840727       -3.36954060422879       -1.26929443042684
H           -1.72688369854855       -3.80496426107207       -2.69238177281778
O           -1.64271201077752       -3.11901777983745        5.38134197401202
H           -1.31675384321696       -2.73373586946645        6.21836682744328
H           -2.48778582554832       -2.68248662361729        5.18268361048785
O            2.23862622348074        2.81888975925627        4.25544709472427
H            2.89553700445416        2.76220095905297        3.54978070967506
H            2.26760879709398        1.94769472205727        4.71908642162879
34
 energy: -56.638452891573 gnorm: 0.152701095251 xtb: 6.7.1 (edcfbbe)
C            0.03868165027159       -0.59031142948781        0.62036046549402
C            0.16541843296901        0.07343831603011        2.02649176216248
O            0.36906081964394       -0.70269824685337        2.96805902409045
O           -0.11651531777416        1.31537940987576        2.11027437589865
C           -0.02136847433339        0.45074309600219       -0.48265168852791
N           -0.02914501578891       -0.21340602235967       -1.80825615201127
H            0.90462414432686       -1.24400795314464        0.52584084608389
H           -0.85870724769880       -1.21177112840270        0.62382176629555
H           -0.91466403943516        1.06665796744420       -0.35347704929607
H            0.84446774583984        1.11336215466809       -0.40129048911005
H           -0.81341424513058       -0.88322923585111       -1.86796457446715
H            0.83339013181745       -0.76540417904101       -1.90515203925084
H           -0.09160597647497        0.47524275139364       -2.56849151051425
O            1.28229054898499       -3.76552099153483       -1.03629039670033
H            2.11052790489637       -4.33214479567908       -1.22809575353141
H            0.67546556752031       -4.07683012923839       -1.78310273425301
O            1.65741933561137       -3.16688676297619        3.70837073655966
H            1.13585236483319       -2.48003999580432        3.24848499750673
H            2.51127685301542       -2.70747249520117        3.89275930206775
O           -1.57341015473596       -4.25450462229650        1.96435403849382
H           -2.22143004739110       -3.62415936509020        2.37119531414762
H           -0.68574123124580       -3.92482675598304        2.26412538001377
O            2.82155574669761       -0.32076283316947        4.10570288828900
H            3.25635207298235        0.23137988216801        3.39530175443618
H            1.91742274640776       -0.45469841505238        3.79362933899427
O           -1.55543655697834       -3.16386854471535       -1.96915682881834
H           -2.19068671432391       -3.32265511469018       -1.33746208240231
H           -1.72856818300477       -3.74976941980999       -2.70373780905236
O           -1.64374357874590       -3.09360966542445        5.38579990019445
H           -1.35380142143364       -2.74346399235187        6.22301620386517
H           -2.49531849016757       -2.69433944576152        5.19320078340586
O            2.21198687822215        2.76956342165920        4.23708194585582
H            2.90775356582404        2.77839936866358        3.57219014998959
H            2.30703018480125        1.99833617201663        4.76075913409063
34
 energy: -56.651232996235 gnorm: 0.052085543002 xtb: 6.7.1 (edcfbbe)
C            0.03285094720751       -0.59190431182550        0.61588923556882
C            0.10608215323954        0.07555510454000        2.02156999233271
O            0.40571951778973       -0.70785658980607        2.96342720655003
O           -0.07532285178686        1.29317895797987        2.10738192631128
C           -0.02391801490312        0.44554753271887       -0.48689571662549
N           -0.03042422018854       -0.22253160614707       -1.81152287751067
H            0.90067932709320       -1.24538142374543        0.52699297462122
H           -0.85820176465076       -1.21829834592911        0.61913606987345
H           -0.91717160548711        1.05792424220919       -0.35890447133472
H            0.83991980777985        1.10749469527886       -0.40577025922174
H           -0.81050107720883       -0.89576460267255       -1.86860965499532
H            0.83205759896483       -0.77149457574774       -1.90774211553522
H           -0.09657200903788        0.46352597427143       -2.57163271941455
O            1.27086441184189       -3.87155395794876       -1.03451979743966
H            2.11992299991634       -4.25713644645757       -1.20956029341767
H            0.70048742524741       -4.02317702507855       -1.78810722706501
O            1.65753927513045       -3.15279178587268        3.70829162502652
H            1.13129607916612       -2.47284680660125        3.26140069556161
H            2.50479651889562       -2.70721149737155        3.89005930865377
O           -1.56966322981816       -4.25220270409044        1.97091116309417
H           -2.21517736521497       -3.63331248178878        2.36904407925815
H           -0.69438266427361       -3.92683789256624        2.26230730058969
O            2.83258101446131       -0.32941489553932        4.08683150378466
H            3.24376017627929        0.23889563891902        3.41315241787056
H            1.91314410340325       -0.44825544055183        3.79916529476363
O           -1.56164710543063       -3.12413384338381       -2.00977190065366
H           -2.16538175512059       -3.32421988410136       -1.30265391629225
H           -1.74082881656970       -3.74591766152505       -2.71730031718920
O           -1.65437212329763       -3.09344797087589        5.38628264207968
H           -1.35152501965217       -2.75019457551098        6.22410842825532
H           -2.50589670961403       -2.69125091915235        5.20596427972304
O            2.21901877117149        2.77972988101483        4.24820693741579
H            2.90805222572834        2.79080255056024        3.57927637776827
H            2.30923397894081        1.99060366679944        4.75928280759295
34