34
 energy: -56.712782919113 gnorm: 0.000248755867 xtb: 6.7.1 (edcfbbe)
H            1.88908052036781       -0.89486231146843        0.06075338341447
C            0.81569829100534       -1.05738683704747       -0.04637736433532
H            1.16713240342821       -1.86827237626890       -1.94612471198344
H            0.52985386780303       -1.95501452904337        0.50323881767090
N            0.50008680714537       -1.22696455091095       -1.47627027509798
H            0.24665781320819        0.29854054617190        1.55505429278473
C            0.05897213504526        0.15173640008367        0.49245010664725
O            0.63376234838824        1.42232988400789       -1.46853073896764
C            0.42733619120136        1.47546550541621       -0.22879190753635
H            0.56526666432068       -0.25868033520578       -1.86577726101077
O            0.47398126467417        2.51141213152616        0.46108098436639
H           -0.47604816208957       -1.57901066980956       -1.59057799777025
H           -1.01556767318754        0.01141577274544        0.35198245138192
O            0.37053548105154       -3.92019291081992        1.72543170642995
H            1.34275846595366       -3.88998857026206        1.62609649652959
H            0.19957124241330       -4.00159373582974        2.66744767472664
O            2.32079799595687       -1.63469854887101       -5.29484488485488
H            2.78500134536316       -0.79706914398279       -5.38012440475032
H            1.49065051311107       -1.55166618631333       -5.77493440945328
O            2.30329389152220       -2.87723182883513       -2.83587858422143
H            2.38112612376631       -2.46261139560722       -3.71585883242371
H            2.06722116635085       -3.79815101893714       -2.98550944049027
O           -1.53601715113008       -4.57480288981989       -0.19220997424216
H           -2.24703467839732       -4.96238685276882        0.32494836856717
H           -0.81597368075595       -4.38127252044000        0.43611135805024
O            3.89898342585080       -2.15465683123720       -0.65476110078559
H            3.41031373280400       -2.43071940701062       -1.45137540357527
H            4.81127142488339       -2.02227511842953       -0.92586195765548
O           -2.02136255675755       -2.31450692601277       -1.63261182864297
H           -2.37842000138361       -2.59595661245008       -2.47942115428764
H           -1.88243845296272       -3.13202819567036       -1.10725846410327
O            3.09568350302729       -3.53524814322269        1.60426335032329
H            3.46965542772064       -3.01054110336428        2.31736812054270
H            3.37336931033222       -3.09423669033425        0.77798658469780
