34
 energy: -56.588539000521 gnorm: 0.173014474415 xtb: 6.7.1 (edcfbbe)
H            1.42053100000000       -0.69343900000000       -0.45759400000000
C            0.31562500000000       -0.64091500000000       -0.57275600000000
H            0.37944700000000        0.34125600000000       -2.37510200000000
H           -0.02020400000000       -1.57726700000000       -1.06978300000000
N           -0.04283300000000        0.48932200000000       -1.43082700000000
H           -0.10434400000000       -1.52577500000000        1.34227500000000
C           -0.35607200000000       -0.58177200000000        0.80987700000000
O           -0.15503900000000        1.84564400000000        1.27779400000000
C            0.09900500000000        0.57829600000000        1.65429800000000
H            0.33459400000000        1.38391400000000       -1.05046800000000
O            0.66999200000000        0.37333800000000        2.71201200000000
H           -1.08151800000000        0.54834700000000       -1.53303300000000
H           -1.45918500000000       -0.54094800000000        0.69330800000000
O           -1.28305200000000       -3.87635900000000        1.78490500000000
H           -1.95010100000000       -3.22016800000000        1.46076000000000
H           -1.81892600000000       -4.66824500000000        2.04252800000000
O            0.74350700000000       -5.21162200000000        2.03549200000000
H            0.13539200000000       -5.48110600000000        1.30188100000000
H            0.86953700000000       -4.23770400000000        1.90815700000000
O           -0.05995300000000       -4.25385500000000        4.74846800000000
H           -0.81411000000000       -4.27603000000000        4.10709000000000
H            0.67652300000000       -3.81772500000000        4.25046500000000
O            1.94532400000000       -4.62018600000000       -0.30468500000000
H            1.14125800000000       -4.04415600000000       -0.25696600000000
H            2.54530900000000       -4.26755000000000        0.39978700000000
O           -1.61974100000000       -4.35557800000000       -0.90551500000000
H           -0.74360900000000       -4.29844300000000       -1.36348800000000
H           -1.44752900000000       -4.91954300000000       -0.10996500000000
O            2.45307600000000       -4.06075200000000       -2.58491700000000
H            1.50479000000000       -4.28219400000000       -2.40512000000000
H            2.66486000000000       -3.33704600000000       -1.94303700000000
O            2.34158100000000       -2.46828200000000        3.78076600000000
H            2.55748800000000       -1.59107800000000        3.37517000000000
H            2.93227200000000       -2.52726600000000        4.57336800000000
34
 energy: -56.615644855600 gnorm: 0.088049879962 xtb: 6.7.1 (edcfbbe)
H            1.40257210922083       -0.68733970876756       -0.44946154451606
C            0.31291502983310       -0.65315346107278       -0.57524689515889
H            0.37689277655858        0.36518530612812       -2.36920722942346
H           -0.01855379268773       -1.57587743822610       -1.06877888775077
N           -0.04191198668071        0.48876729408567       -1.43234675183267
H           -0.11146697290605       -1.50096225062040        1.35439520015017
C           -0.35468276841942       -0.58437603865614        0.80124673816432
O           -0.13562670542404        1.78728081828145        1.22046663440430
C            0.08761430031610        0.58848301233578        1.66458586216383
H            0.30744145503438        1.37260520846120       -1.02227437541416
O            0.69496259166179        0.37971166325984        2.72198277187228
H           -1.06755210889055        0.55347340148197       -1.52802553792448
H           -1.44473660156198       -0.53325736866906        0.68789376529770
O           -1.34050431500203       -3.84896768239120        1.79070533064557
H           -1.99612277450140       -3.21401968455587        1.46540650532000
H           -1.84269170234034       -4.63724105449603        2.05429009747466
O            0.79227748258065       -5.24340718229197        2.04382354429613
H            0.18811053897114       -5.50427773171992        1.32829890074147
H            0.86341509129323       -4.27502332262170        1.95590908290727
O           -0.06394248222346       -4.24131726053192        4.74945787308286
H           -0.78871687660832       -4.26743723267331        4.10236954809731
H            0.67216793961102       -3.81870408984524        4.27186210827854
O            1.92108429972140       -4.61508973928406       -0.25487123103430
H            1.14752815934095       -4.02693467980443       -0.20140743542176
H            2.53854748321929       -4.29299394901084        0.41986366182177
O           -1.60702095052950       -4.34391877832303       -0.91856374336949
H           -0.75245534095747       -4.32553305853050       -1.37805006745441
H           -1.45578267642260       -4.90059526005464       -0.13470869221039
O            2.44337815988548       -3.98866807556337       -2.70610166808230
H            1.55295856638249       -4.30675629080685       -2.44253505815668
H            2.68345052597713       -3.37019719921350       -1.98198559215270
O            2.36817138452183       -2.48079966314103        3.76115824516115
H            2.52450403402921       -1.58815437077320        3.40301977175592
H            2.91767112699717       -2.52539113238925        4.56197406826734
34
 energy: -56.626656301663 gnorm: 0.042818713657 xtb: 6.7.1 (edcfbbe)
H            1.39059571405926       -0.68885920656629       -0.44712148863273
C            0.31276495188222       -0.67133033178599       -0.57715368493914
H            0.37755308214780        0.39891133013500       -2.35643135797560
H           -0.02192912602300       -1.57806292133516       -1.07125263377485
N           -0.04375812012380        0.48801943592923       -1.42669411745838
H           -0.12283997685246       -1.49017627330273        1.36469177214902
C           -0.34889679218204       -0.59468007051212        0.79227432896004
O           -0.15687075511837        1.73123762230278        1.18622127018759
C            0.15301271633428        0.61089405953763        1.62247957964709
H            0.26971229610872        1.35837236462513       -0.96810892395887
O            0.69810224727343        0.37997119325625        2.72478714877537
H           -1.05930989563729        0.55478187459744       -1.51715907200869
H           -1.42936735075592       -0.50929337844532        0.69067439505565
O           -1.39285938923886       -3.83587701830216        1.79725838929367
H           -2.03101521135026       -3.20600888739423        1.47588316730936
H           -1.87585800355742       -4.61067191125942        2.07718784394770
O            0.80607452751597       -5.27501980844858        2.09351405153640
H            0.24525901080992       -5.54153144324863        1.36457514179546
H            0.84826231483722       -4.31683143882661        2.02999026501535
O           -0.06389941799155       -4.22382536837271        4.75340035142164
H           -0.75908724784828       -4.25179757831137        4.09496491083970
H            0.68104182108946       -3.81434959357611        4.30431526704161
O            1.92140112359707       -4.54422936590505       -0.29550290664138
H            1.14374764279386       -3.99653525998383       -0.14273809451701
H            2.52905769081975       -4.34846881128892        0.42667174089981
O           -1.58964877109845       -4.32589371201924       -0.93930034887795
H           -0.75788809236607       -4.36334706015175       -1.41169522231949
H           -1.46808897508513       -4.87720866444135       -0.16380085880998
O            2.45159621076764       -3.95457883449149       -2.77655992572015
H            1.60464062513777       -4.32348640480288       -2.49086812736029
H            2.70287392619712       -3.38806049311738       -2.03583218654692
O            2.37693226376726       -2.48894833948969        3.74938920358461
H            2.47218358327704       -1.58629865929971        3.42514504331135
H            2.91040037681362       -2.53170404570451        4.54194007877008
34
 energy: -56.633972863397 gnorm: 0.067611185477 xtb: 6.7.1 (edcfbbe)
H            1.38927906673239       -0.69258560844713       -0.44224401729679
C            0.31135670388107       -0.68443037842138       -0.57104499009970
H            0.38491784585565        0.43183888413765       -2.33415181559412
H           -0.01837331640403       -1.58514949638224       -1.08027136555709
N           -0.05175736987971        0.48819250364548       -1.40805112068509
H           -0.12928902654050       -1.50195787711086        1.37621411372049
C           -0.35365647828691       -0.61245081700653        0.79679522740899
O           -0.08201129747713        1.72856337172685        1.09831675057963
C            0.11604709958915        0.62490597554883        1.62758148945738
H            0.23222108399442        1.35072579449114       -0.90839069781304
O            0.73748252297148        0.39407059818665        2.69028162553541
H           -1.06713591943968        0.54515229520201       -1.50708813266110
H           -1.43129269082937       -0.51421507915148        0.69119455608507
O           -1.42713891125940       -3.83156326160933        1.80089877827406
H           -2.06477693373337       -3.19498358398655        1.48681276315191
H           -1.90928997079964       -4.59692295357128        2.10962256330042
O            0.83513732971582       -5.30918526136124        2.13004745462917
H            0.29568527355027       -5.58754365449672        1.38815949184870
H            0.81655027703646       -4.34027790603384        2.11459753517164
O           -0.06858368835676       -4.19908888761806        4.76702416842617
H           -0.73340855871507       -4.23625838700120        4.07379792937979
H            0.70590703870865       -3.80565410589662        4.34847060376137
O            1.91257833384064       -4.47217052678859       -0.33992897175847
H            1.12833170404781       -3.95094484274149       -0.07348313574791
H            2.52203128281891       -4.40862781526308        0.43680492207145
O           -1.56888597280338       -4.28618959293955       -0.95896293783736
H           -0.75022864145419       -4.42033940020371       -1.46258347982630
H           -1.48973459227769       -4.85114105722965       -0.18503630029130
O            2.45073404028302       -3.89515688493406       -2.87843650206839
H            1.65252294914510       -4.36202034161048       -2.52955586281058
H            2.73820548103034       -3.41583627969996       -2.06795920755298
O            2.39613471204278       -2.51608943705004        3.71906737772089
H            2.39323836368516       -1.56990148121604        3.45244224606395
H            2.90109725932856       -2.53765150516723        4.53420394101387
34
 energy: -56.636404468192 gnorm: 0.071431488744 xtb: 6.7.1 (edcfbbe)
H            1.38935606721911       -0.70642623975787       -0.44175590956870
C            0.30774971094298       -0.70236245225069       -0.56698007050101
H            0.39801609966598        0.46883472838969       -2.30577993527115
H           -0.01741971220448       -1.60044691777256       -1.09260171169026
N           -0.06254778307288        0.48525298277872       -1.38483367449445
H           -0.13795982204293       -1.51706617038400        1.39114272376191
C           -0.35627293329006       -0.63070501354849        0.80245567463913
O           -0.00237967582100        1.73616372521270        1.00217120119153
C            0.11407921039304        0.63483745940190        1.61372251263080
H            0.18880467178902        1.33804840700324       -0.83601615222967
O            0.75562956900664        0.41375946037255        2.66374171499236
H           -1.08044608788315        0.52593309962049       -1.50182711042381
H           -1.43432195945522       -0.51546367271435        0.69361690616690
O           -1.45662619523001       -3.83309407933538        1.80483015242353
H           -2.09641444221249       -3.18300151556787        1.50048617670058
H           -1.94871250823124       -4.58515758818642        2.15035748519862
O            0.87620928154140       -5.34611646812142        2.16233568959816
H            0.34520509113017       -5.64080503636317        1.41435084639396
H            0.78334069135054       -4.36601163003354        2.19703038266436
O           -0.07303781706847       -4.16675843378080        4.78477743058097
H           -0.70227527244409       -4.21934823782710        4.04673931279531
H            0.73850894373546       -3.79366112047160        4.39913340546877
O            1.87016144599742       -4.47574613555366       -0.27330123203365
H            1.11928887273246       -3.92342672154140       -0.03856787644273
H            2.50895678479657       -4.39066110981690        0.43698202978440
O           -1.54966747385104       -4.26369042664033       -0.99771779706533
H           -0.73640404783367       -4.46013126596565       -1.50426217852167
H           -1.51095324915486       -4.81740234601499       -0.20470464020328
O            2.49741380138339       -3.92898345503969       -2.88887619780928
H            1.68457280359796       -4.31878718739011       -2.64808333769211
H            2.76995825998064       -3.38715038820932       -2.17029093769163
O            2.34907649740141       -2.50744360846488        3.73028333522289
H            2.34725382767548       -1.58971191219837        3.43911649149912
H            2.89575234945747       -2.54815772982834        4.51747028992540
34
 energy: -56.642838059896 gnorm: 0.046306078431 xtb: 6.7.1 (edcfbbe)
H            1.38798837316782       -0.72427847235711       -0.44644073594249
C            0.30216090401158       -0.71543439313467       -0.56854777699186
H            0.41006444198107        0.49369239383573       -2.28223297513868
H           -0.02390439690523       -1.61566047387002       -1.09753818996966
N           -0.07170060104078        0.48087319471843       -1.36831763499940
H           -0.14343952297427       -1.51971308094173        1.40101638284686
C           -0.35332597801209       -0.63325734011874        0.80405151212129
O            0.01121160360997        1.74094269384719        0.98449625560818
C            0.19391255818000        0.63499752328049        1.56704756621710
H            0.15856647267009        1.32470827175071       -0.78159263591187
O            0.73761643469666        0.42370170208503        2.66382155142775
H           -1.09181286687174        0.50586069022550       -1.50507729778771
H           -1.43539259950478       -0.50612220699926        0.70299687640022
O           -1.47190318723790       -3.84063456196417        1.80856562487486
H           -2.11125200844872       -3.17759121615903        1.51042305832764
H           -1.98104249129377       -4.57965208774915        2.17429033423808
O            0.88036816506793       -5.35892509425023        2.19712228903891
H            0.37169493684769       -5.67018221254979        1.43161401227454
H            0.79252601144863       -4.39250997979513        2.21484128470894
O           -0.06463534504987       -4.14822781349830        4.79299919457885
H           -0.67997929270038       -4.20150039521981        4.03898606870138
H            0.75795713690744       -3.77425286346969        4.42466707097107
O            1.84457819850170       -4.45607257985441       -0.26665036554761
H            1.10667749860220       -3.89857549242827       -0.01423006592886
H            2.49439759792637       -4.39294915963117        0.42344431442127
O           -1.54223607581985       -4.27953398810031       -1.04328564169075
H           -0.72454224648170       -4.45438635008366       -1.51323878278561
H           -1.51317929226207       -4.79020750371890       -0.21675676500358
O            2.49224593554000       -3.85339582714247       -2.98074224578060
H            1.72320213111869       -4.36570145467234       -2.66417304302001
H            2.80419745889829       -3.40794431707569       -2.16687740591860
O            2.31993364417630       -2.51005199671220        3.73159428003106
H            2.29776059627624       -1.60146205460190        3.43464547793586
H            2.89518080497630       -2.55144055364480        4.50422340769355
34
 energy: -56.643462609960 gnorm: 0.080269990306 xtb: 6.7.1 (edcfbbe)
H            1.37761189507902       -0.73986430741363       -0.45277378207290
C            0.29296229064357       -0.72615279202682       -0.57113751241268
H            0.41835978370460        0.51662447176588       -2.25620015072561
H           -0.03449471580442       -1.62572381255598       -1.09556476897239
N           -0.08282202341730        0.47481884321359       -1.35671797286345
H           -0.14315326749792       -1.50751093239523        1.40761102139666
C           -0.35137358064583       -0.62758096317277        0.80362174063627
O            0.06159467229073        1.72787677707221        0.97482656630670
C            0.23788386342914        0.62990127643760        1.54950718187214
H            0.11985309052119        1.30713379015425       -0.72930987206438
O            0.75098852755019        0.42497979742751        2.66055391051299
H           -1.09828683680243        0.48406713629969       -1.51485730876538
H           -1.43247111303612       -0.50280735067212        0.71466390601167
O           -1.48971542614289       -3.85684777674915        1.81868188274554
H           -2.11396394726658       -3.18025992061425        1.52842923506296
H           -2.01658485923450       -4.57693777616492        2.18306567266573
O            0.88833225224841       -5.37694927381401        2.22540534727678
H            0.38750601142839       -5.68968150074011        1.46144819484509
H            0.79798873964262       -4.42591179745455        2.23237917259018
O           -0.03438166812125       -4.13963557655407        4.79040159614699
H           -0.65696589109703       -4.17196223872529        4.05904498703819
H            0.76302896650212       -3.73265378924931        4.43046202981107
O            1.81260674312799       -4.37999095012090       -0.32564942972338
H            1.08074052395865       -3.83203125717709        0.05973775917088
H            2.47567932630586       -4.47905132417326        0.42998873094044
O           -1.52389374411960       -4.25061766921413       -1.06038025600253
H           -0.71915531423096       -4.48813617751759       -1.54205897047262
H           -1.51050193752261       -4.75329909545622       -0.23403403456607
O            2.51931580507751       -3.86427149896266       -3.00666339088749
H            1.75403003226335       -4.36878251386974       -2.71411669345680
H            2.82948032997763       -3.39872097165498       -2.23004883012116
O            2.34248526949821       -2.55719633895954        3.69465608856839
H            2.17746293069879       -1.58297293081983        3.47221294087319
H            2.89374827099390       -2.54473855614250        4.48796000863542
34
 energy: -56.648517316277 gnorm: 0.058272211605 xtb: 6.7.1 (edcfbbe)
H            1.36784822812505       -0.75226357440268       -0.46082273733477
C            0.28468940500484       -0.73418327648818       -0.57214533122820
H            0.42140463901052        0.53404379858786       -2.23572379671733
H           -0.04598389804390       -1.63165148313604       -1.09317246155978
N           -0.09341851970334        0.46958435895855       -1.34927588586399
H           -0.14077436093237       -1.50249754461073        1.41150077077604
C           -0.35038294493011       -0.62728230728102        0.80566906608484
O            0.12984057527399        1.71501777350951        0.95161797292400
C            0.22563000529568        0.62407840895876        1.56176099283907
H            0.08600418683573        1.29153945249744       -0.69048268090806
O            0.77973069703842        0.42219374744344        2.65046822674822
H           -1.10342395084334        0.46790275871283       -1.52409332507938
H           -1.42864658001391       -0.50414241007563        0.72352414974307
O           -1.50266659362261       -3.87591236906592        1.82341635351026
H           -2.11138502684888       -3.18485930504230        1.54449972401675
H           -2.04469026387531       -4.57658422994984        2.19268003394198
O            0.91327529713571       -5.39815600519793        2.23381724949960
H            0.39989779223991       -5.70867795029773        1.48720669968744
H            0.77513714814812       -4.44336604190808        2.26707127998187
O           -0.01522460328063       -4.12254309146858        4.79199823331531
H           -0.63159236361387       -4.15204993342325        4.06258103235149
H            0.77624897780369       -3.70439030702433        4.44273225544280
O            1.80851992773776       -4.35664180586337       -0.33784057491969
H            1.06614050126294       -3.83812950255613        0.04076028475180
H            2.44564339652563       -4.44405168468826        0.41582630654853
O           -1.51028003461687       -4.23018386583092       -1.07342763003125
H           -0.71442602501542       -4.51019812503130       -1.56275754712823
H           -1.50492161251765       -4.72106395571194       -0.24553415654814
O            2.52649453324850       -3.82972085306198       -3.04399440907204
H            1.78923498502474       -4.38479413682150       -2.72423055209363
H            2.85616530940306       -3.40868356578653       -2.23617049539705
O            2.23999675953733       -2.51439101283125        3.74509764419104
H            2.19134491149994       -1.62537721604380        3.43404037221697
H            2.88846450170956       -2.55745174506957        4.45854793531093
34
 energy: -56.640422694801 gnorm: 0.149963175150 xtb: 6.7.1 (edcfbbe)
H            1.36212710049548       -0.77001126325078       -0.47627498934925
C            0.27665544682475       -0.74190754386593       -0.57189131779448
H            0.42506622771558        0.54951287531281       -2.21386257830271
H           -0.06572395912734       -1.63978886581113       -1.08674524761484
N           -0.10361568217179        0.46328919628409       -1.34222000950176
H           -0.13412366767876       -1.50716566330235        1.42188181629548
C           -0.34173233927586       -0.63111436171190        0.81540986809412
O            0.19765266906109        1.70781467834800        0.92514316137978
C            0.22594420425375        0.61538795552260        1.57042651853450
H            0.05971979501611        1.27112386283540       -0.65713247715649
O            0.79815306452255        0.42269333789125        2.64981777783972
H           -1.10860041904697        0.45309270360070       -1.53881174914012
H           -1.41992391397940       -0.49714564439625        0.73998015905004
O           -1.51256906690318       -3.90344331328953        1.81121486534652
H           -2.10505249756418       -3.18515620577428        1.55690863937390
H           -2.07967099344275       -4.57407436346360        2.21543118012779
O            0.94567418765561       -5.42060432817107        2.23565261791583
H            0.41569168699711       -5.73924979141642        1.50439685526661
H            0.74127323876893       -4.45651498855568        2.30596039938210
O           -0.02321075312992       -4.09284164741223        4.80433698165953
H           -0.60337393701870       -4.13897456533865        4.02842056444838
H            0.79957832606096       -3.68055731710341        4.48828286165138
O            1.79188044431793       -4.40773696318888       -0.26207348126296
H            1.06538476057574       -3.88273399346066       -0.05657409844924
H            2.40019493581211       -4.30800791712613        0.37618252992973
O           -1.50854353397076       -4.26137996001025       -1.11771387152807
H           -0.70428400108757       -4.48177507850154       -1.55246188138308
H           -1.49314374682528       -4.68245069008812       -0.24618968423119
O            2.53370301795132       -3.79945080470968       -3.06389061923680
H            1.81483023803763       -4.36719484885672       -2.74644185281052
H            2.89306228171524       -3.41844078857981       -2.23094393919493
O            2.26642613049144       -2.56089935897934        3.70169345519630
H            2.07784685583504       -1.60277838973859        3.46977212984628
H            2.88659889911733       -2.54640295369255        4.43746041561911
34
 energy: -56.652225600932 gnorm: 0.028113427856 xtb: 6.7.1 (edcfbbe)
H            1.35873551618548       -0.77569109557893       -0.47945902023504
C            0.27201886572258       -0.74522898056526       -0.57165222944677
H            0.42633593268683        0.55208641792361       -2.20952737666441
H           -0.07521362381309       -1.64383469488918       -1.08388859885299
N           -0.10737880666014        0.46110987445271       -1.33930031583539
H           -0.13378682449931       -1.51018383729133        1.42647742084312
C           -0.33943284264961       -0.63230344520344        0.81940234553371
O            0.19645063076856        1.70364544162919        0.93315536075793
C            0.26157488436539        0.60841044803249        1.55713198708000
H            0.05763295978039        1.26741990474778       -0.65323855063433
O            0.79371055259007        0.41936882719922        2.65938444139503
H           -1.11207612298107        0.44964468614892       -1.54289703095747
H           -1.41952626794082       -0.49320142121253        0.74819979074733
O           -1.51951266657667       -3.90954142942970        1.81150111586283
H           -2.10845188496712       -3.18649408501716        1.55931943199583
H           -2.09027280998992       -4.57712597689122        2.21794266650618
O            0.93495895091023       -5.41890458515736        2.25191271730108
H            0.42455541799527       -5.74738777520206        1.50382913629291
H            0.76212481811491       -4.46866408871637        2.29527548267508
O           -0.02284472937339       -4.07774237276155        4.80823247917302
H           -0.59300722671913       -4.13379276872458        4.02120741847405
H            0.80605380833303       -3.67074174405783        4.49577379821753
O            1.77265548307566       -4.36765205240447       -0.31221192555038
H            1.03943253434498       -3.83848944324265       -0.01158932290886
H            2.41768192374586       -4.37398916575920        0.38771614407731
O           -1.49841403755355       -4.23212177774656       -1.11348218471717
H           -0.69464142019244       -4.51091933197993       -1.56567366447555
H           -1.49877168941058       -4.66302399979231       -0.24460138220302
O            2.55006783933980       -3.81740170739699       -3.06087726913127
H            1.82299597564185       -4.36798220161294       -2.75883367871157
H            2.89605503982451       -3.40913152638916       -2.25703465454056
O            2.21719994375811       -2.53713924454051        3.72454058133968
H            2.09682899921803       -1.61874602295507        3.45100367462537
H            2.88015587692883       -2.54913782561637        4.42740621196753
34
 energy: -56.651972366692 gnorm: 0.076405553963 xtb: 6.7.1 (edcfbbe)
H            1.34676356551958       -0.79987891176071       -0.49182611768100
C            0.25972408673184       -0.76079178550971       -0.56903501864338
H            0.43062485642931        0.56954003925949       -2.18244364336506
H           -0.10135547960921       -1.65651105939702       -1.07539734004642
N           -0.11946973152722        0.45271405263354       -1.32566836542398
H           -0.12867310000657       -1.51529373388396        1.43827945546085
C           -0.33031728093672       -0.63790451857549        0.83131456054906
O            0.25915951589101        1.68496198913735        0.91892194423618
C            0.30672276131997        0.59647099402263        1.55096798553185
H            0.03022055842829        1.24591437120992       -0.61001665010212
O            0.81297601377435        0.41144738232698        2.66766247104062
H           -1.11875401608019        0.43448713637080       -1.55045135104373
H           -1.40965176147703       -0.48664500884982        0.77546952875191
O           -1.53819215278409       -3.93445140467236        1.82663600877680
H           -2.10771209454119       -3.19907819207110        1.57323043067635
H           -2.11862426641543       -4.59082240383784        2.21789213918562
O            0.98815033895565       -5.44206277083791        2.23722036780146
H            0.44534411476281       -5.77450980279532        1.52176107197462
H            0.71424407694355       -4.48182434333279        2.33840333013147
O            0.01119903400967       -4.05464943906486        4.80458875926807
H           -0.57540439771258       -4.10637951380914        4.05512806519463
H            0.80386170363557       -3.61929296685323        4.47921238746314
O            1.75665743313873       -4.28321059391312       -0.38606355602748
H            0.98892691922974       -3.81653735624388        0.03962922341271
H            2.37822952011611       -4.40899409402895        0.38331404419777
O           -1.47697394264936       -4.19804734229432       -1.12406643865189
H           -0.68878781875145       -4.52889978908681       -1.58607683999403
H           -1.48327548299469       -4.61704831471872       -0.25562428288528
O            2.56731235801734       -3.77930226610592       -3.11237109762213
H            1.87659700796381       -4.40339463549057       -2.77618479596863
H            2.92518876790031       -3.41102096019438       -2.28718562373092
O            2.17543686851878       -2.53744757633163        3.71752453173844
H            2.02556851416149       -1.61880998306932        3.45828296709384
H            2.86817851004198       -2.54761419823329        4.39211684870187
34