16
	Energy:      -3.4999692
N          0.39850        0.95501        0.35298
C          1.02426        2.11865       -0.27133
C          0.43671        2.48795       -1.65145
C          0.66767        1.45058       -2.76828
C         -0.22466        0.23616       -2.73435
O         -0.05724       -0.72395       -3.66194
O         -1.12876        0.12745       -1.92275
H          0.79119        0.84024        1.31440
H         -0.63409        1.09682        0.43130
H          0.88446        2.99537        0.39861
H          2.11774        1.94251       -0.36713
H          0.97778        3.40916       -1.96052
H         -0.64055        2.74856       -1.57831
H          1.73499        1.14457       -2.75598
H          0.46726        1.94295       -3.74416
H          0.62265        0.08722       -0.18140
