46
 energy: -75.147550452502 gnorm: 0.033136547011 xtb: 6.7.1 (edcfbbe)
N           -1.24167373660000       -0.10843813950000        1.01559489250000
C           -2.07583713580000        0.98455768330000        0.48667960050000
C           -2.59918885270000        0.67710674100000       -0.91480713830000
C           -1.49547932190000        0.51291094920000       -1.96464234560000
C           -1.42805112680000       -0.85639829690000       -2.64106348790000
O           -0.56606612380000       -1.00883314560000       -3.53681363440000
O           -2.21302218400000       -1.77630749770000       -2.28432772710000
H           -1.10854013220000       -0.03174639820000        2.05228465930000
H           -1.67982018860000       -1.02520662350000        0.81646831500000
H           -2.92968999870000        1.13169954600000        1.14801560730000
H           -1.48423107640000        1.89977163780000        0.46748149880000
H           -3.26801396280000        1.48283698060000       -1.21569461250000
H           -3.20014826640000       -0.23324198660000       -0.89125948020000
H           -0.50722100670000        0.69138173430000       -1.53875976390000
H           -1.60646412420000        1.22891696380000       -2.78146073770000
H           -0.30317869750000       -0.08235498730000        0.57673016990000
O           -0.11993958230000       -3.78584762550000        1.24268532370000
H           -0.33544565910000       -4.70805564840000        1.40854472680000
H           -0.93991149590000       -3.37024987260000        0.90283609950000
O           -2.39197463150000       -2.58176082020000        0.31684346020000
H           -2.35514531690000       -2.38532227110000       -0.63735135830000
H           -3.26508725350000       -2.94353261850000        0.49452948110000
O            1.19252156080000       -3.79499870880000       -1.20539832390000
H            0.86165133520000       -3.75563948540000       -0.28588591730000
H            0.41452106920000       -4.05945356420000       -1.73797128190000
O           -0.87121368830000       -0.20106573000000        3.71768094240000
H           -0.27058621100000       -0.97442515220000        3.73883478620000
H           -1.60383025570000       -0.41380703500000        4.30188888450000
O           -1.10565750590000       -4.28100209530000       -2.63576208050000
H           -0.88772536710000       -4.28668362230000       -3.58056006020000
H           -1.55790893770000       -3.42145046760000       -2.51181433760000
O            1.85728752850000       -1.33741087980000       -2.12290559920000
H            1.73363046560000       -2.25859974330000       -1.79393213240000
H            1.13362277700000       -1.19326335840000       -2.75238635590000
O            1.24331936500000        0.39606715500000       -0.15101254850000
H            1.55748733980000       -0.22763902990000       -0.83984821120000
H            2.02340986570000        0.73131912180000        0.29752264390000
O           -0.49506704330000       -3.22978056220000       -5.15574306400000
H           -0.53299088060000       -2.40015979090000       -4.63254389450000
H            0.31944198790000       -3.18384263180000       -5.66522098380000
O           -4.92156751190000       -1.43417776140000       -2.89230097250000
H           -3.97875479060000       -1.60448551860000       -2.72752369350000
H           -5.10510660700000       -1.78044594580000       -3.76999307230000
O           -0.81476781640000        0.04378733550000       -5.95319544640000
H           -1.55111691370000        0.45120579820000       -6.45132553880000
H           -1.18717804420000       -0.24666393700000       -5.11695456410000
46
 energy: -75.150838147623 gnorm: 0.022253136841 xtb: 6.7.1 (edcfbbe)
N           -1.24359940619070       -0.10630814991733        1.01058618739953
C           -2.07894776747574        0.98829132975464        0.48643310123259
C           -2.60535322396051        0.68034379058607       -0.91259383391226
C           -1.49938204996397        0.51106499397338       -1.95738502258739
C           -1.43452366142251       -0.86673501974010       -2.61402520599372
O           -0.57389889190083       -1.02889857247120       -3.50954608816680
O           -2.23026264207454       -1.77806895889426       -2.26412084413177
H           -1.10808489323479       -0.02872015425484        2.04474685584269
H           -1.68196417381721       -1.02347274961986        0.81245601810963
H           -2.93130921661856        1.13489375592909        1.14963766792022
H           -1.48611228234591        1.90263758826442        0.46572916138635
H           -3.27241504372798        1.48654511711399       -1.21531882061831
H           -3.20584855689890       -0.23031089913626       -0.88759866587578
H           -0.51087259744655        0.68955616154153       -1.53232135526294
H           -1.60468586378258        1.22364359832007       -2.77802757476904
H           -0.30585485235612       -0.08110631024174        0.56932202473474
O           -0.11579266393809       -3.78472978517703        1.23650848088611
H           -0.32649467847523       -4.70420965898377        1.42087810436661
H           -0.94256605570466       -3.37796566544066        0.90498699890984
O           -2.40417661137536       -2.57587155268618        0.32613889708637
H           -2.35610850254919       -2.39361760022108       -0.62989669859670
H           -3.27449041849967       -2.94836816797072        0.49568287083912
O            1.19028131388136       -3.79292493348399       -1.20290949865263
H            0.86452535548548       -3.75340197981706       -0.28074425128321
H            0.41017988743001       -4.06079745274502       -1.73117130095183
O           -0.86932485783077       -0.21865579985071        3.71628091597709
H           -0.25526538050614       -0.96602218893647        3.77616362219232
H           -1.60233976771103       -0.41619654748591        4.30736724321410
O           -1.10915697154521       -4.28197485957490       -2.63727967634100
H           -0.88324392430900       -4.28458387554774       -3.58050310729396
H           -1.56080613691071       -3.42222923305503       -2.51307975705597
O            1.85731268547731       -1.33651629323465       -2.11807234803189
H            1.73349661151593       -2.25983800996538       -1.79519453199342
H            1.14326724726182       -1.19343617857884       -2.75857424028075
O            1.24308753824076        0.39609500056642       -0.14830795513141
H            1.55522093565235       -0.22764021650218       -0.83794031546444
H            2.02487230783855        0.71931051286192        0.30640623326702
O           -0.49443546061804       -3.23399273734224       -5.15441752840934
H           -0.50932924155125       -2.40961421313210       -4.62357165293934
H            0.31093977270767       -3.19058685942538       -5.67768956617971
O           -4.92344967197244       -1.41924823125431       -2.89831995229428
H           -3.98750454824686       -1.61302564019366       -2.72009372142776
H           -5.11168877193601       -1.79076864995147       -3.76524739235433
O           -0.81103805031267        0.10029980890959       -6.05685030821340
H           -1.62751189230464        0.45377895764535       -6.45819476503332
H           -1.05605307897690       -0.23735277563388       -5.17416567691747
46
 energy: -75.152161164603 gnorm: 0.027071726678 xtb: 6.7.1 (edcfbbe)
N           -1.24499317142428       -0.10509519701163        1.00779391285262
C           -2.08093833495635        0.99237166959322        0.48998055404908
C           -2.61019269299157        0.68595420772801       -0.90757059827644
C           -1.50817933035072        0.50970151943195       -1.95504923839406
C           -1.45646819391865       -0.86420868808319       -2.61788626231558
O           -0.59741656428366       -1.03005600927379       -3.51711745079642
O           -2.23784890034428       -1.78016443266204       -2.25303444308304
H           -1.10530316388536       -0.02902368471055        2.03897992828510
H           -1.68557600226892       -1.02163498632829        0.80995566575099
H           -2.93062556685107        1.13871842543670        1.15653666055374
H           -1.48636944443340        1.90549540408431        0.46787851727443
H           -3.27476506938796        1.49410174014717       -1.21005524248111
H           -3.21429372143992       -0.22216685383631       -0.88076894909440
H           -0.51637179234012        0.68499124369874       -1.53553170992333
H           -1.61348974495903        1.22322261444742       -2.77416076833402
H           -0.30851293230857       -0.08118304378376        0.56251593232105
O           -0.10844334156082       -3.78165516185792        1.22938611291142
H           -0.31247273910293       -4.69706919352943        1.44254386086796
H           -0.94448085272066       -3.38653964477187        0.90938474563063
O           -2.41667579231874       -2.57352750534126        0.33550629418006
H           -2.36423685259092       -2.39325158800937       -0.62086026864759
H           -3.28542690978108       -2.95219880472649        0.49961628879348
O            1.18765393726044       -3.79013666004910       -1.20071900719401
H            0.86533461210746       -3.74956210946357       -0.27637401386064
H            0.40653541774383       -4.06198180164382       -1.72531932068507
O           -0.86364668953310       -0.23685368563298        3.72462413340085
H           -0.23230617048528       -0.95728727686472        3.82447127221861
H           -1.60052252825012       -0.42144469459775        4.31625845716012
O           -1.11164867299311       -4.28399126856439       -2.63908337973204
H           -0.88115534754151       -4.28553641257319       -3.58143476734775
H           -1.56298813734579       -3.42469495941618       -2.51508173857636
O            1.85267644812330       -1.33549583681409       -2.12053483405407
H            1.73023723439561       -2.25761829634107       -1.79363272979455
H            1.13883932711606       -1.19586276321539       -2.76202211664487
O            1.24325637901230        0.39307873840784       -0.14596400370096
H            1.55202856007664       -0.23021852043051       -0.83775588276754
H            2.02734670879899        0.69680709901859        0.31933172523902
O           -0.48087035486427       -3.24790213828690       -5.15223862955691
H           -0.49246704771771       -2.42943476909204       -4.61427913956012
H            0.31510776692153       -3.19164974433781       -5.68881765189044
O           -4.92683110207748       -1.40546012288419       -2.90519840226607
H           -3.99614300390895       -1.61300745023151       -2.71351429699948
H           -5.11609983295743       -1.80262966694190       -3.76148209292963
O           -0.80070776380010        0.13526660986306       -6.13836190873241
H           -1.66679427695523        0.44252029643346       -6.47015615844840
H           -0.94446250190701       -0.21441590198245       -5.22459632820156
46
 energy: -75.153301240101 gnorm: 0.013549597043 xtb: 6.7.1 (edcfbbe)
N           -1.24491159021573       -0.10545502399535        1.00550191660213
C           -2.08097940530898        0.99581410498237        0.49466694012285
C           -2.61603361850577        0.69177772231921       -0.90085877197969
C           -1.51884527936396        0.51110160341646       -1.95285421002260
C           -1.47020017802653       -0.86185236971234       -2.61496602751286
O           -0.63892178239096       -1.01613931575811       -3.54591125567993
O           -2.24422310209115       -1.78037239783116       -2.24445469681858
H           -1.09939228279392       -0.03263118229357        2.03302843432802
H           -1.68898864307988       -1.02070797843532        0.80796519262972
H           -2.92722685607277        1.14214035660864        1.16544113178270
H           -1.48450154164274        1.90768603576293        0.47148838218309
H           -3.27851781203006        1.50219539087220       -1.20180734212490
H           -3.22389671263241       -0.21380559692576       -0.87126101515490
H           -0.52414423014785        0.68472177867266       -1.53907535919497
H           -1.62662734241201        1.22584008668024       -2.77038257764243
H           -0.31010200575331       -0.08350234350936        0.55510666504400
O           -0.09967880586992       -3.77568254985322        1.22295323569353
H           -0.29399909582310       -4.68587643991023        1.47105875087844
H           -0.94608839743590       -3.39551717902687        0.91429837606192
O           -2.43134815522471       -2.57240864238198        0.34537038267796
H           -2.37475682652217       -2.39333706063596       -0.61125970871098
H           -3.29907276956964       -2.95561183263557        0.50414569586215
O            1.18321016382732       -3.78587242209530       -1.19843934913582
H            0.86330346886423       -3.74301101671976       -0.27217858526507
H            0.40177165975002       -4.06336543938604       -1.71918556755357
O           -0.85969075896645       -0.25899729678264        3.73719492410558
H           -0.19408758320129       -0.93814183076800        3.89866852220369
H           -1.59970916729544       -0.43192415296266        4.32877262413161
O           -1.11605228855364       -4.28683407452144       -2.64064794535581
H           -0.87761424292469       -4.28798367722085       -3.58127903264173
H           -1.56682206339989       -3.42765543564275       -2.51837393014026
O            1.83840974249688       -1.33471610822527       -2.12959177443290
H            1.72013339250892       -2.25620431963011       -1.79873249611096
H            1.12443470989663       -1.20013239279314       -2.77156085444659
O            1.24385398907881        0.38570322361913       -0.14320761548791
H            1.54707191853537       -0.23411104520448       -0.84088471606863
H            2.03111975609136        0.66287816836411        0.33552701511521
O           -0.45399479118223       -3.26625585659603       -5.14602316988980
H           -0.48146286247121       -2.44821277221885       -4.61071043165085
H            0.33213213518433       -3.18697706900276       -5.69533086350638
O           -4.93029885235298       -1.38808977935073       -2.91439850570274
H           -4.00436302903847       -1.60469514042277       -2.71054813981441
H           -5.12161032921073       -1.81586075252706       -3.75688930805039
O           -0.78119164907060        0.15958489751747       -6.19404304539778
H           -1.64738601456479        0.42113497288859       -6.51110656422562
H           -0.88940902408759       -0.18936715172696       -5.28906260250320
46
 energy: -75.153798195241 gnorm: 0.022545779027 xtb: 6.7.1 (edcfbbe)
N           -1.24472130572640       -0.10920987889273        1.00817415022848
C           -2.07885689208432        0.99453249104945        0.49854318909296
C           -2.61915099339673        0.69358819350937       -0.89645850318297
C           -1.52773300397090        0.51346106260917       -1.95609347905708
C           -1.48575798214152       -0.85349176706042       -2.63137740716792
O           -0.66974642816899       -0.99745401441670       -3.57925942453257
O           -2.24161297407836       -1.78138624740329       -2.24443154395631
H           -1.09575147904043       -0.03938566690579        2.03335671988242
H           -1.69254132706605       -1.02275965183543        0.81130682128760
H           -2.92295523809813        1.14260317274597        1.17161478128578
H           -1.48066595101126        1.90538741777940        0.47535582411870
H           -3.27949304199694        1.50743451695235       -1.19363533911149
H           -3.23176912765293       -0.20891628011190       -0.86540790450799
H           -0.53118105316933        0.68081584198680       -1.54398683856025
H           -1.63719731763526        1.23411159479246       -2.76840792066810
H           -0.31051686908909       -0.08979166024704        0.55518438177947
O           -0.09433474478352       -3.76651742443338        1.22654055265488
H           -0.27961059681481       -4.67280923493876        1.49208213884563
H           -0.94293176443300       -3.39761301063273        0.91410546134826
O           -2.44205614793048       -2.57529244299965        0.35251595707166
H           -2.39040124462901       -2.38872564107237       -0.60307176409195
H           -3.30997991559927       -2.95642081398157        0.51298435717240
O            1.18206169504387       -3.78112298807083       -1.19722288338060
H            0.85827533585986       -3.73933147346472       -0.27146033782481
H            0.40409669395981       -4.06314511862961       -1.71972085717716
O           -0.85564883435689       -0.26990130130062        3.75627598506882
H           -0.16523383504928       -0.91557633389538        3.95393145791696
H           -1.59698068214303       -0.44328869598146        4.34385426305668
O           -1.11899643018009       -4.29251753655883       -2.63526766295168
H           -0.87760653757511       -4.29479329543976       -3.57504221398567
H           -1.56979393312139       -3.43366747484618       -2.51378191354625
O            1.82046623172233       -1.33339439468862       -2.13901629806190
H            1.70577942069908       -2.25428526055405       -1.80406449577507
H            1.10645418760696       -1.20269060707040       -2.77997138912168
O            1.24152668930478        0.37598721038861       -0.13818842086797
H            1.54044294748184       -0.23424792874105       -0.84627778876533
H            2.03008893670987        0.63138795377115        0.35091356307001
O           -0.43067499744053       -3.28411480514565       -5.13637017389091
H           -0.49322842190835       -2.45618841657616       -4.61885241813529
H            0.34799595960894       -3.18083933209149       -5.69344871203586
O           -4.93347937733009       -1.38710446645899       -2.92064850985550
H           -4.00559635245542       -1.58853177208915       -2.72035257399016
H           -5.12516797449680       -1.81894971010713       -3.75822909209375
O           -0.74685139695343        0.22433291261497       -6.22986729341605
H           -1.66906333979152        0.35811295689905       -6.53553451162283
H           -0.80060873967831       -0.17901998345497       -5.34512920534537
46
 energy: -75.154211042608 gnorm: 0.009949072204 xtb: 6.7.1 (edcfbbe)
N           -1.24356599804462       -0.11435841813887        1.01350575677662
C           -2.07499965201669        0.99014456020990        0.50096626761548
C           -2.61842305645358        0.69191777192033       -0.89444578945328
C           -1.53161114192701        0.51672322400451       -1.96111001410449
C           -1.49875500366158       -0.84336932380837       -2.65355628930036
O           -0.68850383518533       -0.98154676532584       -3.60544266013388
O           -2.23657345516510       -1.78063092061331       -2.24941989232537
H           -1.09428627239686       -0.04545904063055        2.03827091979393
H           -1.69383282123170       -1.02666997936658        0.81760345032872
H           -2.91869208334201        1.14077016944501        1.17411135263130
H           -1.47547025413157        1.90021651974332        0.47798233518092
H           -3.27811149954958        1.50844827181867       -1.18661661915258
H           -3.23344119329297       -0.20903682367203       -0.86395422846742
H           -0.53414700631973        0.67588136121641       -1.54802710637323
H           -1.64117365962904        1.24494839592411       -2.76703783510917
H           -0.30890837536438       -0.09708002765608        0.56067657769851
O           -0.09300521559713       -3.75628015448480        1.23609015110414
H           -0.27103464415097       -4.66063502429231        1.50590806991961
H           -0.94086910870826       -3.39385750165226        0.91659308551627
O           -2.44617650288039       -2.57827814511100        0.35412060558719
H           -2.39884927071238       -2.38555071589509       -0.60051173775809
H           -3.31556383731041       -2.95418489160387        0.51763874903723
O            1.18090838600340       -3.77753998432192       -1.19681184183358
H            0.85396262014199       -3.73549322056679       -0.27202515451626
H            0.40546559960366       -4.06320468460698       -1.72040890340364
O           -0.84836656332411       -0.26949321729696        3.77315301808700
H           -0.15789924215269       -0.90344272535993        3.96726828084273
H           -1.58893168864149       -0.44969750708904        4.35750105449028
O           -1.12125434510850       -4.29678051462044       -2.62899580684229
H           -0.87661022270160       -4.29963521859837       -3.56769891277473
H           -1.57216840381271       -3.43785700911857       -2.50813347404769
O            1.80293299618402       -1.33284138609335       -2.14823739927912
H            1.69010164451933       -2.25383558803691       -1.81158983503986
H            1.08924746877699       -1.20297508556464       -2.78790857169645
O            1.23887437535882        0.36704902214119       -0.13464179441458
H            1.53382386782959       -0.23668770054578       -0.84977360757016
H            2.02763328161720        0.60783605208473        0.36016674351278
O           -0.41715369622246       -3.28989247791711       -5.13077143273914
H           -0.50589504624812       -2.45218740556902       -4.62924915074403
H            0.36318824066388       -3.18044454178309       -5.68189447745321
O           -4.93408610089459       -1.38418203969535       -2.92646994366699
H           -4.00527171624213       -1.58034460586531       -2.72831360089285
H           -5.12899288831962       -1.82193728450752       -3.75866462137234
O           -0.74180129837170        0.19014946731426       -6.26663150279505
H           -1.64833731385894        0.36732849224727       -6.53291184756257
H           -0.76408422072852       -0.15673268365926       -5.36413964010005
46
 energy: -75.154419691742 gnorm: 0.012787931218 xtb: 6.7.1 (edcfbbe)
N           -1.24274069473639       -0.12153517682994        1.01393772058119
C           -2.07157519472610        0.98450498192306        0.50050199252898
C           -2.61673609624229        0.68851737900433       -0.89512654237236
C           -1.53136847968926        0.51968183806280       -1.96475158385591
C           -1.49458189864605       -0.83922444432075       -2.66105813548525
O           -0.70318350150290       -0.96447178608858       -3.63051473874257
O           -2.23207186845674       -1.77722597760005       -2.26060649011468
H           -1.09416270514053       -0.05342697733085        2.03840699765226
H           -1.69464022148527       -1.03290867114936        0.81857587912086
H           -2.91537200864683        1.13729098067634        1.17326377180733
H           -1.47024896183578        1.89344453969544        0.47771731946751
H           -3.27823903650052        1.50543339685385       -1.18247178700152
H           -3.22991658548831       -0.21348069770653       -0.86594172810918
H           -0.53452376316173        0.67371463748527       -1.54908273481804
H           -1.64017317860411        1.25385310337296       -2.76559512783073
H           -0.30718341456812       -0.10556536127035        0.56230327464201
O           -0.09322609560038       -3.74587815702955        1.23755690584102
H           -0.26380721084580       -4.64798153479471        1.52222284078956
H           -0.94621744960210       -3.39069215745022        0.92246553611507
O           -2.45048057169842       -2.57947978356426        0.34923803770211
H           -2.40307825541817       -2.38751070091099       -0.60550972445463
H           -3.32196007636422       -2.94978448991304        0.51503634320348
O            1.18013682503758       -3.77390123365669       -1.19767212779342
H            0.85432960154625       -3.72721422701819       -0.27308261360587
H            0.40396182747989       -4.06294587531235       -1.71830924517748
O           -0.85859568219634       -0.26970217770836        3.77603233546317
H           -0.12986363424771       -0.86805097174518        4.00405191649587
H           -1.58818964201190       -0.46189360925572        4.36985267895918
O           -1.12319300482325       -4.29948860283541       -2.62270254454912
H           -0.87389761916198       -4.30238686087584       -3.56000040976820
H           -1.57433576505092       -3.44031300956166       -2.50297097556875
O            1.78582061791593       -1.33133874075885       -2.15834752396894
H            1.67542379740005       -2.25226960010437       -1.81917746540164
H            1.07246125966738       -1.20379433940114       -2.79793792157179
O            1.23674822092299        0.36125794237490       -0.13388243976627
H            1.52603475075755       -0.24299609486231       -0.85025817574902
H            2.02607433288821        0.58132768326856        0.37082919572124
O           -0.41667387042956       -3.28775665631060       -5.12738649131474
H           -0.51372987610369       -2.44469683644583       -4.63612634092927
H            0.36674756024911       -3.18500459547603       -5.67249367290539
O           -4.93222472181724       -1.36923839447324       -2.93426936392784
H           -4.00628655288036       -1.58060304445842       -2.73115781978524
H           -5.13801937252305       -1.83772232891823       -3.75160317374936
O           -0.73276143299543        0.18543505110740       -6.28961214392221
H           -1.64935905508747        0.35336314302817       -6.52535559342872
H           -0.71582944857565       -0.13807086671227       -5.37282538322222
46
 energy: -75.154596279052 gnorm: 0.012673453702 xtb: 6.7.1 (edcfbbe)
N           -1.24222947755384       -0.12914341451692        1.01826497714730
C           -2.06785856501126        0.97731997945696        0.50089228067340
C           -2.61278066599801        0.68275388325967       -0.89535377933798
C           -1.52789462564685        0.52308574302898       -1.96656386270621
C           -1.48906365651014       -0.83356778382077       -2.66903599536383
O           -0.71443836874578       -0.94526734449376       -3.65311285792363
O           -2.22705954088589       -1.77193976353327       -2.27480924027792
H           -1.09651128990142       -0.05875739214235        2.04373292528494
H           -1.69492938463584       -1.04024350063659        0.82372042059032
H           -2.91288673559019        1.13313303305254        1.17163123739423
H           -1.46440954608775        1.88482909740456        0.47747409340502
H           -3.27812831642744        1.49816667833406       -1.17810145071315
H           -3.22115639875199       -0.22217508810493       -0.86929934686799
H           -0.53154286106825        0.67032826141948       -1.54790929154294
H           -1.63496533830481        1.26498214187926       -2.76045228150192
H           -0.30516341436236       -0.11471896461625        0.56902034468260
O           -0.09406500828848       -3.73307573592572        1.23586294833916
H           -0.25850599210093       -4.63233110753976        1.53833003410143
H           -0.95307349381011       -3.38450908485246        0.92740470642693
O           -2.45305841394308       -2.57883201558371        0.34051342444033
H           -2.40229014835018       -2.39129730296944       -0.61467006971922
H           -3.32687070664031       -2.94403799623240        0.50748727096132
O            1.17972351435766       -3.77007724193306       -1.19982328819002
H            0.85863068317585       -3.71792284506930       -0.27467024169543
H            0.40050016861940       -4.06230572959768       -1.71467973310604
O           -0.85321744573400       -0.25954642992991        3.78537201074547
H           -0.13534733058833       -0.85748027105780        3.99536608256646
H           -1.57914038303672       -0.45842098943579        4.38304567761429
O           -1.12486410045824       -4.30034507608658       -2.61464202592619
H           -0.87234130152219       -4.30587389372768       -3.55076883466044
H           -1.57627292674942       -3.44051836994623       -2.49851844902111
O            1.76733375111909       -1.32923264838316       -2.16865341751340
H            1.65992460584074       -2.25036068219789       -1.82734062759960
H            1.05492582118233       -1.20465476444455       -2.80962454089811
O            1.23461664349213        0.35338187454051       -0.13063528482986
H            1.51707681044703       -0.24761700316041       -0.85206350848402
H            2.02471251911142        0.55575664555749        0.37978009071974
O           -0.42186485207825       -3.28112252992656       -5.11969191338812
H           -0.52019532093925       -2.43243751133356       -4.64015524160535
H            0.36408277823463       -3.19076132315900       -5.66219261379733
O           -4.92972444179323       -1.36259956861936       -2.94138932619080
H           -4.00338481300748       -1.57903574278103       -2.74124527340493
H           -5.14503118442380       -1.84489521836669       -3.74961146986260
O           -0.71563899642047        0.20245578157863       -6.28164321051300
H           -1.64776870921418        0.31955457002397       -6.51703401998984
H           -0.68856169399959       -0.14137266040758       -5.37804460126132
46
 energy: -75.154737599244 gnorm: 0.013426418564 xtb: 6.7.1 (edcfbbe)
N           -1.24276334822638       -0.13651101328627        1.01933998407255
C           -2.06565345695762        0.97152430522147        0.50146104765010
C           -2.60923213278485        0.67845516678494       -0.89537330774639
C           -1.52442614530695        0.52544471969426       -1.96687083859843
C           -1.49708030973789       -0.82475221338892       -2.68396017151222
O           -0.71802517314734       -0.93555806040952       -3.66124167097346
O           -2.22453619248927       -1.76824194315615       -2.28198475775087
H           -1.09930425172855       -0.06500139957157        2.04539938901609