
                                 *****************
                                 * O   R   C   A *
                                 *****************

                                            #,                                       
                                            ###                                      
                                            ####                                     
                                            #####                                    
                                            ######                                   
                                           ########,                                 
                                     ,,################,,,,,                         
                               ,,#################################,,                 
                          ,,##########################################,,             
                       ,#########################################, ''#####,          
                    ,#############################################,,   '####,        
                  ,##################################################,,,,####,       
                ,###########''''           ''''###############################       
              ,#####''   ,,,,##########,,,,          '''####'''          '####       
            ,##' ,,,,###########################,,,                        '##       
           ' ,,###''''                  '''############,,,                           
         ,,##''                                '''############,,,,        ,,,,,,###''
      ,#''                                            '''#######################'''  
     '                                                          ''''####''''         
             ,#######,   #######,   ,#######,      ##                                
            ,#'     '#,  ##    ##  ,#'     '#,    #''#        ,####,   ,####,        
            ##       ##  ##   ,#'  ##            #'  '#       #'       #'  '#        
            ##       ##  #######   ##           ,######,      #####,   #    #        
            '#,     ,#'  ##    ##  '#,     ,#' ,#      #,     #,   #   #,  ,#        
             '#######'   ##     ##  '#######'  #'      '#     '####' # '####'        



                #########################################################
                #                        -***-                          #
                #          Department of theory and spectroscopy        #
                #                                                       #
                #                      Frank Neese                      #
                #                                                       #
                #     Directorship, Architecture, Infrastructure        #
                #                    SHARK, DRIVERS                     #
                #        Core code/Algorithms in most modules           #
                #                                                       #
                #        Max Planck Institute fuer Kohlenforschung      #
                #                Kaiser Wilhelm Platz 1                 #
                #                 D-45470 Muelheim/Ruhr                 #
                #                      Germany                          #
                #                                                       #
                #                  All rights reserved                  #
                #                        -***-                          #
                #########################################################


                         Program Version 6.0.1  -  RELEASE   -


 With contributions from (in alphabetic order):
[Max-Planck-Institut fuer Kohlenforschung]                               
  Daniel Aravena         : Magnetic Suceptibility                        
  Michael Atanasov       : Ab Initio Ligand Field Theory (pilot matlab implementation)
  Alexander A. Auer      : GIAO ZORA, VPT2 properties, NMR spectrum      
  Ute Becker             : All parallelization in ORCA, NUMFREQ, NUMCALC 
  Giovanni Bistoni       : ED, misc. LED, open-shell LED, HFLD           
  Martin Brehm           : Molecular dynamics                            
  Dmytro Bykov           : pre 5.0 version of the SCF Hessian            
  Marcos Casanova-Páez   : Triplet and SCS-CIS(D). UHF-(DLPNO)-IP/EA/STEOM-CCSD. UHF-CVS-IP/STEOM-CCSD   
  Vijay G. Chilkuri      : MRCI spin determinant printing, contributions to CSF-ICE 
  Pauline Colinet        : FMM embedding                                 
  Dipayan Datta          : RHF DLPNO-CCSD density                        
  Achintya Kumar Dutta   : EOM-CC, STEOM-CC                              
  Nicolas Foglia         : Exact transition moments, OPA infrastructure, MCD improvements    
  Dmitry Ganyushin       : Spin-Orbit,Spin-Spin,Magnetic field MRCI      
  Miquel Garcia-Rates    : C-PCM and meta-GGA Hessian, CCSD/C-PCM, Gaussian charge scheme 
  Tiago L. C. Gouveia    : GS-ROHF, GS-ROCIS                             
  Yang Guo               : DLPNO-NEVPT2, F12-NEVPT2, CIM, IAO-localization        
  Andreas Hansen         : Spin unrestricted coupled pair/coupled cluster methods 
  Ingolf Harden          : AUTO-CI MPn and infrastructure                
  Benjamin Helmich-Paris : MC-RPA, TRAH-(SCF,CASSCF), AVAS, COSX integrals, SCF dyn. polar. 
  Lee Huntington         : MR-EOM, pCC                                   
  Robert Izsak           : Overlap fitted RIJCOSX, COSX-SCS-MP3, EOM     
  Riya Kayal             : Wick's Theorem for AUTO-CI, AUTO-CI UHF-CCSDT 
  Emily Kempfer          : AUTO-CI, RHF CISDT and CCSDT                  
  Christian Kollmar      : KDIIS, OOCD, Brueckner-CCSD(T), CCSD density, CASPT2, CASPT2-K, improved NEVPT2 
  Axel Koslowski         : Symmetry handling                             
  Simone Kossmann        : meta-GGA functionals, TD-DFT gradient, OOMP2, (MP2 Hessian; deprecated post 5.0) 
  Lucas Lang             : DCDCAS                                        
  Marvin Lechner         : AUTO-CI (C++ implementation), FIC-MRCC        
  Spencer Leger          : CASSCF response                               
  Dagmar Lenk            : GEPOL surface, SMD, ORCA-2-JSON               
  Dimitrios Liakos       : Extrapolation schemes; Compound Job, initial MDCI parallelization 
  Dimitrios Manganas     : Further ROCIS development; embedding schemes. LFT, Crystal Embedding 
  Dimitrios Pantazis     : SARC Basis sets                               
  Anastasios Papadopoulos: AUTO-CI, single reference methods and gradients 
  Taras Petrenko         : pre 6.0 DFT Hessian and TD-DFT gradient, (ASA, deprecated), ECA, 1-Electron XAS/XES, NRVS 
  Peter Pinski           : DLPNO-MP2, DLPNO-MP2 Gradient                 
  Christoph Reimann      : Effective Core Potentials                     
  Marius Retegan         : Local ZFS, SOC                                
  Christoph Riplinger    : Optimizer, TS searches, QM/MM, DLPNO-CCSD(T), (RO)-DLPNO pert. Triples 
  Michael Roemelt        : Original ROCIS implementation                 
  Masaaki Saitow         : Open-shell DLPNO-CCSD energy and density      
  Barbara Sandhoefer     : DKH picture change effects                    
  Kantharuban Sivalingam : CASSCF convergence/infrastructure, NEVPT2 and variants, FIC-MRCI 
  Bernardo de Souza      : ESD, SOC TD-DFT                               
  Georgi L. Stoychev     : AutoAux, RI-MP2 NMR, DLPNO-MP2 response, X2C  
  Van Anh Tran           : RI-MP2 g-tensors                              
  Willem Van den Heuvel  : Paramagnetic NMR                              
  Zikuan Wang            : NOTCH, Electric field optimization            
  Frank Wennmohs         : Technical directorship and infrastructure     
  Hang Xu                : AUTO-CI-Response properties                   
                                                                         
[FACCTs GmbH]                                                            
  Markus Bursch, Miquel Garcia-Rates, Christoph Riplinger, Bernardo de Souza, Georgi L. Stoychev 
                                                                 
  APM, Basis sets (HGBS, AHGBS, def-TZVP (Ac-Lr), def2-XVPD (La-Lu)), CI-OPT, improved COSX, DLPNO-Multilevel,           
  DOCKER, DRACO, updates on ESD, GOAT, IRC, LR-CPCM, MBIS, meta-GGA TD-DFT gradient, ML-optimized integration grids, 
  MM, NACMEs, nearIR, NEB, NEB-TS, NL-DFT gradient (VV10), 2- and 3-layer-ONIOM, interface openCOSMO-RS, QMMM,   
  Crystal-QMMM, SF, symmetry and pop. for TD-DFT, r2SCAN hybrids, SOLVATOR                                   
                                                                         
[Other institutions]                                                     
  V. Asgeirsson          : NEB                                           
  Christoph Bannwarth    : sTDA-DFT, sTD-DFT, PBEh-3c, B97-3c, D3        
  Sebastian Ehlert       : rSCAN, r2SCAN, r2SCAN-3c, D4, dhf basis sets  
  Marvin Friede          : D4 for Fr, Ra, Ac-Lr                          
  Lars Goerigk           : TD-DFT with DH, B97 family of functionals     
  Stefan Grimme          : VdW corrections, initial TS optimization, DFT functionals, gCP, sTDA/sTD-DF 
  Waldemar Hujo          : DFT-NL                                        
  H. Jonsson             : NEB                                           
  Holger Kruse           : gCP                                           
  Marcel Mueller         : wB97X-3c, vDZP basis set                      
  Hagen Neugebauer       : wr2SCAN                                       
  Tobias Risthaus        : range-separated hybrid DFT                    
  Lukas Wittmann         : regularized MP2, r2SCAN double-hybrids, wr2SCAN        
                                                                         
We gratefully acknowledge several colleagues who have allowed us to      
interface, adapt or use parts of their codes:                            
  Ed Valeev, F. Pavosevic, A. Kumar             : LibInt (2-el integral package), F12 methods 
  Garnet Chan, S. Sharma, J. Yang, R. Olivares  : DMRG                   
  Ulf Ekstrom                                   : XCFun DFT Library      
  Mihaly Kallay                                 : mrcc  (arbitrary order and MRCC methods)
  Frank Weinhold                                : gennbo (NPA and NBO analysis)           
  Simon Mueller                                 : openCOSMO-RS                            
  Christopher J. Cramer and Donald G. Truhlar   : smd solvation model                     
  S Lehtola, MJT Oliveira, MAL Marques          : LibXC Library                           
  Liviu Ungur et al                             : ANISO software                          


 Your calculation uses the libint2 library for the computation of 2-el integrals
 For citations please refer to: http://libint.valeyev.net

 Your ORCA version has been built with support for libXC version: 6.2.2
 For citations please refer to: https://libxc.gitlab.io

 This ORCA versions uses:
   CBLAS   interface :  Fast vector & matrix operations
   LAPACKE interface :  Fast linear algebra routines
   SCALAPACK package :  Parallel linear algebra routines
   Shared memory     :  Shared parallel matrices
   BLAS/LAPACK       :  OpenBLAS 0.3.27  USE64BITINT DYNAMIC_ARCH NO_AFFINITY SkylakeX SINGLE_THREADED
        Core in use  :  SkylakeX
   Copyright (c) 2011-2014, The OpenBLAS Project


NOTE: MaxCore=5000 MB was set to SCF,MP2,MDCI,CIPSI,MRCI and CIS
      => If you want to overwrite this, your respective input block should be placed after the MaxCore statement
Your calculation utilizes the atom-pairwise dispersion correction
based on EEQ partial charges (D4)


Warning: RI is on but no J-basis has been assigned. Assigning Def2/J (nothing to worry about!)
================================================================================

----- Orbital basis set information -----
Your calculation utilizes the basis: def2-TZVP
   F. Weigend and R. Ahlrichs, Phys. Chem. Chem. Phys. 7, 3297 (2005).

----- AuxJ basis set information -----
Your calculation utilizes the auxiliary basis: def2/J
   F. Weigend, Phys. Chem. Chem. Phys. 8, 1057 (2006).

================================================================================
                                        WARNINGS
                       Please study these warnings very carefully!
================================================================================


================================================================================
                                       INPUT FILE
================================================================================
NAME = input.inp
|  1> ! SP B3LYP D4 def2-TZVP TightSCF CPCM(water)
|  2> 
|  3> %maxcore 5000
|  4> 
|  5> %pal
|  6> nprocs 25
|  7> end
|  8> 
|  9> %geom
| 10>     MaxIter 500
| 11> end
| 12> 
| 13> * xyz 0 1
| 14> N           -0.60624208623108       -0.07038768740813        2.61779034356506
| 15> C           -1.12363857719648       -0.46494171308769        1.30167160544046
| 16> C           -0.46115143649218        0.34163711122745        0.19182138532505
| 17> C           -0.84160635497570       -0.21723571656020       -1.17316177100070
| 18> C           -0.09544420049474        0.40853737944184       -2.33142058957238
| 19> O            0.84922426153757        1.20774139071620       -2.11795563449569
| 20> O           -0.46682556211610        0.11544106456384       -3.50070496627333
| 21> H            0.42253527310690       -0.21407857981904        2.61093202702617
| 22> H           -0.81698322881158        0.91962205817293        2.82923517772714
| 23> H           -2.20304685893737       -0.32985238309295        1.26284233750033
| 24> H           -0.89442969034039       -1.51620650789796        1.14932674449952
| 25> H            0.62070683385611        0.28190424694163        0.29435809732139
| 26> H           -0.75910670475907        1.38717608207950        0.25577346814278
| 27> H           -1.90736417744609       -0.10901768053352       -1.36916371215748
| 28> H           -0.62300429187772       -1.28501580858022       -1.21897913767332
| 29> H           -0.99073730398029       -0.68430732542489        3.36337486397463
| 30> O           -3.45985470422117        0.93435351779080        3.55135133249438
| 31> H           -3.71461002897634        0.00567615721167        3.43043008728849
| 32> H           -3.30865244519961        1.27756999909041        2.65730831111055
| 33> O            3.38484117471065        1.54086947865359       -0.92475280759202
| 34> H            2.50773022992637        1.31951267183179       -1.28269647633066
| 35> H            3.26205202955874        1.64188532440788        0.03979779198827
| 36> O            0.43076913600588       -0.55794601208544       -8.33256281277565
| 37> H            0.62593586412931        0.32566542015321       -8.69535366240779
| 38> H            1.17554475498325       -0.77826072096810       -7.75060174014193
| 39> O           -1.73807109569588       -4.52815447403135        3.69560625218186
| 40> H           -1.62084670991683       -3.62489152506666        4.07526673264828
| 41> H           -2.23453635655325       -4.37532575500056        2.87894191792370
| 42> O            2.36733125082284       -1.68399841016631       -6.46894687372683
| 43> H            1.55401365960992       -1.83106031726957       -5.90843981510293
| 44> H            2.52871552282795       -2.51434410456892       -6.92438585451898
| 45> O           -4.03513686720845       -2.10643999618028       -0.79231236261615
| 46> H           -4.10838348762364       -1.16156036406711       -1.00265739883655
| 47> H           -3.69301971333794       -2.53328628648425       -1.60409149644331
| 48> O           -1.71477927748549       -1.47856284807654       -6.99090675369852
| 49> H           -1.02351489398701       -1.00456768554714       -7.50293159601129
| 50> H           -2.09954776439023       -2.12045726858926       -7.59318609989343
| 51> O            0.18675177817458       -2.07940943782854       -5.06335381435464
| 52> H           -0.52724698444976       -1.96090179080827       -5.71857625065735
| 53> H            0.07807642271833       -1.34449088116994       -4.43591386487011
| 54> O           -1.01733521786487        2.70401576817890        3.03081391173356
| 55> H           -1.84865536467566        3.18720209911590        2.87694522396737
| 56> H           -0.32257722785069        3.15806868774483        2.52588554336221
| 57> O           -1.05782401911662        1.67380229559196       -5.63483731822377
| 58> H           -0.74596304818914        1.11120437365200       -4.89793188186753
| 59> H           -1.67394751280561        2.30046463018427       -5.22137313760128
| 60> O            3.50909700609436       -3.90595774156387        2.15390355296686
| 61> H            3.27819983327660       -3.43314119426503        1.32959299523596
| 62> H            2.65682258200416       -4.23841919157867        2.48198329161473
| 63> O           -2.73200301744733       -3.32924244360431        1.27293828460133
| 64> H           -1.81711513940382       -3.34795749114326        0.95280662040176
| 65> H           -3.25151476692748       -2.97529208582291        0.52612236517772
| 66> O           -4.69875570770153        1.03453230850505       -4.28339616090669
| 67> H           -4.01363198020510        0.32920713179163       -4.39032983316797
| 68> H           -5.37180183855103        0.86332542976689       -4.94684072791799
| 69> O            1.35017551556422       -2.64057583602005        4.86813505214742
| 70> H            0.93859043403694       -1.75083612316463        4.79735964097648
| 71> H            1.07934383637303       -3.13991539890414        4.07327888030117
| 72> O            4.60966725306771       -0.90261518152695       -1.21966813113810
| 73> H            4.28307710142023        0.02046052660554       -1.13978888248889
| 74> H            4.50778205051742       -1.13577832097045       -2.15049823759130
| 75> O           -3.46774450434473        3.95969356040552        2.79698533709408
| 76> H           -3.92745423965757        3.61611005151621        3.56899463352907
| 77> H           -3.71301610621392        3.36705695860603        2.06009110192839
| 78> O            4.55000885830547        1.29930510366292       -4.60866596845090
| 79> H            5.43835584082182        1.66179158281730       -4.63947133949814
| 80> H            4.24882526678006        1.18949876056604       -5.54760081537942
| 81> O            0.76826333690427       -4.28371292275104        2.74785425024689
| 82> H            0.49746363324711       -3.96974947833974        1.86658987137902
| 83> H           -0.06509940434962       -4.59963951154514        3.15621076744038
| 84> O           -1.29033936984995       -1.17367140820090        7.14108782636291
| 85> H           -1.62009168901153       -0.33319540014147        6.76805533588605
| 86> H           -0.39473739683115       -0.94977787909465        7.45362061013939
| 87> O            3.75076562801543       -1.25074932974922       -4.00817732845207
| 88> H            3.39459831738549       -1.50302038748551       -4.87670552753724
| 89> H            4.04049551993828       -0.32476161279002       -4.12422927573286
| 90> O           -1.53166940091679       -1.92939175014456        4.47687266856073
| 91> H           -2.46956055800217       -1.79917771491112        4.26195833015001
| 92> H           -1.42796307864592       -1.73373177268923        5.42475930087755
| 93> O            0.97139425398925        2.02124280129103       -9.19167313376954
| 94> H            0.29353475720777        2.58929974731433       -9.56809338199298
| 95> H            1.17993225805113        2.38674664887972       -8.31537040000198
| 96> O           -3.56518927893213        1.99889525099445        0.89976293882254
| 97> H           -2.99545891806586        2.35659860277625        0.20250524663644
| 98> H           -4.24474666396918        1.50035773632740        0.43215673574298
| 99> O            1.56479824443993       -1.74399692268416       -2.37408545632153
|100> H            2.32791262929035       -1.61666123672532       -2.96424197425055
|101> H            1.94904190124344       -1.93568031648489       -1.49126378628737
|102> O            3.42874992014195        0.87156746469143       -6.97084884726600
|103> H            3.08828272775300       -0.03062414008490       -6.85377177383735
|104> H            2.65016875465481        1.46079511923782       -6.88399349423826
|105> O           -3.94566243350755       -1.79334740904009        3.17871411808798
|106> H           -3.47384539439077       -2.29148645391535        2.47644267145068
|107> H           -4.77658544029908       -2.24863405884950        3.31847608344742
|108> O           -2.77661586127980       -0.80178818392074       -4.49766360217037
|109> H           -1.97319469358985       -0.45527751913582       -4.04696045984096
|110> H           -2.49917488783907       -0.94801581841163       -5.41765917481475
|111> O            2.26331775548481        2.66363961611144       -3.94273318133117
|112> H            3.09679703865211        2.17107360709981       -4.07296340333741
|113> H            1.70774681115051        2.07878323976031       -3.37977614763015
|114> O            1.03677426923133        3.97587621265697        1.72353398649282
|115> H            1.19972168406657        4.92027023908938        1.77162846330634
|116> H            0.76982712867680        3.79577429962699        0.78911654720989
|117> O            2.09930009721335        3.68069892937178        4.65274085167046
|118> H            2.60099216979125        2.85058467775784        4.71150213691031
|119> H            1.77432465045798        3.71146632807653        3.74301515847420
|120> O            0.85290544703521        0.01729769706029        5.09073257709711
|121> H            1.12754172101561       -0.11434149865481        6.00925492352898
|122> H           -0.04238840351646        0.41650871715291        5.15698703040328
|123> O            0.00324297760222       -3.36291555137929        0.22820987905821
|124> H            0.87676909915687       -2.94525162099886        0.16017220522890
|125> H           -0.16070076003603       -3.74538213424340       -0.64595594238135
|126> O            0.17098242460356       -3.69576605612512        7.03979910014110
|127> H           -0.55908481270106       -3.07576038690067        7.17566589448349
|128> H            0.61330266343669       -3.37974579509336        6.21142475405745
|129> O            2.02323439519294       -0.65553148779421        2.07044450602214
|130> H            2.35677712553780        0.23928619905881        1.86971499056732
|131> H            2.61498538395027       -1.01515166648259        2.76701640247685
|132> O            2.65219956176351       -2.24367101238309        0.09078714825152
|133> H            2.37564175277212       -1.61320461017357        0.81896996003575
|134> H            3.47052762596020       -1.85329107714689       -0.27565521237206
|135> O            1.31815820182293       -0.39849496872008        7.82345238929095
|136> H            1.67552002270259       -1.24687473336731        8.15564545598919
|137> H            1.53634222207258        0.27266261663961        8.47308737620705
|138> O           -4.21058716542034        0.66917953410616       -1.54380588595219
|139> H           -4.64807232239610        0.74614676565964       -2.40341204183934
|140> H           -3.46730573095100        1.29093821541325       -1.59128241094452
|141> O           -2.88501015804295       -3.13738021490954       -3.03870038256440
|142> H           -2.87400656751972       -2.34713723393938       -3.61338072439828
|143> H           -1.94906666644737       -3.34903557071587       -2.86188616972762
|144> O           -0.54236804186732        3.55142476059117        5.55498821920870
|145> H           -0.74274433039987        3.32175491658295        4.61602279712846
|146> H            0.42071608177668        3.67780175690291        5.54791179263608
|147> O            3.68341283735116       -1.76581824076386        3.88934183326953
|148> H            2.92394977893664       -2.10287774783467        4.42331485303266
|149> H            3.90965424330394       -2.52219052729422        3.31841145342828
|150> O            0.45047962543900        3.54387683205883       -0.84249124441045
|151> H            1.24004214462761        4.00757656231038       -1.19581247709411
|152> H            0.57423257317185        2.62864877790251       -1.16956030865621
|153> O           -1.61636544219815        1.01349477808655        5.56924659485857
|154> H           -1.36177541076975        1.93248962238516        5.75420093810465
|155> H           -2.27833768538457        1.04676657181400        4.84849167801258
|156> O            2.07945151952054       -2.85881540219750        8.69923370475051
|157> H            2.88708077254189       -3.31977919349024        8.45854271575970
|158> H            1.35810539627763       -3.28267111696132        8.16569746579229
|159> O            3.15185109575647        1.12123382997536        4.30023211898556
|160> H            2.25655012098910        0.74985443356882        4.51475077188705
|161> H            3.74232731021386        0.36304376433815        4.36644239624493
|162> O            2.90538221540293        4.18788854636782       -1.77534790256220
|163> H            3.31411167521095        3.39878093120492       -1.36950366091119
|164> H            2.71706698780295        3.89380639419767       -2.68749111801634
|165> O            1.32313363664168        2.57938439990890       -6.49098371374194
|166> H            0.43063047659312        2.22320984576168       -6.27758936601001
|167> H            1.69365584279916        2.80302227537594       -5.61166723397496
|168> O           -0.21040575864521       -3.76991132227877       -2.53649468486580
|169> H            0.39114144803255       -2.99391536644149       -2.61787641756265
|170> H            0.11376025273825       -4.41798175048796       -3.16553801615508
|171> O           -2.23891965982613        2.82616257121249       -1.50016333271283
|172> H           -1.38505643236372        3.24289984799093       -1.30579862422045
|173> H           -2.44486632121899        3.05414859936955       -2.42185845572604
|174> O            2.85661348542110        1.89473674940933        1.73370452786364
|175> H            3.14136493096845        1.76805730878523        2.66409821114908
|176> H            2.21286212464472        2.62474526390670        1.75116405780754
|177> O           -2.99026768519935        3.15321750926823       -4.17949489004768
|178> H           -3.43925920935644        3.94633715563314       -4.48487163131767
|179> H           -3.65036293012215        2.42675736025620       -4.21893541093250
|180> *
|181> 
|182>                          ****END OF INPUT****
================================================================================

                       ****************************
                       * Single Point Calculation *
                       ****************************

---------------------------------
CARTESIAN COORDINATES (ANGSTROEM)
---------------------------------
  N     -0.606242   -0.070388    2.617790
  C     -1.123639   -0.464942    1.301672
  C     -0.461151    0.341637    0.191821
  C     -0.841606   -0.217236   -1.173162
  C     -0.095444    0.408537   -2.331421
  O      0.849224    1.207741   -2.117956
  O     -0.466826    0.115441   -3.500705
  H      0.422535   -0.214079    2.610932
  H     -0.816983    0.919622    2.829235
  H     -2.203047   -0.329852    1.262842
  H     -0.894430   -1.516207    1.149327
  H      0.620707    0.281904    0.294358
  H     -0.759107    1.387176    0.255773
  H     -1.907364   -0.109018   -1.369164
  H     -0.623004   -1.285016   -1.218979
  H     -0.990737   -0.684307    3.363375
  O     -3.459855    0.934354    3.551351
  H     -3.714610    0.005676    3.430430
  H     -3.308652    1.277570    2.657308
  O      3.384841    1.540869   -0.924753
  H      2.507730    1.319513   -1.282696
  H      3.262052    1.641885    0.039798
  O      0.430769   -0.557946   -8.332563
  H      0.625936    0.325665   -8.695354
  H      1.175545   -0.778261   -7.750602
  O     -1.738071   -4.528154    3.695606
  H     -1.620847   -3.624892    4.075267
  H     -2.234536   -4.375326    2.878942
  O      2.367331   -1.683998   -6.468947
  H      1.554014   -1.831060   -5.908440
  H      2.528716   -2.514344   -6.924386
  O     -4.035137   -2.106440   -0.792312
  H     -4.108383   -1.161560   -1.002657
  H     -3.693020   -2.533286   -1.604091
  O     -1.714779   -1.478563   -6.990907
  H     -1.023515   -1.004568   -7.502932
  H     -2.099548   -2.120457   -7.593186
  O      0.186752   -2.079409   -5.063354
  H     -0.527247   -1.960902   -5.718576
  H      0.078076   -1.344491   -4.435914
  O     -1.017335    2.704016    3.030814
  H     -1.848655    3.187202    2.876945
  H     -0.322577    3.158069    2.525886
  O     -1.057824    1.673802   -5.634837
  H     -0.745963    1.111204   -4.897932
  H     -1.673948    2.300465   -5.221373
  O      3.509097   -3.905958    2.153904
  H      3.278200   -3.433141    1.329593
  H      2.656823   -4.238419    2.481983
  O     -2.732003   -3.329242    1.272938
  H     -1.817115   -3.347957    0.952807
  H     -3.251515   -2.975292    0.526122
  O     -4.698756    1.034532   -4.283396
  H     -4.013632    0.329207   -4.390330
  H     -5.371802    0.863325   -4.946841
  O      1.350176   -2.640576    4.868135
  H      0.938590   -1.750836    4.797360
  H      1.079344   -3.139915    4.073279
  O      4.609667   -0.902615   -1.219668
  H      4.283077    0.020461   -1.139789
  H      4.507782   -1.135778   -2.150498
  O     -3.467745    3.959694    2.796985
  H     -3.927454    3.616110    3.568995
  H     -3.713016    3.367057    2.060091
  O      4.550009    1.299305   -4.608666
  H      5.438356    1.661792   -4.639471
  H      4.248825    1.189499   -5.547601
  O      0.768263   -4.283713    2.747854
  H      0.497464   -3.969749    1.866590
  H     -0.065099   -4.599640    3.156211
  O     -1.290339   -1.173671    7.141088
  H     -1.620092   -0.333195    6.768055
  H     -0.394737   -0.949778    7.453621
  O      3.750766   -1.250749   -4.008177
  H      3.394598   -1.503020   -4.876706
  H      4.040496   -0.324762   -4.124229
  O     -1.531669   -1.929392    4.476873
  H     -2.469561   -1.799178    4.261958
  H     -1.427963   -1.733732    5.424759
  O      0.971394    2.021243   -9.191673
  H      0.293535    2.589300   -9.568093
  H      1.179932    2.386747   -8.315370
  O     -3.565189    1.998895    0.899763
  H     -2.995459    2.356599    0.202505
  H     -4.244747    1.500358    0.432157
  O      1.564798   -1.743997   -2.374085
  H      2.327913   -1.616661   -2.964242
  H      1.949042   -1.935680   -1.491264
  O      3.428750    0.871567   -6.970849
  H      3.088283   -0.030624   -6.853772
  H      2.650169    1.460795   -6.883993
  O     -3.945662   -1.793347    3.178714
  H     -3.473845   -2.291486    2.476443
  H     -4.776585   -2.248634    3.318476
  O     -2.776616   -0.801788   -4.497664
  H     -1.973195   -0.455278   -4.046960
  H     -2.499175   -0.948016   -5.417659
  O      2.263318    2.663640   -3.942733
  H      3.096797    2.171074   -4.072963
  H      1.707747    2.078783   -3.379776
  O      1.036774    3.975876    1.723534
  H      1.199722    4.920270    1.771628
  H      0.769827    3.795774    0.789117
  O      2.099300    3.680699    4.652741
  H      2.600992    2.850585    4.711502
  H      1.774325    3.711466    3.743015
  O      0.852905    0.017298    5.090733
  H      1.127542   -0.114341    6.009255
  H     -0.042388    0.416509    5.156987
  O      0.003243   -3.362916    0.228210
  H      0.876769   -2.945252    0.160172
  H     -0.160701   -3.745382   -0.645956
  O      0.170982   -3.695766    7.039799
  H     -0.559085   -3.075760    7.175666
  H      0.613303   -3.379746    6.211425
  O      2.023234   -0.655531    2.070445
  H      2.356777    0.239286    1.869715
  H      2.614985   -1.015152    2.767016
  O      2.652200   -2.243671    0.090787
  H      2.375642   -1.613205    0.818970
  H      3.470528   -1.853291   -0.275655
  O      1.318158   -0.398495    7.823452
  H      1.675520   -1.246875    8.155645
  H      1.536342    0.272663    8.473087
  O     -4.210587    0.669180   -1.543806
  H     -4.648072    0.746147   -2.403412
  H     -3.467306    1.290938   -1.591282
  O     -2.885010   -3.137380   -3.038700
  H     -2.874007   -2.347137   -3.613381
  H     -1.949067   -3.349036   -2.861886
  O     -0.542368    3.551425    5.554988
  H     -0.742744    3.321755    4.616023
  H      0.420716    3.677802    5.547912
  O      3.683413   -1.765818    3.889342
  H      2.923950   -2.102878    4.423315
  H      3.909654   -2.522191    3.318411
  O      0.450480    3.543877   -0.842491
  H      1.240042    4.007577   -1.195812
  H      0.574233    2.628649   -1.169560
  O     -1.616365    1.013495    5.569247
  H     -1.361775    1.932490    5.754201
  H     -2.278338    1.046767    4.848492
  O      2.079452   -2.858815    8.699234
  H      2.887081   -3.319779    8.458543
  H      1.358105   -3.282671    8.165697
  O      3.151851    1.121234    4.300232
  H      2.256550    0.749854    4.514751
  H      3.742327    0.363044    4.366442
  O      2.905382    4.187889   -1.775348
  H      3.314112    3.398781   -1.369504
  H      2.717067    3.893806   -2.687491
  O      1.323134    2.579384   -6.490984
  H      0.430630    2.223210   -6.277589
  H      1.693656    2.803022   -5.611667
  O     -0.210406   -3.769911   -2.536495
  H      0.391141   -2.993915   -2.617876
  H      0.113760   -4.417982   -3.165538
  O     -2.238920    2.826163   -1.500163
  H     -1.385056    3.242900   -1.305799
  H     -2.444866    3.054149   -2.421858
  O      2.856613    1.894737    1.733705
  H      3.141365    1.768057    2.664098
  H      2.212862    2.624745    1.751164
  O     -2.990268    3.153218   -4.179495
  H     -3.439259    3.946337   -4.484872
  H     -3.650363    2.426757   -4.218935

----------------------------
CARTESIAN COORDINATES (A.U.)
----------------------------
  NO LB      ZA    FRAG     MASS         X           Y           Z
   0 N     7.0000    0    14.007   -1.145632   -0.133013    4.946907
   1 C     6.0000    0    12.011   -2.123369   -0.878613    2.459803
   2 C     6.0000    0    12.011   -0.871450    0.645601    0.362490
   3 C     6.0000    0    12.011   -1.590406   -0.410516   -2.216954
   4 C     6.0000    0    12.011   -0.180363    0.772024   -4.405746
   5 O     8.0000    0    15.999    1.604801    2.282300   -4.002356
   6 O     8.0000    0    15.999   -0.882172    0.218152   -6.615374
   7 H     1.0000    0     1.008    0.798476   -0.404550    4.933946
   8 H     1.0000    0     1.008   -1.543875    1.737834    5.346480
   9 H     1.0000    0     1.008   -4.163155   -0.623331    2.386426
  10 H     1.0000    0     1.008   -1.690227   -2.865215    2.171913
  11 H     1.0000    0     1.008    1.172966    0.532722    0.556256
  12 H     1.0000    0     1.008   -1.434504    2.621383    0.483342
  13 H     1.0000    0     1.008   -3.604396   -0.206014   -2.587344
  14 H     1.0000    0     1.008   -1.177307   -2.428328   -2.303537
  15 H     1.0000    0     1.008   -1.872222   -1.293153    6.355857
  16 O     8.0000    0    15.999   -6.538178    1.765672    6.711081
  17 H     1.0000    0     1.008   -7.019596    0.010726    6.482573
  18 H     1.0000    0     1.008   -6.252447    2.414257    5.021585
  19 O     8.0000    0    15.999    6.396423    2.911821   -1.747530
  20 H     1.0000    0     1.008    4.738923    2.493518   -2.423945
  21 H     1.0000    0     1.008    6.164385    3.102714    0.075207
  22 O     8.0000    0    15.999    0.814036   -1.054365  -15.746262
  23 H     1.0000    0     1.008    1.182847    0.615418  -16.431837
  24 H     1.0000    0     1.008    2.221458   -1.470700  -14.646515
  25 O     8.0000    0    15.999   -3.284478   -8.556972    6.983684
  26 H     1.0000    0     1.008   -3.062956   -6.850052    7.701138
  27 H     1.0000    0     1.008   -4.222662   -8.268167    5.440412
  28 O     8.0000    0    15.999    4.473608   -3.182296  -12.224538
  29 H     1.0000    0     1.008    2.936660   -3.460203  -11.165333
  30 H     1.0000    0     1.008    4.778580   -4.751422  -13.085193
  31 O     8.0000    0    15.999   -7.625304   -3.980595   -1.497253
  32 H     1.0000    0     1.008   -7.763720   -2.195031   -1.894748
  33 H     1.0000    0     1.008   -6.978796   -4.787217   -3.031294
  34 O     8.0000    0    15.999   -3.240463   -2.794079  -13.210899
  35 H     1.0000    0     1.008   -1.934163   -1.898358  -14.178486
  36 H     1.0000    0     1.008   -3.967570   -4.007084  -14.349042
  37 O     8.0000    0    15.999    0.352910   -3.929514   -9.568352
  38 H     1.0000    0     1.008   -0.996352   -3.705567  -10.806543
  39 H     1.0000    0     1.008    0.147543   -2.540720   -8.382662
  40 O     8.0000    0    15.999   -1.922485    5.109849    5.727408
  41 H     1.0000    0     1.008   -3.493452    6.022939    5.436639
  42 H     1.0000    0     1.008   -0.609583    5.967885    4.773232
  43 O     8.0000    0    15.999   -1.998998    3.163028  -10.648299
  44 H     1.0000    0     1.008   -1.409666    2.099872   -9.255750
  45 H     1.0000    0     1.008   -3.163302    4.347248   -9.866965
  46 O     8.0000    0    15.999    6.631232   -7.381190    4.070288
  47 H     1.0000    0     1.008    6.194900   -6.487697    2.512567
  48 H     1.0000    0     1.008    5.020667   -8.009452    4.690269
  49 O     8.0000    0    15.999   -5.162738   -6.291356    2.405505
  50 H     1.0000    0     1.008   -3.433850   -6.326723    1.800544
  51 H     1.0000    0     1.008   -6.144472   -5.622487    0.994227
  52 O     8.0000    0    15.999   -8.879361    1.954983   -8.094446
  53 H     1.0000    0     1.008   -7.584665    0.622111   -8.296521
  54 H     1.0000    0     1.008  -10.151234    1.631449   -9.348174
  55 O     8.0000    0    15.999    2.551462   -4.989965    9.199442
  56 H     1.0000    0     1.008    1.773679   -3.308601    9.065696
  57 H     1.0000    0     1.008    2.039664   -5.933580    7.697382
  58 O     8.0000    0    15.999    8.711009   -1.705695   -2.304839
  59 H     1.0000    0     1.008    8.093843    0.038665   -2.153889
  60 H     1.0000    0     1.008    8.518474   -2.146310   -4.063853
  61 O     8.0000    0    15.999   -6.553087    7.482736    5.285536
  62 H     1.0000    0     1.008   -7.421813    6.833458    6.744422
  63 H     1.0000    0     1.008   -7.016584    6.362816    3.893008
  64 O     8.0000    0    15.999    8.598271    2.455331   -8.709117
  65 H     1.0000    0     1.008   10.277003    3.140331   -8.767330
  66 H     1.0000    0     1.008    8.029116    2.247827  -10.483446
  67 O     8.0000    0    15.999    1.451807   -8.095044    5.192692
  68 H     1.0000    0     1.008    0.940070   -7.501739    3.527344
  69 H     1.0000    0     1.008   -0.123020   -8.692059    5.964374
  70 O     8.0000    0    15.999   -2.438388   -2.217918   13.494700
  71 H     1.0000    0     1.008   -3.061530   -0.629648   12.789771
  72 H     1.0000    0     1.008   -0.745946   -1.794820   14.085302
  73 O     8.0000    0    15.999    7.087920   -2.363574   -7.574357
  74 H     1.0000    0     1.008    6.414861   -2.840297   -9.215638
  75 H     1.0000    0     1.008    7.635430   -0.613711   -7.793664
  76 O     8.0000    0    15.999   -2.894436   -3.646022    8.460063
  77 H     1.0000    0     1.008   -4.666793   -3.399953    8.053934
  78 H     1.0000    0     1.008   -2.698459   -3.276278   10.251309
  79 O     8.0000    0    15.999    1.835669    3.819595  -17.369745
  80 H     1.0000    0     1.008    0.554700    4.893067  -18.081076
  81 H     1.0000    0     1.008    2.229749    4.510298  -15.713773
  82 O     8.0000    0    15.999   -6.737231    3.777365    1.700306
  83 H     1.0000    0     1.008   -5.660597    4.453326    0.382679
  84 H     1.0000    0     1.008   -8.021409    2.835265    0.816658
  85 O     8.0000    0    15.999    2.957040   -3.295677   -4.486371
  86 H     1.0000    0     1.008    4.399117   -3.055047   -5.601606
  87 H     1.0000    0     1.008    3.683155   -3.657906   -2.818080
  88 O     8.0000    0    15.999    6.479398    1.647024  -13.172995
  89 H     1.0000    0     1.008    5.836009   -0.057871  -12.951752
  90 H     1.0000    0     1.008    5.008093    2.760503  -13.008862
  91 O     8.0000    0    15.999   -7.456221   -3.388935    6.006899
  92 H     1.0000    0     1.008   -6.564616   -4.330282    4.679798
  93 H     1.0000    0     1.008   -9.026438   -4.249303    6.271011
  94 O     8.0000    0    15.999   -5.247044   -1.515160   -8.499352
  95 H     1.0000    0     1.008   -3.728798   -0.860350   -7.647647
  96 H     1.0000    0     1.008   -4.722756   -1.791490  -10.237892
  97 O     8.0000    0    15.999    4.277051    5.033549   -7.450686
  98 H     1.0000    0     1.008    5.852098    4.102735   -7.696785
  99 H     1.0000    0     1.008    3.227174    3.928331   -6.386851
 100 O     8.0000    0    15.999    1.959219    7.513317    3.257007
 101 H     1.0000    0     1.008    2.267145    9.297963    3.347893
 102 H     1.0000    0     1.008    1.454762    7.172974    1.491214
 103 O     8.0000    0    15.999    3.967102    6.955513    8.792406
 104 H     1.0000    0     1.008    4.915163    5.386824    8.903449
 105 H     1.0000    0     1.008    3.352988    7.013655    7.073274
 106 O     8.0000    0    15.999    1.611758    0.032688    9.620090
 107 H     1.0000    0     1.008    2.130745   -0.216074   11.355846
 108 H     1.0000    0     1.008   -0.080102    0.787087    9.745293
 109 O     8.0000    0    15.999    0.006128   -6.354989    0.431254
 110 H     1.0000    0     1.008    1.656853   -5.565719    0.302682
 111 H     1.0000    0     1.008   -0.303680   -7.077747   -1.220680
 112 O     8.0000    0    15.999    0.323110   -6.983986   13.303292
 113 H     1.0000    0     1.008   -1.056517   -5.812345   13.560043
 114 H     1.0000    0     1.008    1.158974   -6.386794   11.737892
 115 O     8.0000    0    15.999    3.823359   -1.238775    3.912573
 116 H     1.0000    0     1.008    4.453663    0.452185    3.533249
 117 H     1.0000    0     1.008    4.941606   -1.918359    5.228903
 118 O     8.0000    0    15.999    5.011931   -4.239924    0.171563
 119 H     1.0000    0     1.008    4.489312   -3.048515    1.547629
 120 H     1.0000    0     1.008    6.558347   -3.502213   -0.520913
 121 O     8.0000    0    15.999    2.490958   -0.753046   14.784182
 122 H     1.0000    0     1.008    3.166274   -2.356252   15.411936
 123 H     1.0000    0     1.008    2.903266    0.515258   16.011815
 124 O     8.0000    0    15.999   -7.956857    1.264566   -2.917370
 125 H     1.0000    0     1.008   -8.783584    1.410013   -4.541791
 126 H     1.0000    0     1.008   -6.552258    2.439520   -3.007088
 127 O     8.0000    0    15.999   -5.451879   -5.928789   -5.742312
 128 H     1.0000    0     1.008   -5.431085   -4.435447   -6.828300
 129 H     1.0000    0     1.008   -3.683202   -6.328760   -5.408181
 130 O     8.0000    0    15.999   -1.024927    6.711220   10.497406
 131 H     1.0000    0     1.008   -1.403583    6.277207    8.723019
 132 H     1.0000    0     1.008    0.795038    6.950038   10.484034
 133 O     8.0000    0    15.999    6.960642   -3.336913    7.349791
 134 H     1.0000    0     1.008    5.525464   -3.973863    8.358854
 135 H     1.0000    0     1.008    7.388176   -4.766249    6.270889
 136 O     8.0000    0    15.999    0.851283    6.696957   -1.592078
 137 H     1.0000    0     1.008    2.343340    7.573222   -2.259758
 138 H     1.0000    0     1.008    1.085142    4.967426   -2.210149
 139 O     8.0000    0    15.999   -3.054488    1.915228   10.524351
 140 H     1.0000    0     1.008   -2.573383    3.651876   10.873864
 141 H     1.0000    0     1.008   -4.305434    1.978102    9.162321
 142 O     8.0000    0    15.999    3.929594   -5.402378   16.439169
 143 H     1.0000    0     1.008    5.455792   -6.273474   15.984329
 144 H     1.0000    0     1.008    2.566447   -6.203349   15.430932
 145 O     8.0000    0    15.999    5.956135    2.118825    8.126261
 146 H     1.0000    0     1.008    4.264262    1.417020    8.531643
 147 H     1.0000    0     1.008    7.071974    0.686053    8.251380
 148 O     8.0000    0    15.999    5.490377    7.913962   -3.354921
 149 H     1.0000    0     1.008    6.262763    6.422765   -2.587987
 150 H     1.0000    0     1.008    5.134512    7.358228   -5.078622
 151 O     8.0000    0    15.999    2.500360    4.874330  -12.266182
 152 H     1.0000    0     1.008    0.813774    4.201258  -11.862925
 153 H     1.0000    0     1.008    3.200546    5.296944  -10.604514
 154 O     8.0000    0    15.999   -0.397609   -7.124100   -4.793280
 155 H     1.0000    0     1.008    0.739150   -5.657680   -4.947069
 156 H     1.0000    0     1.008    0.214976   -8.348776   -5.982000
 157 O     8.0000    0    15.999   -4.230945    5.340673   -2.834898
 158 H     1.0000    0     1.008   -2.617377    6.128193   -2.467602
 159 H     1.0000    0     1.008   -4.620128    5.771504   -4.576649
 160 O     8.0000    0    15.999    5.398217    3.580534    3.276227
 161 H     1.0000    0     1.008    5.936319    3.341144    5.034416
 162 H     1.0000    0     1.008    4.181703    4.960050    3.309220
 163 O     8.0000    0    15.999   -5.650787    5.958718   -7.898101
 164 H     1.0000    0     1.008   -6.499258    7.457496   -8.475179
 165 H     1.0000    0     1.008   -6.898186    4.585907   -7.972633

--------------------------------
INTERNAL COORDINATES (ANGSTROEM)
--------------------------------
 N      0   0   0     0.000000000000     0.00000000     0.00000000
 C      1   0   0     1.468175923003     0.00000000     0.00000000
 C      2   1   0     1.523557062444   110.94710983     0.00000000
 C      3   2   1     1.523241215202   110.48322105   171.30596381
 C      4   3   2     1.513245987690   114.26832990   187.29462677
 O      5   4   3     1.255664303005   120.26790978     7.32204090
 O      5   4   3     1.261370492422   117.92187331   188.32687851
 H      1   2   3     1.038786293784   107.81354525   302.03165457
 H      1   2   3     1.034040639151   111.64029235    62.47865203
 H      2   1   3     1.088521510039   110.37011547   238.00030989
 H      2   1   3     1.086693765178   108.13860671   118.95088286
 H      3   2   1     1.088346961912   109.54519592    52.18359472
 H      3   2   1     1.089044971686   110.27413737   292.70238332
 H      4   3   2     1.089021414122   111.66953804    64.77333089
 H      4   3   2     1.090889736863   110.28625465   306.42972232
 H      1   2   3     1.039533631726   110.72556849   185.51002230
 O      9   1   2     2.739788019612   104.81135081    77.36925641
 H     17   9   1     0.970548228109   102.42832189   357.35706624
 H     17   9   1     0.969521841040    66.94698498   255.76889204
 O      6   5   4     2.822066696496   145.38353355    59.82868725
 H     20   6   5     0.972854621913     7.02384257   352.40912430
 H     20   6   5     0.977568020350   108.45273250   283.02824856
 O      7   5   4     4.960441174523   151.79143507   208.79645536
 H     23   7   5     0.974923799856   106.00154415   291.63312810
 H     23   7   5     0.970519440111    65.51737640    32.23954753
 O     16   1   2     3.929891397151   135.12221295    40.09188488
 H     26  16   1     0.986796631542    27.70268038   166.39481403
 H     26  16   1     0.967871379600    82.63256947   306.66319621
 O     25  23   7     1.970623000451   163.42260356    75.61671936
 H     29  25  23     0.998639510266    86.57044550   313.95166835
 H     29  25  23     0.960699495518   100.98336078    59.59384403
 O     14   4   3     2.974873107514   126.75169441   267.66879055
 H     32  14   4     0.970776813097    50.09113783   164.92115890
 H     32  14   4     0.978890833871    83.22318723   282.00563998
 O     23   7   5     2.692759613149    54.33130628   162.38838676
 H     35  23   7     0.982184962795     9.76488900    87.91628390
 H     35  23   7     0.960632940541   103.60391487   194.01954131
 O     30  29  25     1.626423280321   177.16130087    34.90515745
 H     38  30  29     0.976296438827   104.33240167   344.27622444
 H     38  30  29     0.972417866976   108.28905471   232.76994543
 O      9   1   2     1.806885668168   172.26940728   288.22433976
 H     41   9   1     0.973775020204   124.54516738   119.67050608
 H     41   9   1     0.971496461981   108.92177329   351.60847196
 O      7   5   4     2.707820119245   131.38636504   129.76470291
 H     44   7   5     0.978163232334     6.09983192    89.14329484
 H     44   7   5     0.971219063718   100.03610670   309.80973049
 O      8   1   2     4.833809067658   137.61704101   296.95963578
 H     47   8   1     0.977935011850    63.87479055    92.85172273
 H     47   8   1     0.971873769898    70.69451919   335.56497755
 O     28  26  16     1.980154297859   153.71788941    15.80577364
 H     50  28  26     0.969460862964    91.17689715    59.16579062
 H     50  28  26     0.976169724549   161.03960064   207.34741716
 O     46  44   7     3.410549818987   116.11757986   290.76862085
 H     53  46  44     0.989097031210    67.70493382    20.42166703
 H     53  46  44     0.960448636355   119.84756831   283.63808866
 O     49  47   8     3.155019836615   116.43906305   312.92866664
 H     56  49  47     0.982877507523   125.26932765    72.16980438
 H     56  49  47     0.976978060878    40.59240660   145.71654908
 O     20   6   5     2.749143731205   104.47931077    34.27222366
 H     59  20   6     0.982400419616     7.26212059   140.63277768
 H     59  20   6     0.964982036710   105.73558419    50.00028953
 O     42  41   9     1.795713307705   171.98559332    68.72045751
 H     62  42  41     0.961967266649   103.97490493     2.15217470
 H     62  42  41     0.976928561511    89.94225139   256.09222348
 O     61  59  20     3.460347234203   120.92518955    34.16443576
 H     65  61  59     0.959950925725   107.44662050    67.58374961
 H     65  61  59     0.992153030316   126.20599532   195.16189089
 O     58  56  49     1.778143498895   169.64546890    53.18895904
 H     68  58  56     0.973926295666   121.04812087   203.57513830
 H     68  58  56     0.980335714514    92.60912778    95.33231101
 O     57  56  49     3.285469370703   113.06338971   155.44396991
 H     71  57  56     0.976877551727    96.18522228   188.14725706
 H     71  57  56     0.974632211342    69.24933687    85.92506275
 O     61  59  20     2.009294354100   160.98387494   330.96818050
 H     74  61  59     0.972027300202   168.23734797   235.39587716
 H     74  61  59     0.977171794876    86.78236506    73.45379947
 O     27  26  16     1.744694645765   169.79262747    32.56968047
 H     77  27  26     0.970970488926    91.71936728    52.96834832
 H     77  27  26     0.973409932034   115.14648100   162.61655518
 O     24  23   7     1.800182538579   174.09037698     3.56926752
 H     80  24  23     0.961183850559   121.95761617   260.96533195
 H     80  24  23     0.972104748959    98.44020785    16.35085875
 O     64  62  42     1.800022409620   157.92683864     8.78062784
 H     83  64  62     0.968871849772   103.39010051   276.81330146
 H     83  64  62     0.963843065155   130.38921161   153.54361883
 O     15   4   3     2.516230158074   111.84259415   261.27089329
 H     86  15   4     0.973058403663   159.46046613   334.47062575
 H     86  15   4     0.981712693376    87.88591729   105.34759920
 O     67  65  61     1.673092598552   167.12675884    51.76945348
 H     89  67  65     0.971377703030   104.22688418   311.98171491
 H     89  67  65     0.980266143699   101.52017988    61.56131148
 O     78  77  27     1.830936580634   155.52106569   299.12852433
 H     92  78  77     0.981803957617    91.95666179    12.05508535
 H     92  78  77     0.957732939640   127.70553478   124.43068592
 O     54  53  46     1.679547504720   175.76809523    51.50550680
 H     95  54  53     0.984219760017   109.56509410   353.58729738
 H     95  54  53     0.971981413669   111.84061961   237.98238212
 O      6   5   4     2.729306349197   127.99903070   185.47006625
 H     98   6   5     0.976866879071   105.20205286   259.63151628
 H     98   6   5     0.983685252985     7.06527758   348.73999637
 O     43  41   9     1.777755230968   175.14186406   272.82778063
 H    101  43  41     0.959554592435   124.05453634   272.11348179
 H    101  43  41     0.988348838095    97.83652231   156.95321862
 O    101  43  41     3.129911120575    78.10061859   353.08626670
 H    104 101  43     0.971718835396   108.20559624    92.39995516
 H    104 101  43     0.966517723934     3.59813269    67.56743506
 O     57  56  49     1.794354146446   154.18898897   249.81504138
 H    107  57  56     0.967696885253    90.43496068   316.75845494
 H    107  57  56     0.982501994900   117.05996319   210.23059488
 O     69  68  58     1.815706603671   179.22923952    24.63542707
 H    110  69  68     0.970628749234    87.82808829    40.67247965
 H    110  69  68     0.968155007988   136.78586724   150.44555937
 O     56  49  47     2.687014604300   126.44974005   222.91523902
 H    113  56  49     0.967401150847   101.12870126   217.19911178
 H    113  56  49     0.990817872423     4.53871141   354.97322787
 O      8   1   2     1.746208781838   160.88302860   357.14661707
 H    116   8   1     0.975828767790    98.34724914   103.53962828
 H    116   8   1     0.982195658993   115.17121405   215.67766746
 O     88  86  15     1.758457882289   178.74971049   260.76729433
 H    119  88  86     1.002108932905   115.67118408    57.69718058
 H    119  88  86     0.977925006402    85.84653986   313.48499206
 O     73  71  57     1.837035580502   172.01754964    48.89599655
 H    122  73  71     0.978676621590    98.54964531   224.45679524
 H    122  73  71     0.959209251052   123.94609429   107.12774341
 O     33  32  14     1.911778191011   175.89247228    68.98899866
 H    125  33  32     0.967594936193   110.59827936    45.64074995
 H    125  33  32     0.970208827538   125.91474447   278.44584258
 O     34  32  14     1.753827691635   171.71181647    11.84252277
 H    128  34  32     0.977170682771   101.98751723   298.14887299
 H    128  34  32     0.975731251402   111.61776442    50.62877425
 O     41   9   1     2.704653721498   113.20735238   238.52871950
 H    131  41   9     0.987195501466     4.98839042   187.63290427
 H    131  41   9     0.971366177209   102.00973720    85.90075210
 O    118 116   8     1.721816454076   174.71755320   130.18145611
 H    134 118 116     0.987684379869    91.37741978   256.70648960
 H    134 118 116     0.974292414126    95.77284458     0.24518944
 O    103 101  43     1.681540706515   174.84201459   188.84802204
 H    137 103 101     0.981459273229    97.22402850   351.75564448
 H    137 103 101     0.979760866729   116.09491391    99.72513414
 O    109 107  57     1.733134162069   169.59557696    80.78193768
 H    140 109 107     0.971378256415    97.65150516    98.82605450
 H    140 109 107     0.979184310110   116.78065665   211.78871834
 O    123 122  73     1.748428310839   171.52571307     0.98281609
 H    143 123 122     0.960564823112   123.97053295   134.25760634
 H    143 123 122     0.992297745003    93.36485191    22.69306775
 O    105 104 101     1.860979026933   158.95715668   335.46496535
 H    146 105 104     0.992725915818    91.88707200   297.14034699
 H    146 105 104     0.963274694096   153.85504040   168.81862105
 O    138 137 103     1.772492954090   157.16283818    91.14408997
 H    149 138 137     0.976964762980   100.08355852   338.67336230
 H    149 138 137     0.976704757166    95.36886320    82.95428033
 O     91  89  67     1.779528271997   171.76929835   353.79922477
 H    152  91  89     0.984357329105   119.77327545   255.83981743
 H    152  91  89     0.980050037595    93.42010937     3.33472028
 O    130 128  34     1.818229294944   179.13893821   113.28203288
 H    155 130 128     0.985216601441   112.75254050   161.52967934
 H    155 130 128     0.959569901307   111.22654747    42.92438983
 O     84  83  64     1.921437550589   163.63297356   224.47248207
 H    158  84  83     0.969809264225   105.90715895   186.64948813
 H    158  84  83     0.971552137644   144.54318778    33.16835640
 O    117 116   8     1.734604207675   171.79368478    46.87419911
 H    161 117 116     0.981205112255    83.45752619    44.31199839
 H    161 117 116     0.973464473376   121.58240030   299.80191684
 O    160 158  84     1.842976704138   168.55029267   299.45038205
 H    164 160 158     0.961190468286   119.05099323   132.89971285
 H    164 160 158     0.982357183086   101.38445060    16.62162781

---------------------------
INTERNAL COORDINATES (A.U.)
---------------------------
 N      0   0   0     0.000000000000     0.00000000     0.00000000
 C      1   0   0     2.774450410893     0.00000000     0.00000000
 C      2   1   0     2.879105597420   110.94710983     0.00000000
 C      3   2   1     2.878508732634   110.48322105   171.30596381
 C      4   3   2     2.859620489989   114.26832990   187.29462677
 O      5   4   3     2.372861648821   120.26790978     7.32204090
 O      5   4   3     2.383644784086   117.92187331   188.32687851
 H      1   2   3     1.963021606923   107.81354525   302.03165457
 H      1   2   3     1.954053619340   111.64029235    62.47865203
 H      2   1   3     2.057007544856   110.37011547   238.00030989
 H      2   1   3     2.053553607626   108.13860671   118.95088286
 H      3   2   1     2.056677696700   109.54519592    52.18359472
 H      3   2   1     2.057996744011   110.27413737   292.70238332
 H      4   3   2     2.057952226666   111.66953804    64.77333089
 H      4   3   2     2.061482844977   110.28625465   306.42972232
 H      1   2   3     1.964433870962   110.72556849   185.51002230
 O      9   1   2     5.177449022066   104.81135081    77.36925641
 H     17   9   1     1.834070350888   102.42832189   357.35706624
 H     17   9   1     1.832130760421    66.94698498   255.76889204
 O      6   5   4     5.332933188038   145.38353355    59.82868725
 H     20   6   5     1.838428803534     7.02384257   352.40912430
 H     20   6   5     1.847335835741   108.45273250   283.02824856
 O      7   5   4     9.373875323275   151.79143507   208.79645536
 H     23   7   5     1.842338983170   106.00154415   291.63312810
 H     23   7   5     1.834015949457    65.51737640    32.23954753
 O     16   1   2     7.426418476668   135.12221295    40.09188488
 H     26  16   1     1.864775383489    27.70268038   166.39481403
 H     26  16   1     1.829011840304    82.63256947   306.66319621
 O     25  23   7     3.723937784058   163.42260356    75.61671936
 H     29  25  23     1.887155180916    86.57044550   313.95166835
 H     29  25  23     1.815458943525   100.98336078    59.59384403
 O     14   4   3     5.621695456369   126.75169441   267.66879055
 H     32  14   4     1.834502313915    50.09113783   164.92115890
 H     32  14   4     1.849835591021    83.22318723   282.00563998
 O     23   7   5     5.088578213335    54.33130628   162.38838676
 H     35  23   7     1.856060592538     9.76488900    87.91628390
 H     35  23   7     1.815333172847   103.60391487   194.01954131
 O     30  29  25     3.073494577640   177.16130087    34.90515745
 H     38  30  29     1.844932894905   104.33240167   344.27622444
 H     38  30  29     1.837603456316   108.28905471   232.76994543
 O      9   1   2     3.414519068144   172.26940728   288.22433976
 H     41   9   1     1.840168104239   124.54516738   119.67050608
 H     41   9   1     1.835862253217   108.92177329   351.60847196
 O      7   5   4     5.117038445296   131.38636504   129.76470291
 H     44   7   5     1.848460623383     6.09983192    89.14329484
 H     44   7   5     1.835338046471   100.03610670   309.80973049
 O      8   1   2     9.134575321538   137.61704101   296.95963578
 H     47   8   1     1.848029349169    63.87479055    92.85172273
 H     47   8   1     1.836575261849    70.69451919   335.56497755
 O     28  26  16     3.741949325860   153.71788941    15.80577364
 H     50  28  26     1.832015528557    91.17689715    59.16579062
 H     50  28  26     1.844693439623   161.03960064   207.34741716
 O     46  44   7     6.445005123980   116.11757986   290.76862085
 H     53  46  44     1.869122508861    67.70493382    20.42166703
 H     53  46  44     1.814984888408   119.84756831   283.63808866
 O     49  47   8     5.962123438291   116.43906305   312.92866664
 H     56  49  47     1.857369312409   125.26932765    72.16980438
 H     56  49  47     1.846220973909    40.59240660   145.71654908
 O     20   6   5     5.195128754764   104.47931077    34.27222366
 H     59  20   6     1.856467746924     7.26212059   140.63277768
 H     59  20   6     1.823551773536   105.73558419    50.00028953
 O     42  41   9     3.393406366600   171.98559332    68.72045751
 H     62  42  41     1.817854683763   103.97490493     2.15217470
 H     62  42  41     1.846127433662    89.94225139   256.09222348
 O     61  59  20     6.539108600916   120.92518955    34.16443576
 H     65  61  59     1.814044351625   107.44662050    67.58374961
 H     65  61  59     1.874897510237   126.20599532   195.16189089
 O     58  56  49     3.360204239724   169.64546890    53.18895904
 H     68  58  56     1.840453973432   121.04812087   203.57513830
 H     68  58  56     1.852566019733    92.60912778    95.33231101
 O     57  56  49     6.208637332016   113.06338971   155.44396991
 H     71  57  56     1.846031039139    96.18522228   188.14725706
 H     71  57  56     1.841787960735    69.24933687    85.92506275
 O     61  59  20     3.797016051683   160.98387494   330.96818050
 H     74  61  59     1.836865392078   168.23734797   235.39587716
 H     74  61  59     1.846587078107    86.78236506    73.45379947
 O     27  26  16     3.296995067815   169.79262747    32.56968047
 H     77  27  26     1.834868308190    91.71936728    52.96834832
 H     77  27  26     1.839478187582   115.14648100   162.61655518
 O     24  23   7     3.401851988981   174.09037698     3.56926752
 H     80  24  23     1.816374241904   121.95761617   260.96533195
 H     80  24  23     1.837011749017    98.44020785    16.35085875
 O     64  62  42     3.401549389103   157.92683864     8.78062784
 H     83  64  62     1.830902454936   103.39010051   276.81330146
 H     83  64  62     1.821399429222   130.38921161   153.54361883
 O     15   4   3     4.754985888674   111.84259415   261.27089329
 H     86  15   4     1.838813895233   159.46046613   334.47062575
 H     86  15   4     1.855168132674    87.88591729   105.34759920
 O     67  65  61     3.161686807954   167.12675884    51.76945348
 H     89  67  65     1.835637831325   104.22688418   311.98171491
 H     89  67  65     1.852434549947   101.52017988    61.56131148
 O     78  77  27     3.459968705976   155.52106569   299.12852433
 H     92  78  77     1.855340597096    91.95666179    12.05508535
 H     92  78  77     1.809852965355   127.70553478   124.43068592
 O     54  53  46     3.173884812832   175.76809523    51.50550680
 H     95  54  53     1.859905802025   109.56509410   353.58729738
 H     95  54  53     1.836778679096   111.84061961   237.98238212
 O      6   5   4     5.157641535555   127.99903070   185.47006625
 H     98   6   5     1.846010870743   105.20205286   259.63151628
 H     98   6   5     1.858895730119     7.06527758   348.73999637
 O     43  41   9     3.359470519675   175.14186406   272.82778063
 H    101  43  41     1.813295390248   124.05453634   272.11348179
 H    101  43  41     1.867708628778    97.83652231   156.95321862
 O    101  43  41     5.914674841402    78.10061859   353.08626670
 H    104 101  43     1.836282478071   108.20559624    92.39995516
 H    104 101  43     1.826453801816     3.59813269    67.56743506
 O     57  56  49     3.390837924049   154.18898897   249.81504138
 H    107  57  56     1.828682093777    90.43496068   316.75845494
 H    107  57  56     1.856659696392   117.05996319   210.23059488
 O     69  68  58     3.431188220490   179.22923952    24.63542707
 H    110  69  68     1.834222513762    87.82808829    40.67247965
 H    110  69  68     1.829547820281   136.78586724   150.44555937
 O     56  49  47     5.077721719974   126.44974005   222.91523902
 H    113  56  49     1.828123236742   101.12870126   217.19911178
 H    113  56  49     1.872374427475     4.53871141   354.97322787
 O      8   1   2     3.299856370322   160.88302860   357.14661707
 H    116   8   1     1.844049124724    98.34724914   103.53962828
 H    116   8   1     1.856080805424   115.17121405   215.67766746
 O     88  86  15     3.323003815561   178.74971049   260.76729433
 H    119  88  86     1.893711439546   115.67118408    57.69718058
 H    119  88  86     1.848010441613    85.84653986   313.48499206
 O     73  71  57     3.471494145418   172.01754964    48.89599655
 H    122  73  71     1.849430788477    98.54964531   224.45679524
 H    122  73  71     1.812642789612   123.94609429   107.12774341
 O     33  32  14     3.612737209815   175.89247228    68.98899866
 H    125  33  32     1.828489437974   110.59827936    45.64074995
 H    125  33  32     1.833428976760   125.91474447   278.44584258
 O     34  32  14     3.314254023278   171.71181647    11.84252277
 H    128  34  32     1.846584976534   101.98751723   298.14887299
 H    128  34  32     1.843864845458   111.61776442    50.62877425
 O     41   9   1     5.111054820722   113.20735238   238.52871950
 H    131  41   9     1.865529138410     4.98839042   187.63290427
 H    131  41   9     1.835616050678   102.00973720    85.90075210
 O    118 116   8     3.253761551084   174.71755320   130.18145611
 H    134 118 116     1.866452984705    91.37741978   256.70648960
 H    134 118 116     1.841145837056    95.77284458     0.24518944
 O    103 101  43     3.177651418354   174.84201459   188.84802204
 H    137 103 101     1.854689238001    97.22402850   351.75564448
 H    137 103 101     1.851479714851   116.09491391    99.72513414
 O    109 107  57     3.275148919654   169.59557696    80.78193768
 H    140 109 107     1.835638877070    97.65150516    98.82605450
 H    140 109 107     1.850390180740   116.78065665   211.78871834
 O    123 122  73     3.304050672279   171.52571307     0.98281609
 H    143 123 122     1.815204449560   123.97053295   134.25760634
 H    143 123 122     1.875170981363    93.36485191    22.69306775
 O    105 104 101     3.516740701875   158.95715668   335.46496535
 H    146 105 104     1.875980106943    91.88707200   297.14034699
 H    146 105 104     1.820325363578   153.85504040   168.81862105
 O    138 137 103     3.349526257534   157.16283818    91.14408997
 H    149 138 137     1.846195844523   100.08355852   338.67336230
 H    149 138 137     1.845704504741    95.36886320    82.95428033
 O     91  89  67     3.362821081645   171.76929835   353.79922477
 H    152  91  89     1.860165769926   119.77327545   255.83981743
 H    152  91  89     1.852026168593    93.42010937     3.33472028
 O    130 128  34     3.435955416117   179.13893821   113.28203288
 H    155 130 128     1.861789559316   112.75254050   161.52967934
 H    155 130 128     1.813324319825   111.22654747    42.92438983
 O     84  83  64     3.630990754046   163.63297356   224.47248207
 H    158  84  83     1.832673911525   105.90715895   186.64948813
 H    158  84  83     1.835967464972   144.54318778    33.16835640
 O    117 116   8     3.277926903252   171.79368478    46.87419911
 H    161 117 116     1.854208943366    83.45752619    44.31199839
 H    161 117 116     1.839581255783   121.58240030   299.80191684
 O    160 158  84     3.482721242017   168.55029267   299.45038205
 H    164 160 158     1.816386747596   119.05099323   132.89971285
 H    164 160 158     1.856386041722   101.38445060    16.62162781

---------------------
BASIS SET INFORMATION
---------------------
There are 4 groups of distinct atoms

 Group   1 Type N   : 11s6p2d1f contracted to 5s3p2d1f pattern {62111/411/11/1}
 Group   2 Type C   : 11s6p2d1f contracted to 5s3p2d1f pattern {62111/411/11/1}
 Group   3 Type O   : 11s6p2d1f contracted to 5s3p2d1f pattern {62111/411/11/1}
 Group   4 Type H   : 5s1p contracted to 3s1p pattern {311/1}

Atom   0N    basis set group =>   1
Atom   1C    basis set group =>   2
Atom   2C    basis set group =>   2
Atom   3C    basis set group =>   2
Atom   4C    basis set group =>   2
Atom   5O    basis set group =>   3
Atom   6O    basis set group =>   3
Atom   7H    basis set group =>   4
Atom   8H    basis set group =>   4
Atom   9H    basis set group =>   4
Atom  10H    basis set group =>   4
Atom  11H    basis set group =>   4
Atom  12H    basis set group =>   4
Atom  13H    basis set group =>   4
Atom  14H    basis set group =>   4
Atom  15H    basis set group =>   4
Atom  16O    basis set group =>   3
Atom  17H    basis set group =>   4
Atom  18H    basis set group =>   4
Atom  19O    basis set group =>   3
Atom  20H    basis set group =>   4
Atom  21H    basis set group =>   4
Atom  22O    basis set group =>   3
Atom  23H    basis set group =>   4
Atom  24H    basis set group =>   4
Atom  25O    basis set group =>   3
Atom  26H    basis set group =>   4
Atom  27H    basis set group =>   4
Atom  28O    basis set group =>   3
Atom  29H    basis set group =>   4
Atom  30H    basis set group =>   4
Atom  31O    basis set group =>   3
Atom  32H    basis set group =>   4
Atom  33H    basis set group =>   4
Atom  34O    basis set group =>   3
Atom  35H    basis set group =>   4
Atom  36H    basis set group =>   4
Atom  37O    basis set group =>   3
Atom  38H    basis set group =>   4
Atom  39H    basis set group =>   4
Atom  40O    basis set group =>   3
Atom  41H    basis set group =>   4
Atom  42H    basis set group =>   4
Atom  43O    basis set group =>   3
Atom  44H    basis set group =>   4
Atom  45H    basis set group =>   4
Atom  46O    basis set group =>   3
Atom  47H    basis set group =>   4
Atom  48H    basis set group =>   4
Atom  49O    basis set group =>   3
Atom  50H    basis set group =>   4
Atom  51H    basis set group =>   4
Atom  52O    basis set group =>   3
Atom  53H    basis set group =>   4
Atom  54H    basis set group =>   4
Atom  55O    basis set group =>   3
Atom  56H    basis set group =>   4
Atom  57H    basis set group =>   4
Atom  58O    basis set group =>   3
Atom  59H    basis set group =>   4
Atom  60H    basis set group =>   4
Atom  61O    basis set group =>   3
Atom  62H    basis set group =>   4
Atom  63H    basis set group =>   4
Atom  64O    basis set group =>   3
Atom  65H    basis set group =>   4
Atom  66H    basis set group =>   4
Atom  67O    basis set group =>   3
Atom  68H    basis set group =>   4
Atom  69H    basis set group =>   4
Atom  70O    basis set group =>   3
Atom  71H    basis set group =>   4
Atom  72H    basis set group =>   4
Atom  73O    basis set group =>   3
Atom  74H    basis set group =>   4
Atom  75H    basis set group =>   4
Atom  76O    basis set group =>   3
Atom  77H    basis set group =>   4
Atom  78H    basis set group =>   4
Atom  79O    basis set group =>   3
Atom  80H    basis set group =>   4
Atom  81H    basis set group =>   4
Atom  82O    basis set group =>   3
Atom  83H    basis set group =>   4
Atom  84H    basis set group =>   4
Atom  85O    basis set group =>   3
Atom  86H    basis set group =>   4
Atom  87H    basis set group =>   4
Atom  88O    basis set group =>   3
Atom  89H    basis set group =>   4
Atom  90H    basis set group =>   4
Atom  91O    basis set group =>   3
Atom  92H    basis set group =>   4
Atom  93H    basis set group =>   4
Atom  94O    basis set group =>   3
Atom  95H    basis set group =>   4
Atom  96H    basis set group =>   4
Atom  97O    basis set group =>   3
Atom  98H    basis set group =>   4
Atom  99H    basis set group =>   4
Atom 100O    basis set group =>   3
Atom 101H    basis set group =>   4
Atom 102H    basis set group =>   4
Atom 103O    basis set group =>   3
Atom 104H    basis set group =>   4
Atom 105H    basis set group =>   4
Atom 106O    basis set group =>   3
Atom 107H    basis set group =>   4
Atom 108H    basis set group =>   4
Atom 109O    basis set group =>   3
Atom 110H    basis set group =>   4
Atom 111H    basis set group =>   4
Atom 112O    basis set group =>   3
Atom 113H    basis set group =>   4
Atom 114H    basis set group =>   4
Atom 115O    basis set group =>   3
Atom 116H    basis set group =>   4
Atom 117H    basis set group =>   4
Atom 118O    basis set group =>   3
Atom 119H    basis set group =>   4
Atom 120H    basis set group =>   4
Atom 121O    basis set group =>   3
Atom 122H    basis set group =>   4
Atom 123H    basis set group =>   4
Atom 124O    basis set group =>   3
Atom 125H    basis set group =>   4
Atom 126H    basis set group =>   4
Atom 127O    basis set group =>   3
Atom 128H    basis set group =>   4
Atom 129H    basis set group =>   4
Atom 130O    basis set group =>   3
Atom 131H    basis set group =>   4
Atom 132H    basis set group =>   4
Atom 133O    basis set group =>   3
Atom 134H    basis set group =>   4
Atom 135H    basis set group =>   4
Atom 136O    basis set group =>   3
Atom 137H    basis set group =>   4
Atom 138H    basis set group =>   4
Atom 139O    basis set group =>   3
Atom 140H    basis set group =>   4
Atom 141H    basis set group =>   4
Atom 142O    basis set group =>   3
Atom 143H    basis set group =>   4
Atom 144H    basis set group =>   4
Atom 145O    basis set group =>   3
Atom 146H    basis set group =>   4
Atom 147H    basis set group =>   4
Atom 148O    basis set group =>   3
Atom 149H    basis set group =>   4
Atom 150H    basis set group =>   4
Atom 151O    basis set group =>   3
Atom 152H    basis set group =>   4
Atom 153H    basis set group =>   4
Atom 154O    basis set group =>   3
Atom 155H    basis set group =>   4
Atom 156H    basis set group =>   4
Atom 157O    basis set group =>   3
Atom 158H    basis set group =>   4
Atom 159H    basis set group =>   4
Atom 160O    basis set group =>   3
Atom 161H    basis set group =>   4
Atom 162H    basis set group =>   4
Atom 163O    basis set group =>   3
Atom 164H    basis set group =>   4
Atom 165H    basis set group =>   4
---------------------------------
AUXILIARY/J BASIS SET INFORMATION
---------------------------------
There are 4 groups of distinct atoms

 Group   1 Type N   : 12s5p4d2f1g contracted to 6s4p3d1f1g pattern {711111/2111/211/2/1}
 Group   2 Type C   : 12s5p4d2f1g contracted to 6s4p3d1f1g pattern {711111/2111/211/2/1}
 Group   3 Type O   : 12s5p4d2f1g contracted to 6s4p3d1f1g pattern {711111/2111/211/2/1}
 Group   4 Type H   : 5s2p1d contracted to 3s1p1d pattern {311/2/1}

Atom   0N    basis set group =>   1
Atom   1C    basis set group =>   2
Atom   2C    basis set group =>   2
Atom   3C    basis set group =>   2
Atom   4C    basis set group =>   2
Atom   5O    basis set group =>   3
Atom   6O    basis set group =>   3
Atom   7H    basis set group =>   4
Atom   8H    basis set group =>   4
Atom   9H    basis set group =>   4
Atom  10H    basis set group =>   4
Atom  11H    basis set group =>   4
Atom  12H    basis set group =>   4
Atom  13H    basis set group =>   4
Atom  14H    basis set group =>   4
Atom  15H    basis set group =>   4
Atom  16O    basis set group =>   3
Atom  17H    basis set group =>   4
Atom  18H    basis set group =>   4
Atom  19O    basis set group =>   3
Atom  20H    basis set group =>   4
Atom  21H    basis set group =>   4
Atom  22O    basis set group =>   3
Atom  23H    basis set group =>   4
Atom  24H    basis set group =>   4
Atom  25O    basis set group =>   3
Atom  26H    basis set group =>   4
Atom  27H    basis set group =>   4
Atom  28O    basis set group =>   3
Atom  29H    basis set group =>   4
Atom  30H    basis set group =>   4
Atom  31O    basis set group =>   3
Atom  32H    basis set group =>   4
Atom  33H    basis set group =>   4
Atom  34O    basis set group =>   3
Atom  35H    basis set group =>   4
Atom  36H    basis set group =>   4
Atom  37O    basis set group =>   3
Atom  38H    basis set group =>   4
Atom  39H    basis set group =>   4
Atom  40O    basis set group =>   3
Atom  41H    basis set group =>   4
Atom  42H    basis set group =>   4
Atom  43O    basis set group =>   3
Atom  44H    basis set group =>   4
Atom  45H    basis set group =>   4
Atom  46O    basis set group =>   3
Atom  47H    basis set group =>   4
Atom  48H    basis set group =>   4
Atom  49O    basis set group =>   3
Atom  50H    basis set group =>   4
Atom  51H    basis set group =>   4
Atom  52O    basis set group =>   3
Atom  53H    basis set group =>   4
Atom  54H    basis set group =>   4
Atom  55O    basis set group =>   3
Atom  56H    basis set group =>   4
Atom  57H    basis set group =>   4
Atom  58O    basis set group =>   3
Atom  59H    basis set group =>   4
Atom  60H    basis set group =>   4
Atom  61O    basis set group =>   3
Atom  62H    basis set group =>   4
Atom  63H    basis set group =>   4
Atom  64O    basis set group =>   3
Atom  65H    basis set group =>   4
Atom  66H    basis set group =>   4
Atom  67O    basis set group =>   3
Atom  68H    basis set group =>   4
Atom  69H    basis set group =>   4
Atom  70O    basis set group =>   3
Atom  71H    basis set group =>   4
Atom  72H    basis set group =>   4
Atom  73O    basis set group =>   3
Atom  74H    basis set group =>   4
Atom  75H    basis set group =>   4
Atom  76O    basis set group =>   3
Atom  77H    basis set group =>   4
Atom  78H    basis set group =>   4
Atom  79O    basis set group =>   3
Atom  80H    basis set group =>   4
Atom  81H    basis set group =>   4
Atom  82O    basis set group =>   3
Atom  83H    basis set group =>   4
Atom  84H    basis set group =>   4
Atom  85O    basis set group =>   3
Atom  86H    basis set group =>   4
Atom  87H    basis set group =>   4
Atom  88O    basis set group =>   3
Atom  89H    basis set group =>   4
Atom  90H    basis set group =>   4
Atom  91O    basis set group =>   3
Atom  92H    basis set group =>   4
Atom  93H    basis set group =>   4
Atom  94O    basis set group =>   3
Atom  95H    basis set group =>   4
Atom  96H    basis set group =>   4
Atom  97O    basis set group =>   3
Atom  98H    basis set group =>   4
Atom  99H    basis set group =>   4
Atom 100O    basis set group =>   3
Atom 101H    basis set group =>   4
Atom 102H    basis set group =>   4
Atom 103O    basis set group =>   3
Atom 104H    basis set group =>   4
Atom 105H    basis set group =>   4
Atom 106O    basis set group =>   3
Atom 107H    basis set group =>   4
Atom 108H    basis set group =>   4
Atom 109O    basis set group =>   3
Atom 110H    basis set group =>   4
Atom 111H    basis set group =>   4
Atom 112O    basis set group =>   3
Atom 113H    basis set group =>   4
Atom 114H    basis set group =>   4
Atom 115O    basis set group =>   3
Atom 116H    basis set group =>   4
Atom 117H    basis set group =>   4
Atom 118O    basis set group =>   3
Atom 119H    basis set group =>   4
Atom 120H    basis set group =>   4
Atom 121O    basis set group =>   3
Atom 122H    basis set group =>   4
Atom 123H    basis set group =>   4
Atom 124O    basis set group =>   3
Atom 125H    basis set group =>   4
Atom 126H    basis set group =>   4
Atom 127O    basis set group =>   3
Atom 128H    basis set group =>   4
Atom 129H    basis set group =>   4
Atom 130O    basis set group =>   3
Atom 131H    basis set group =>   4
Atom 132H    basis set group =>   4
Atom 133O    basis set group =>   3
Atom 134H    basis set group =>   4
Atom 135H    basis set group =>   4
Atom 136O    basis set group =>   3
Atom 137H    basis set group =>   4
Atom 138H    basis set group =>   4
Atom 139O    basis set group =>   3
Atom 140H    basis set group =>   4
Atom 141H    basis set group =>   4
Atom 142O    basis set group =>   3
Atom 143H    basis set group =>   4
Atom 144H    basis set group =>   4
Atom 145O    basis set group =>   3
Atom 146H    basis set group =>   4
Atom 147H    basis set group =>   4
Atom 148O    basis set group =>   3
Atom 149H    basis set group =>   4
Atom 150H    basis set group =>   4
Atom 151O    basis set group =>   3
Atom 152H    basis set group =>   4
Atom 153H    basis set group =>   4
Atom 154O    basis set group =>   3
Atom 155H    basis set group =>   4
Atom 156H    basis set group =>   4
Atom 157O    basis set group =>   3
Atom 158H    basis set group =>   4
Atom 159H    basis set group =>   4
Atom 160O    basis set group =>   3
Atom 161H    basis set group =>   4
Atom 162H    basis set group =>   4
Atom 163O    basis set group =>   3
Atom 164H    basis set group =>   4
Atom 165H    basis set group =>   4
--------------------------------------------------------------------------
WARNING: There was an error initializing an OpenFabrics device.

  Local host:   ga00
  Local device: mlx5_0
--------------------------------------------------------------------------


           ************************************************************
           *        Program running with 25 parallel MPI-processes    *
           *              working on a common directory               *
           ************************************************************
------------------------------------------------------------------------------
                             ORCA STARTUP CALCULATIONS
                           -- RI-GTO INTEGRALS CHOSEN --
------------------------------------------------------------------------------
------------------------------------------------------------------------------
                   ___                                                        
                  /   \      - P O W E R E D   B Y -                         
                 /     \                                                     
                 |  |  |   _    _      __       _____    __    __             
                 |  |  |  | |  | |    /  \     |  _  \  |  |  /  |          
                  \  \/   | |  | |   /    \    | | | |  |  | /  /          
                 / \  \   | |__| |  /  /\  \   | |_| |  |  |/  /          
                |  |  |   |  __  | /  /__\  \  |    /   |      \           
                |  |  |   | |  | | |   __   |  |    \   |  |\   \          
                \     /   | |  | | |  |  |  |  | |\  \  |  | \   \       
                 \___/    |_|  |_| |__|  |__|  |_| \__\ |__|  \__/        
                                                                              
                      - O R C A' S   B I G   F R I E N D -                    
                                      &                                       
                       - I N T E G R A L  F E E D E R -                       
                                                                              
 v1 FN, 2020, v2 2021, v3 2022-2024                                           
------------------------------------------------------------------------------


----------------------
SHARK INTEGRAL PACKAGE
----------------------

Number of atoms                             ...    166
Number of basis functions                   ...   2421
Number of shells                            ...   1063
Maximum angular momentum                    ...      3
Integral batch strategy                     ... SHARK/LIBINT Hybrid
RI-J (if used) integral strategy            ... SPLIT-RIJ (Revised 2003 algorithm where possible)
Printlevel                                  ...      1
Contraction scheme used                     ... SEGMENTED contraction
Prescreening option                         ... SCHWARTZ
   Thresh                                   ... 2.500e-11
   Tcut                                     ... 2.500e-12
   Tpresel                                  ... 2.500e-12 
Coulomb Range Separation                    ... NOT USED
Exchange Range Separation                   ... NOT USED
Multipole approximations                    ... NOT USED
Finite Nucleus Model                        ... NOT USED
CABS basis                                  ... NOT available
Auxiliary Coulomb fitting basis             ... AVAILABLE
   # of basis functions in Aux-J            ...   3992
   # of shells in Aux-J                     ...   1400
   Maximum angular momentum in Aux-J        ...      4
Auxiliary J/K fitting basis                 ... NOT available
Auxiliary Correlation fitting basis         ... NOT available
Auxiliary 'external' fitting basis          ... NOT available

Checking pre-screening integrals            ... done (  0.0 sec) Dimension = 1063
Check shell pair data                       ... done (  0.0 sec)
Shell pair information
Shell pair cut-off parameter TPreSel        ...   2.5e-12
Total number of shell pairs                 ...    565516
Shell pairs after pre-screening             ...    213588
Total number of primitive shell pairs       ...   1611696
Primitive shell pairs kept                  ...    365123
          la=0 lb=0:  80254 shell pairs
          la=1 lb=0:  68367 shell pairs
          la=1 lb=1:  14544 shell pairs
          la=2 lb=0:  23079 shell pairs
          la=2 lb=1:   9378 shell pairs
          la=2 lb=2:   1421 shell pairs
          la=3 lb=0:  10824 shell pairs
          la=3 lb=1:   4264 shell pairs
          la=3 lb=2:   1190 shell pairs
          la=3 lb=3:    267 shell pairs

Calculating one electron integrals          ... done (  0.7 sec)
Calculating RI/J V-Matrix + Cholesky decomp.... done (  0.8 sec)
Calculating Nuclear repulsion               ... done (  0.0 sec) ENN=  13697.766303047774 Eh

Diagonalization of the overlap matrix:
[ga00:860772] 24 more processes have sent help message help-mpi-btl-openib.txt / error in device init
[ga00:860772] Set MCA parameter "orte_base_help_aggregate" to 0 to see all help / error messages
Smallest eigenvalue                        ... 3.425e-05
Time for diagonalization                   ...    0.883 sec
Threshold for overlap eigenvalues          ... 1.000e-07
Number of eigenvalues below threshold      ... 0
Time for construction of square roots      ...    0.468 sec
Total time needed                          ...    1.405 sec

-------------------
DFT GRID GENERATION
-------------------

General Integration Accuracy     IntAcc      ... 4.388
Radial Grid Type                 RadialGrid  ... OptM3 with GC (2021)
Angular Grid (max. ang.)         AngularGrid ... 4 (Lebedev-302)
Angular grid pruning method      GridPruning ... 4 (adaptive)
Weight generation scheme         WeightScheme... mBecke (2022)
Basis function cutoff            BFCut       ... 1.0000e-11
Integration weight cutoff        WCut        ... 1.0000e-14
Partially contracted basis set               ... off
Rotationally invariant grid construction     ... off
Angular grids for H and He will be reduced by one unit

