49
 energy: -80.179632283945 gnorm: 0.075071351335 xtb: 6.7.1 (edcfbbe)
N           -0.35222122500000        0.16544585150000        1.53652534950000
C            0.69057644550000        0.35935321800000        0.48625664670000
C            0.17720511210000        1.12493413290000       -0.72441307530000
C           -0.95061190500000        0.43438462050000       -1.50414012070000
C           -0.55911211020000       -0.95780944450000       -1.98196228190000
O            0.45701835130000       -1.06740647360000       -2.71399953670000
O           -1.26174287430000       -1.94700665900000       -1.60935978230000
H            0.05421423390000       -0.31160320390000        2.36419263970000
H           -0.78524713300000        1.05538235230000        1.82622220330000
H            1.51513731930000        0.89702726360000        0.95131180350000
H            1.05115467130000       -0.63212368370000        0.21311616390000
H            1.03094303650000        1.27334956530000       -1.38598480030000
H           -0.15781590030000        2.11755069010000       -0.41447993750000
H           -1.86707644840000        0.37809538150000       -0.91741892970000
H           -1.17410804420000        1.03513799570000       -2.38926033650000
H           -1.11983120360000       -0.44708746090000        1.20980399410000
O           -1.29934314490000       -3.89805472610000       -3.64893849780000
H           -1.26954981240000       -3.21970608810000       -2.94383931550000
H           -0.40545099030000       -3.90775754400000       -4.01082857300000
O           -3.13102351720000       -3.72668871860000       -1.48825701020000
H           -2.37483882890000       -3.15119775240000       -1.65696250130000
H           -3.93114414970000       -3.25555329730000       -1.83566996120000
O            1.98260813230000        0.77251403080000       -4.08475727820000
H            2.09216370270000        1.58206420330000       -3.57342677010000
H            1.42395340160000        0.18396477990000       -3.53221693170000
O           -1.84465086140000        2.58467824040000        2.14522509820000
H           -1.71061335010000        3.01020513010000        3.00266636790000
H           -1.73241445080000        3.28281601750000        1.48617494130000
O            0.74626358390000       -1.55575691610000        3.50059616830000
H            0.26662931050000       -2.32964826250000        3.12980860890000
H            0.41397600880000       -1.44770302070000        4.40039724610000
O            3.91210378880000       -0.41916542070000       -1.16504249740000
H            3.42962788600000       -1.23826805930000       -1.39279133300000
H            3.42556648730000        0.28241344950000       -1.61403292670000
O           -0.99749493670000       -0.20537301370000       -5.11117931980000
H           -0.62489143210000       -0.42474819990000       -4.23919106570000
H           -1.49210906730000        0.61875865120000       -4.97507262300000
O           -2.45165586130000       -1.70637516960000        0.83704555170000
H           -2.00889226310000       -2.40375255500000        1.36000629940000
H           -2.15263267110000       -1.83925141620000       -0.09265322320000
O            2.40562232620000       -2.72269276770000       -1.86456353160000
H            2.80110076610000       -3.27615866070000       -2.54979194230000
H            1.66915472970000       -2.22504599990000       -2.29912750500000
O            0.32452402020000       -3.89512465760000       -0.32899314130000
H            1.19980870860000       -3.64725013160000       -0.68235151210000
H           -0.28509188590000       -3.30391286000000       -0.81567902660000
H           -2.97541441160000       -0.93249204310000       -2.95880561330000
O           -3.65555035580000       -0.60931367450000       -3.56250456100000
H           -4.21253457610000        0.03007146940000       -3.04876673280000
49
 energy: -80.192064701041 gnorm: 0.046842710766 xtb: 6.7.1 (edcfbbe)
N           -0.35963753816744        0.17082416602347        1.53382131640709
C            0.68340734749850        0.35239635602353        0.49431668015605
C            0.18138661342445        1.12804649277570       -0.71532399073614
C           -0.94984040506086        0.44252235623778       -1.48912457233779
C           -0.54252104645677       -0.94389214691344       -1.96634841615857
O            0.45159052887244       -1.05590107543897       -2.71872908311858
O           -1.25231374891099       -1.92889578574842       -1.61613122109895
H            0.05651170368555       -0.30422029920938        2.35863836037923
H           -0.78531517976871        1.06861159486390        1.81938833581359
H            1.51667543567405        0.89278818677587        0.94297734570468
H            1.04618229689997       -0.63347486002153        0.19995404005423
H            1.02963537066815        1.26950387600298       -1.38627064109651
H           -0.16334934233305        2.11544759531643       -0.40759408914598
H           -1.86065592867891        0.36949526407581       -0.89433827462799
H           -1.17267136526215        1.03664402084370       -2.37913767574851
H           -1.13185842628701       -0.43762924109349        1.20410272998590
O           -1.27390263852847       -3.89287561775172       -3.68550300119211
H           -1.22369824326119       -3.22025483969989       -2.98391466781372
H           -0.38541768262187       -3.93298824774572       -4.05123706259631
O           -3.21370264594617       -3.73570754317136       -1.43394039093662
H           -2.44562007726626       -3.16995574924197       -1.60000747837944
H           -3.96601362355125       -3.28935825168533       -1.85941593709231
O            2.01017389847542        0.78098828470613       -4.07700690295789
H            2.07179649322581        1.60335164265761       -3.57719812814080
H            1.44558824555680        0.17963601073344       -3.55087832360915
O           -1.77989520079370        2.57525552419461        2.13980579505521
H           -1.73168046032479        3.00264232768528        3.00652239775707
H           -1.75805715350915        3.29525830948738        1.49387011175589
O            0.68513025406313       -1.51570164820700        3.47990966589786
H            0.31100716018104       -2.35913151286292        3.15625287567521
H            0.42433998630116       -1.46110903542065        4.41090184892694
O            3.88521772816003       -0.41622045934979       -1.12865760772798
H            3.44179627749551       -1.24861715907284       -1.38178876802785
H            3.44485763576854        0.26681543529851       -1.65245554107112
O           -1.00606164078486       -0.20192901104569       -5.14116686916252
H           -0.59206052970840       -0.42861266201484       -4.29521702382022
H           -1.50006472373502        0.61288757194903       -4.98483437720549
O           -2.37404475830501       -1.65473444104447        0.85805640388992
H           -2.07320169632504       -2.45235488279828        1.34588012646399
H           -2.14899789739002       -1.85623864412424       -0.07770044459792
O            2.40030014015374       -2.72342158074233       -1.86565118573320
H            2.81079070973770       -3.26235362147711       -2.54967266676347
H            1.69064919609353       -2.20711287287199       -2.31035088959681
O            0.33490254407667       -3.85871687255014       -0.28911117968686
H            1.20252076277473       -3.66022846154068       -0.68859838246970
H           -0.28467439278388       -3.31787859531251       -0.81349505781988
H           -3.00257962736665       -0.95052263819323       -2.94497777413154
O           -3.64475249235518       -0.57473023972212       -3.55905557705156
H           -4.21558325140401        0.01577214302071       -3.03667794446888
49
 energy: -80.198480771034 gnorm: 0.031109143409 xtb: 6.7.1 (edcfbbe)
N           -0.37017378395067        0.16816591062409        1.53175220223927
C            0.67248783632430        0.34163502438462        0.50590829787720
C            0.18433960599575        1.13163860398210       -0.70268129531662
C           -0.94919382694612        0.45045304365158       -1.47437937880828
C           -0.54853583233155       -0.92531768657651       -1.98888455015975
O            0.44907133532521       -1.03618787052927       -2.73090524100783
O           -1.24662078317241       -1.91429225441266       -1.64311209668728
H            0.05364933913411       -0.30799114404856        2.35540046944000
H           -0.78651696564982        1.07623195525009        1.81087703250796
H            1.51758042491540        0.87752634472385        0.94142918297405
H            1.03218497048635       -0.63952252546643        0.18867747139069
H            1.02920483533142        1.26591008489661       -1.37930970581032
H           -0.16188543468116        2.11507354037933       -0.38992907877043
H           -1.84891648187499        0.35639352262445       -0.86604544991306
H           -1.17995840292756        1.04906099033553       -2.35853820450804
H           -1.15127348857933       -0.44148303101036        1.19975423859066
O           -1.25104618676675       -3.89489290208528       -3.71103197583282
H           -1.17315471829376       -3.21090355505519       -3.02924503980968
H           -0.37818914842462       -3.96226625672875       -4.10859758069431
O           -3.29754521477880       -3.74677361145100       -1.36930327997952
H           -2.52363913007679       -3.19756423874231       -1.56758048617434
H           -4.01324669262652       -3.34177693297526       -1.87204411780136
O            2.06854056145031        0.78766179596356       -4.05479922316080
H            2.03370735408890        1.64152174496267       -3.58869980972117
H            1.47704612780345        0.17959096946751       -3.57109606495600
O           -1.73932327000309        2.56739873403921        2.13637857740869
H           -1.73674232122958        2.97721216153533        3.01155808553271
H           -1.77533618933116        3.30039970420860        1.50598542615875
O            0.66144225073025       -1.50514947416783        3.47677344499157
H            0.33025712331458       -2.34954011193105        3.15749544540811
H            0.42274207787076       -1.46190496363632        4.41063855008255
O            3.86200990211425       -0.41592767323247       -1.09884574833834
H            3.44162528341103       -1.26250148651293       -1.33432823107304
H            3.47521756075794        0.23779280529195       -1.71328119760504
O           -0.99366269277403       -0.18704028735640       -5.18643081354913
H           -0.55356070674736       -0.43832307577333       -4.36432235733667
H           -1.52073714113642        0.59729396541650       -4.99809882088369
O           -2.34925047901950       -1.64986814514181        0.87073734600667
H           -2.06996698034997       -2.43749299337804        1.34238654760147
H           -2.12313756447214       -1.83780377696286       -0.05449318070203
O            2.40063311023794       -2.72459735049315       -1.87588150186156
H            2.82400187545849       -3.24362081167975       -2.56520083053561
H            1.70651172460714       -2.19482259633082       -2.31678935295414
O            0.34612638373811       -3.83657350070324       -0.26371521430808
H            1.20875852243029       -3.64567180365496       -0.66692231081705
H           -0.28371852265881       -3.31636091656394       -0.78557482954650
H           -3.03014854993597       -0.97129774944628       -2.92209523484895
O           -3.63670811261283       -0.54563816895490       -3.54301601904173
H           -4.21866097227377        0.00626515586370       -3.01768720789577
49
 energy: -80.202435362677 gnorm: 0.044837759427 xtb: 6.7.1 (edcfbbe)
N           -0.37224071336624        0.17586368249717        1.53306655416663
C            0.66825697840045        0.33574445497668        0.51386912382642
C            0.18637597125854        1.13411689333891       -0.69486115588065
C           -0.95021959974017        0.45471768521481       -1.46374682402703
C           -0.54916552720927       -0.91487787651425       -2.00190150481729
O            0.43963760379748       -1.01546446137533       -2.76023286818010
O           -1.25364730044262       -1.90811072648848       -1.68228034228902
H            0.04807601828729       -0.29811335583004        2.36012112514692
H           -0.78274079625771        1.09193890198721        1.80010047412762
H            1.52419914884088        0.85995242143661        0.94395124227497
H            1.01657201716346       -0.64613416514952        0.18576692905306
H            1.03157533186618        1.26270572311072       -1.37079946689035
H           -0.15504227550906        2.11671289550425       -0.37586039916586
H           -1.83847419414322        0.34249392655042       -0.84296856662053
H           -1.19844332430709        1.06119130486923       -2.33752264064566
H           -1.15851395415569       -0.43807192481080        1.20520035431429
O           -1.23794776637679       -3.90213355900940       -3.72526331022626
H           -1.12249137285120       -3.19841947847099       -3.06795764605141
H           -0.38651302873905       -3.99853475564764       -4.16943990862710
O           -3.38155435337661       -3.74934234131982       -1.29848193811034
H           -2.60227416193421       -3.22813010983802       -1.55336761423037
H           -4.07091492472530       -3.40985925157827       -1.90178333671473
O            2.11431418379418        0.80685205290587       -4.03233825782401
H            2.02103774160251        1.67025223505478       -3.59112273797650
H            1.51341191999091        0.18810806711451       -3.57805126229129
O           -1.72982145633312        2.57013137563551        2.13302418898909
H           -1.73011917536087        2.94796930209873        3.01501699664703
H           -1.77838835506699        3.30237065232403        1.51627912040541
O            0.62880185874789       -1.47719943732565        3.48524771144440
H            0.38897840467541       -2.36364308162974        3.17410330157234
H            0.40855667671749       -1.45262970351483        4.42125905678338
O            3.86977006153686       -0.41587660723655       -1.12013962364145
H            3.43565026693553       -1.27154240541911       -1.27912293195735
H            3.47885409730005        0.21012532546037       -1.73523860987162
O           -0.95898291205795       -0.16857884278281       -5.24951142286486
H           -0.51402650199643       -0.45410321066087       -4.44332923970050
H           -1.55605719556617        0.56222633855344       -5.01822574056487
O           -2.29284728507293       -1.62279893016856        0.88042793820797
H           -2.13591224394234       -2.47707901717999        1.33771183783644
H           -2.09208115020312       -1.83288235800427       -0.04392452974943
O            2.40284693657935       -2.72075224780373       -1.88866736644227
H            2.84510982868607       -3.21765824995854       -2.58360444483459
H            1.71908213246005       -2.18100090025425       -2.32645666459236
O            0.35788868555351       -3.78780532372647       -0.21273697662023
H            1.21542105462532       -3.63839777775672       -0.64756497347956
H           -0.28157871113252       -3.31627567599694       -0.77129921539613
H           -3.04730360606483       -0.98510157941985       -2.89591978835045
O           -3.60382825986884       -0.49567365633885       -3.52765720856689
H           -4.24699816111807       -0.02316306482406       -2.98088054979236
49
 energy: -80.205014679415 gnorm: 0.055810080303 xtb: 6.7.1 (edcfbbe)
N           -0.37072312358263        0.18013673113051        1.53618157733138
C            0.66797169254094        0.32662210067091        0.51751836181975
C            0.18900619424335        1.13263593686468       -0.68971581521666
C           -0.95334951628515        0.45777470334257       -1.45384469644313
C           -0.55023623528560       -0.90685621694620       -2.00899522866869
O            0.42486950796255       -0.99300812661857       -2.79425544172235
O           -1.27068748644434       -1.90302064326179       -1.72400802703269
H            0.03996792028281       -0.28983780306937        2.36858808321607
H           -0.77658159208119        1.10070719616641        1.79092074622046
H            1.53281028982125        0.83585401115236        0.94790045564201
H            1.00015688109057       -0.65901498665725        0.18521368480478
H            1.03557656466394        1.25854586401114       -1.36298530761506
H           -0.14507511908367        2.11611555568139       -0.36429065854365
H           -1.83067793202835        0.33092334432149       -0.82175156496207
H           -1.22295711237711        1.07434297358647       -2.31483650806725
H           -1.16059879511181       -0.43973837986677        1.21689915106814
O           -1.22270298756094       -3.91053946463501       -3.73610635474047
H           -1.07346153734047       -3.18325000587396       -3.10550009066496
H           -0.39493604118084       -4.02898373904876       -4.22525075823574
O           -3.45246710002088       -3.78222716409050       -1.30421749413650
H           -2.67577879398586       -3.26583351519771       -1.55613990242757
H           -4.14135701836343       -3.45266754272535       -1.85294843006355
O            2.15129721521463        0.83329336267536       -4.00793248852198
H            2.03006057747944        1.68933023956622       -3.58547834815551
H            1.53884156831558        0.20837535530626       -3.58058611211205
O           -1.68949701409884        2.57464687366659        2.12942987797891
H           -1.74016547529021        2.92240406508551        3.02733682927401
H           -1.80264707538173        3.32338918749057        1.53265071030074
O            0.60802820385481       -1.45832647218394        3.50046592104629
H            0.44700807789653       -2.37196675668701        3.18707652522151
H            0.39966390925662       -1.44802587004740        4.43734617654539
O            3.82927623095970       -0.40582861563828       -1.07645108548292
H            3.44613084446356       -1.28199868012565       -1.25718632364396
H            3.51563307785660        0.17378931416948       -1.81023963805410
O           -0.93045761820797       -0.15826109023952       -5.31278530531806
H           -0.48133497218994       -0.46643777705731       -4.51813837800455
H           -1.58269829627398        0.52322411979217       -5.04790319150011
O           -2.28230513282076       -1.63580220690850        0.87271202544498
H           -2.15052518454558       -2.46716801908492        1.34160257316137
H           -2.07687098970761       -1.84489024308483       -0.04902508732517
O            2.40072314994179       -2.71592822626830       -1.90021257841876
H            2.86691158641384       -3.18881306153886       -2.59955775483593
H            1.73034077501672       -2.16268644571200       -2.34037179894205
O            0.36604430710407       -3.73109340951920       -0.15865535136735
H            1.21953732470672       -3.62604248405298       -0.62229853361222
H           -0.27991535703153       -3.31094721625557       -0.75966262579640
H           -3.03320950554672       -0.96068187992123       -2.87706758904536
O           -3.59678177977288       -0.48861821866122       -3.48881076349917
H           -4.26556849558439       -0.03949751110423       -2.95174657909585
49
 energy: -80.206364474134 gnorm: 0.067539517894 xtb: 6.7.1 (edcfbbe)
N           -0.36238218533991        0.18205777571211        1.54314076151316
C            0.67345106552679        0.31659302722140        0.51510271898408
C            0.19285713508864        1.12581117624592       -0.68927392409280
C           -0.95579658877501        0.45768873042022       -1.44903606627848
C           -0.56075369192389       -0.89913420263789       -2.03211840354210
O            0.41622919540196       -0.97170880144505       -2.82070141223929
O           -1.28261686755137       -1.89939524386868       -1.75850520779918
H            0.03784448163296       -0.28280547261219        2.38129127702128
H           -0.76762188134982        1.10245983670604        1.78771555957871
H            1.54365532313916        0.81360939665613        0.94720219334059
H            0.98916901962433       -0.67489121696765        0.18644709783727
H            1.04002649001912        1.25370317013275       -1.36063699910559
H           -0.13447368848176        2.11133667090999       -0.35925665700791
H           -1.82487048046720        0.32184812205564       -0.80832479738969
H           -1.24471580662576        1.08739559596874       -2.29530702468429
H           -1.15105394282187       -0.44393635768522        1.23489196695726
O           -1.21055876282268       -3.91685611179074       -3.74576805373815
H           -1.05076191696499       -3.17546313923532       -3.13251951956135
H           -0.40144331568391       -4.03448940385042       -4.25717612043191
O           -3.51199452901696       -3.77739450364468       -1.24048738942627
H           -2.73268856080625       -3.28761211923915       -1.53755344632470
H           -4.19333621881448       -3.54418756775345       -1.90449838649449
O            2.23088526120372        0.83349614742218       -3.95826107714812
H            2.01591630973744        1.71422625649640       -3.58992098807435
H            1.54376607007307        0.23427861933785       -3.58599465637235
O           -1.65134397368846        2.58403313583597        2.12589738803983
H           -1.75392284690383        2.90922903762893        3.03800589655325
H           -1.82781330207712        3.34738714908031        1.54468830726639
O            0.62496449130799       -1.47383788279144        3.52296087727276
H            0.43938815506040       -2.33367722391112        3.18632393295512
H            0.41213622006735       -1.44188315802472        4.45398366645317
O            3.83416061754414       -0.40771417901183       -1.09799718705085
H            3.45176966783969       -1.28706281288594       -1.25802219033841
H            3.50914164671724        0.15215397969068       -1.80190985870685
O           -0.93597147586607       -0.17531837085613       -5.34938447791496
H           -0.46739173438689       -0.47029548891128       -4.56134254773742
H           -1.56246874181218        0.50207945510868       -5.09055383558748
O           -2.29848646552854       -1.66419719029884        0.85152558689443
H           -2.15890022824688       -2.44431175934651        1.34402959077191
H           -2.06813851531680       -1.86134118020695       -0.06745609664385
O            2.39689703034921       -2.71156856218181       -1.91006775808778
H            2.88010390238088       -3.16692154120277       -2.61123250841379
H            1.73480953506156       -2.14855386527459       -2.35256934885234
O            0.36746817388465       -3.71218211682206       -0.15066310656880
H            1.22211101553906       -3.59328775371466       -0.58235789402514
H           -0.27615494092474       -3.29167431880941       -0.73558146930381
H           -3.03417337325589       -0.96387463942630       -2.85316179449482
O           -3.58051369689655       -0.46829793818346       -3.45520505041745
H           -4.27011446294657       -0.04139399744167       -2.92747467977953
49
 energy: -80.208537304352 gnorm: 0.052870175332 xtb: 6.7.1 (edcfbbe)
N           -0.35877436067041        0.18787917972899        1.54743875487836
C            0.67801842423335        0.30985611369001        0.51202219835896
C            0.19690334183289        1.11678011631409       -0.69116548175906
C           -0.95599656079214        0.45382429042907       -1.44882338627268
C           -0.58685684777756       -0.89265615913865       -2.07706553906112
O            0.41537414010331       -0.96133772543013       -2.82830090621147
O           -1.28730598308492       -1.89748400640188       -1.78100145031012
H            0.03560013746760       -0.26890145455295        2.39159659694570
H           -0.76784919545928        1.10841293569322        1.78262279386221
H            1.55110917485675        0.80334715886386        0.94092879654420
H            0.98416913446407       -0.68649655400836        0.18978383341429
H            1.04261126159442        1.24628906708948       -1.36472861080004
H           -0.12639264121521        2.10388291706435       -0.35959848092887
H           -1.82056953876946        0.31427374169158       -0.80236297119690
H           -1.25323371196849        1.09556998421003       -2.28315841531585
H           -1.14026216581831       -0.44289597958032        1.24417201631704
O           -1.20367113584602       -3.92821438473887       -3.74800024793438
H           -1.05810236689398       -3.17901303843382       -3.14645278162645
H           -0.40358759180003       -4.02428531431968       -4.26289801417651
O           -3.53206809277931       -3.78588367345016       -1.24203085003883
H           -2.75245311753671       -3.30332797534068       -1.54400017497326
H           -4.22404532052738       -3.56913941635962       -1.88636732920653
O            2.22616109889173        0.84818652893823       -3.94563346351442
H            2.04155383377439        1.71661826987071       -3.58599770317956
H            1.56777629435140        0.24342610008663       -3.55970747094039
O           -1.69918089630819        2.59818137379063        2.13185355203113
H           -1.73767185291550        2.90635957590984        3.03465145835353
H           -1.81136489587368        3.33350439208180        1.54464106913843
O            0.61928567963333       -1.45400810523184        3.54360229828682
H            0.47981863559807       -2.32698182649460        3.19648929210916
H            0.41133346201910       -1.45047659549684        4.48135558009312
O            3.81206111074008       -0.39793524775073       -1.07901357806195
H            3.45144614690946       -1.28336442500127       -1.25712065987348
H            3.52943952909934        0.14038466718380       -1.84048180497091
O           -0.91218096452226       -0.17909722673917       -5.37390532382240
H           -0.46671859483566       -0.48289619353130       -4.57709402693663
H           -1.56074295614645        0.47212394244390       -5.11057954338388
O           -2.27631005479236       -1.64553231931338        0.83459252828879
H           -2.24320207134666       -2.48029235677301        1.34126195269267
H           -2.04471032417216       -1.87451574188670       -0.08120731954846
O            2.39954312291141       -2.70270399971624       -1.91687102565564
H            2.88306686608040       -3.15530652409216       -2.61602100151729
H            1.73188650571654       -2.14497990721837       -2.35558156358473
O            0.36770302422197       -3.69686408029889       -0.14916717239464
H            1.22417711846391       -3.57063956775853       -0.56070011610773
H           -0.27117563460093       -3.27290793880720       -0.72233123760398
H           -3.06299474345648       -1.01125912719547       -2.82739166880046
O           -3.54594546904750       -0.41452390414961       -3.44946972077074
H           -4.25938234210237       -0.03086042327187       -2.90989679302951
49
 energy: -80.202729169123 gnorm: 0.115464110116 xtb: 6.7.1 (edcfbbe)
N           -0.36291169371323        0.18814909672184        1.54460131356109
C            0.67798171494239        0.29980562887303        0.50917792186860
C            0.20013366478083        1.10760343562486       -0.69232875451283
C           -0.95630397533073        0.44914962475243       -1.44717979779915
C           -0.59606721299004       -0.89131439459616       -2.09141048777290
O            0.40681845220253       -0.95842749238983       -2.83733833493946
O           -1.29568122892860       -1.89474689178373       -1.79747720530660
H            0.02944960675215       -0.25872913744418        2.39420478813409
H           -0.76971729928093        1.11213827686730        1.77196613236898
H            1.55517774429533        0.79088752498017        0.93247359595219
H            0.97770473663683       -0.69921940503874        0.18912449811952
H            1.04398988294574        1.23441686775447       -1.36990289107639
H           -0.12066259405305        2.09542613766948       -0.36114587655065
H           -1.81734218267326        0.30458939499480       -0.79614281658935
H           -1.25792353967342        1.09523227258025       -2.27559460391123
H           -1.14012324031519       -0.44291987640929        1.24169868398526
O           -1.20387883916092       -3.94293608116586       -3.74079676951234
H           -1.06365656827207       -3.18057883040272       -3.15634197974145
H           -0.41574611131968       -4.01870549894854       -4.27964650329702
O           -3.55083200018104       -3.79580506088725       -1.25117981135565
H           -2.77055167504940       -3.32094641269347       -1.56541881275877
H           -4.25059179378556       -3.58322357819445       -1.85873161897273
O            2.28307004548380        0.83048403486571       -3.89803453143640
H            2.00927301291533        1.74418217687626       -3.60153592860474
H            1.58338215773538        0.24667905382411       -3.54025759625357
O           -1.68580752513420        2.61020084220836        2.13071200103536
H           -1.73921606696690        2.90708859316286        3.03636533321315
H           -1.83373390092963        3.35460410358149        1.55260272579807
O            0.57691498218859       -1.39473781106443        3.55825071734519
H            0.58134489341721       -2.36461790463662        3.22414697419370
H            0.39593834691037       -1.46757064524368        4.51539778476922
O            3.83035947189715       -0.39212151949095       -1.12305801150134
H            3.43353596961132       -1.27218324044659       -1.23722174045107
H            3.51905569912671        0.14338292763757       -1.83094429254481