37
 energy: -59.761363209586 gnorm: 0.183007467494 xtb: 6.7.1 (edcfbbe)
N            0.00260500000000        0.26833900000000        2.34949800000000
C            0.00561000000000       -0.53426800000000        1.12782400000000
C           -0.01360500000000        0.36044200000000       -0.11757000000000
C           -0.00658000000000       -0.48411400000000       -1.39958300000000
C            0.00530900000000        0.34606300000000       -2.65559300000000
O            0.01598000000000        1.56658800000000       -2.61114500000000
O            0.01013600000000       -0.27058000000000       -3.85192000000000
H            0.84383000000000        0.88923800000000        2.37341700000000
H           -0.86762500000000        0.84621600000000        2.39703300000000
H           -0.88589600000000       -1.19861800000000        1.12403900000000
H            0.91775600000000       -1.17084600000000        1.11100500000000
H            0.88289000000000        1.01613200000000       -0.10393900000000
H           -0.92488100000000        0.99783100000000       -0.09978000000000
H           -0.91002800000000       -1.12912700000000       -1.41351300000000
H            0.89428700000000       -1.13411000000000       -1.40682800000000
H            0.03021100000000       -0.36918600000000        3.17705500000000
O           -1.41539200000000       -1.50086100000000        7.61649900000000
H           -1.85331100000000       -2.20479500000000        7.07491500000000
H           -0.58451600000000       -1.92466100000000        7.94914000000000
O           -2.46652600000000       -0.78620100000000        5.50529700000000
H           -1.49977900000000       -0.59930200000000        5.61056000000000
H           -2.74709600000000       -0.22003000000000        4.74283800000000
O           -1.21098500000000       -2.97760100000000        4.09104100000000
H           -0.99071100000000       -2.64825000000000        4.99857500000000
H           -1.77883600000000       -3.77372400000000        4.24707200000000
O           -2.41764900000000        0.22341200000000       -5.72968800000000
H           -2.17024800000000       -0.67995900000000       -6.05113100000000
H           -2.06297200000000        0.26383800000000       -4.80600900000000
O           -2.16781500000000       -2.91316100000000        1.82319600000000
H           -2.67758500000000       -3.65138800000000        2.24244100000000
H           -1.27689700000000       -3.30238900000000        1.63510000000000
O           -1.64010100000000        2.28018800000000       -5.64937100000000
H           -2.04320300000000        3.10324600000000       -5.27427900000000
H           -0.85591300000000        2.10236000000000       -5.07141100000000
O           -3.00732100000000        0.93273300000000        2.88910200000000
H           -3.98286500000000        1.08617500000000        2.96245500000000
H           -2.60544500000000        1.58835400000000        3.51301700000000
37
 energy: -59.793196963023 gnorm: 0.088924281831 xtb: 6.7.1 (edcfbbe)
N           -0.00113432697024        0.26417592908861        2.35368781435572
C            0.00567527817714       -0.53965589438916        1.12329742860278
C           -0.01113795474961        0.35664108920414       -0.11430599511112
C           -0.00484875231098       -0.48260393263039       -1.39340276462709
C            0.00881107918973        0.35359986927190       -2.66300048692833
O            0.01167956619931        1.59070397083058       -2.61202786711942
O           -0.01013090454503       -0.27809926143075       -3.79397688382849
H            0.82219600308640        0.88750351283567        2.38089077396944
H           -0.86826669218964        0.82668705927414        2.39409512033972
H           -0.87808882735349       -1.18865845616369        1.12267445530648
H            0.90482836373677       -1.16738463077728        1.10623859857812
H            0.86706354993383        1.01515707888972       -0.12186654182838
H           -0.90681266978711        0.99096491739506       -0.11275433590864
H           -0.89307633570673       -1.12732103137481       -1.42321935233304
H            0.87928991439418       -1.13392543197373       -1.41760960004594
H            0.01937203353904       -0.36529036544190        3.17049741958589
O           -1.38274037501941       -1.52016472948082        7.64599774566362
H           -1.85424861552564       -2.19153442571825        7.12082444185201
H           -0.57496626565256       -1.95027280728727        7.96652266932978
O           -2.47675937455282       -0.77301334391930        5.45986682239564
H           -1.53566181470297       -0.56795610278146        5.60437061413177
H           -2.74831818181699       -0.23293229715465        4.69900565062116
O           -1.16361611743978       -3.00823433930123        4.12447490230173
H           -1.00096093302937       -2.64976802907100        5.01294540564027
H           -1.76628086059591       -3.75653633233071        4.26390562377049
O           -2.48046383464648        0.13515247799287       -5.70953968610111
H           -2.16621416814077       -0.71844329067210       -6.05326915352400
H           -2.03446096414267        0.22541629760886       -4.84226100795839
O           -2.18283908048645       -2.93806615092091        1.74793991613371
H           -2.68376897545302       -3.62823763058173        2.21492603845647
H           -1.29019847642282       -3.31435812631500        1.64288561642115
O           -1.59488657660258        2.38041837436164       -5.66512794693465
H           -2.02175017469169        3.14810078500731       -5.24809191950636
H           -0.87105744584386        2.12315361732258       -5.06024034147536
O           -2.98910273763584        0.93287490414886        2.93522665620016
H           -3.95173811166491        1.07816176161614        2.93697228041332
H           -2.63055324057703        1.62172896486794        3.52280688916075
37
 energy: -59.806630957410 gnorm: 0.032785806026 xtb: 6.7.1 (edcfbbe)
N           -0.01289469016786        0.25703874718597        2.36065229238346
C            0.00454236135795       -0.54467265081636        1.11809876502814
C           -0.00976356991467        0.35456742382542       -0.11201540320981
C           -0.00694718728982       -0.48107320547402       -1.38845005453922
C           -0.02235724110731        0.35925253176945       -2.67815321945656
O            0.00965242825966        1.60728215791161       -2.60058127727165
O           -0.02644191882587       -0.27171234054776       -3.75350933602919
H            0.79282339616859        0.88924571009653        2.39188667889985
H           -0.88546708908966        0.79940987674252        2.39304410708614
H           -0.87658896301078       -1.18259239409746        1.11447926764307
H            0.89793337403355       -1.16407786827287        1.10205107206857
H            0.85952940257772        1.01229772597400       -0.13580481824506
H           -0.89888612556645        0.98355933237202       -0.12334521981442
H           -0.88607827483477       -1.12478087708594       -1.43162522699178
H            0.87220721565485       -1.12670292057824       -1.43752300416704
H            0.00359730919219       -0.37171890773798        3.16710642292933
O           -1.33265192374193       -1.52690974542080        7.65859153616303
H           -1.86789354001395       -2.17618984943809        7.18202066464000
H           -0.56110606355822       -1.98366086364518        7.99838117576943
O           -2.48972552136620       -0.76962348642672        5.40305814903843
H           -1.57871279612443       -0.52014801744633        5.61450080137387
H           -2.74992652990445       -0.25878598089654        4.62907973773146
O           -1.11845699777259       -3.03987151869414        4.14949271864482
H           -1.00935621469066       -2.63829458715896        5.01893515602977
H           -1.74171531484212       -3.75569183877933        4.28075148641848
O           -2.52269558174784        0.07459967585232       -5.67836228665257
H           -2.16014356737051       -0.73256317591398       -6.06513590082906
H           -2.01178939249862        0.18635773952400       -4.85944706105670
O           -2.18105782214188       -2.95053001888652        1.70339764207522
H           -2.71010762609665       -3.60553406467245        2.16167288079055
H           -1.30368646090746       -3.33760805875340        1.63299601072815
O           -1.54755861011408        2.43879685440922       -5.66556199007520
H           -2.00678555376828        3.16645473961193       -5.23476686211350
H           -0.86314389756925        2.15102639084544       -5.04986843849584
O           -2.94821052599264        0.94226756377967        2.99891422402096
H           -3.90697398499000        1.05415474383169        2.90261909348185
H           -2.65832950222545        1.68441515701109        3.55177921600254
37
 energy: -59.813894310202 gnorm: 0.062198388528 xtb: 6.7.1 (edcfbbe)
N           -0.03575828392866        0.24687654338836        2.36882508555973
C           -0.00063501166863       -0.54699230697499        1.11499371184115
C           -0.00946684592177        0.35742235623826       -0.10931769324240
C           -0.00135449622348       -0.47468631979693       -1.38413921297479
C            0.00500661678074        0.36678505886912       -2.69129340783543
O           -0.01424864693852        1.61917190838565       -2.59404540474148
O           -0.11497282582737       -0.27317653044536       -3.74883700801596
H            0.75525722378936        0.89513315989090        2.40685512184784
H           -0.92245417415170        0.76700275001751        2.39828988894177
H           -0.88027215966815       -1.18542857132044        1.10194551267753
H            0.89558105995283       -1.16036800286992        1.10253191452275
H            0.85956773572915        1.01309377156049       -0.13743301096540
H           -0.89820458101776        0.98504282461415       -0.13052759497770
H           -0.88121531447289       -1.11650510494525       -1.44167648678027
H            0.87665395209265       -1.11806443083233       -1.44339352436133
H           -0.01621708264507       -0.38948310755184        3.16772073597496
O           -1.26417026436996       -1.51763705255344        7.65301283713523
H           -1.89040214770318       -2.15426138005313        7.25207178912545
H           -0.54653699840073       -2.03513504943091        8.04216805274260
O           -2.50960421747883       -0.77586722637629        5.34042592504501
H           -1.63136583148993       -0.46579744511233        5.64295426133020
H           -2.73935581917433       -0.29001029504448        4.53634456170780
O           -1.03603543538385       -3.09424977185568        4.16854936942974
H           -1.03758711845535       -2.60543691284312        5.02408800901162
H           -1.73420902626645       -3.75244331114095        4.29270036505974
O           -2.55183480584998        0.02372351349515       -5.64514029582840
H           -2.15919139268625       -0.74410159326607       -6.08746777868805
H           -1.97593895764069        0.14704641949914       -4.87039545393940
O           -2.18205707437106       -2.97123341297279        1.61299775475899
H           -2.75105606968284       -3.56923225752548        2.11448801412579
H           -1.29710514042382       -3.37633570971045        1.64759806605490
O           -1.48449752121525        2.50580645896553       -5.67945364915781
H           -1.99670313647864        3.18304808658234       -5.21035181692664
H           -0.85931768810130        2.16360224766210       -5.01760164815214
O           -2.89210824668477        0.95959513869369        3.06411498100444
H           -3.84990945944906        1.02312932904162        2.86768306490762
H           -2.68344781457413        1.75795022571781        3.59007396378146
37
 energy: -59.819901879065 gnorm: 0.051556792613 xtb: 6.7.1 (edcfbbe)
N           -0.06596561246094        0.23254718101987        2.37674979523984
C           -0.00578716033765       -0.54900893146336        1.11079006798145
C           -0.00896639293632        0.36156626611830       -0.10834312022402
C           -0.00677432135483       -0.46650772779973       -1.38288453528373
C           -0.04515368474810        0.37948593924640       -2.70380088808057
O           -0.00605954354234        1.63124189077634       -2.59049734067824
O           -0.18043811321842       -0.27197792917611       -3.75445446363708
H            0.70727437356072        0.90345172957138        2.42446080255862
H           -0.97268312293357        0.72492144349718        2.40875790582887
H           -0.88126600750377       -1.19533462754927        1.08324974746167
H            0.89649404632675       -1.15572891143416        1.10383248437349
H            0.86087669971961        1.01695169662683       -0.13784607370639
H           -0.89881224203609        0.98892735792602       -0.13209116495829
H           -0.88354946410158       -1.11329101198422       -1.43646386256872
H            0.87679034368640       -1.10285475407669       -1.46309210407781
H           -0.03635659254544       -0.41513149360528        3.16802110828156
O           -1.22206453584778       -1.52605015826805        7.67084510932026
H           -1.87976288620475       -2.13649300382129        7.29875606963079
H           -0.53742795817063       -2.06898067789567        8.09231945803749
O           -2.52949375319997       -0.77241835214290        5.29672305956530
H           -1.68340896593804       -0.43990449065993        5.65292690219200
H           -2.71998886641478       -0.30349297075318        4.46332282570569
O           -1.04317755818399       -3.08275656024675        4.19495827824100
H           -1.00665594240318       -2.60456632585084        5.02173816837427
H           -1.68758379151632       -3.77021860215400        4.31070366144182
O           -2.56501064831006       -0.04182069208559       -5.60757367341094
H           -2.17098181164543       -0.77318355706819       -6.10628911646985
H           -1.94122226334512        0.08744514559499       -4.87456900610283
O           -2.17984403561650       -2.98272258178741        1.54126008105785
H           -2.79527253006961       -3.53719822725364        2.04735660521727
H           -1.30466605644796       -3.40883909906711        1.63851304748881
O           -1.41997730998599        2.57125458970076       -5.67382659142160
H           -1.97232336221957        3.21165695828463       -5.19393494428143
H           -0.83705010561727        2.19467460137385       -4.99151176607265
O           -2.84630091832418        1.02502844394869        3.06248441282536
H           -3.78711240689563        1.00694001196423        2.88460133912438
H           -2.67546449921714        1.78037143049361        3.62416672102530
37
 energy: -59.822977459307 gnorm: 0.070472579555 xtb: 6.7.1 (edcfbbe)
N           -0.10283526300831        0.21711435861325        2.38116870489882
C           -0.01421633512355       -0.54913561244222        1.10581724108127
C           -0.01087900618624        0.36615861281891       -0.11096936702835
C           -0.01645938608986       -0.45925335244122       -1.38698318532761
C           -0.12791733208370        0.39638100879611       -2.70978778708301
O            0.00874097358499        1.64025372718700       -2.59132049917460
O           -0.24478287817219       -0.26016127532749       -3.76795322702502
H            0.65206676268261        0.91236321751514        2.43974683327560
H           -1.03075324086725        0.68163610785252        2.42433999959530
H           -0.88209170493567       -1.21076996842877        1.05941209643557
H            0.89654840086462       -1.14947510277618        1.10719630435788
H            0.86198757939264        1.02157780301961       -0.13285763527879
H           -0.90157463673265        0.99703384623048       -0.12924391891941
H           -0.88650428340921       -1.11839690341915       -1.42598822438000
H            0.87858495117278       -1.08306134881564       -1.48413125771799
H           -0.05481801223108       -0.44314878497827        3.16608581158163
O           -1.18995912432116       -1.54021477762602        7.69203613702194
H           -1.85028192904100       -2.12534381725226        7.34130859205739
H           -0.51818559797066       -2.07291509938596        8.12321609910967
O           -2.54432427316980       -0.77422184456287        5.26119556668641
H           -1.73317203869480       -0.44271650876429        5.63288218566828
H           -2.69858866362300       -0.28873265914183        4.42736608829955
O           -0.95900060613066       -3.13498209504399        4.21766218393339
H           -1.03539085808296       -2.55764413205881        5.01530640748460
H           -1.68056833118845       -3.76787897112076        4.32646611891936
O           -2.56528970109018       -0.11378948359684       -5.56448848088316
H           -2.20017764633958       -0.81166308201201       -6.11880819676580
H           -1.90079048966762        0.02074090639883       -4.87390885538772
O           -2.16714864713063       -2.98614739330402        1.53795084241414
H           -2.81691539480848       -3.54312273900714        1.96502779589548
H           -1.33494047885560       -3.42416490827058        1.57759313978686
O           -1.37553931909848        2.62277837137418       -5.63096183682054
H           -1.93065435901751        3.25984871900894       -5.19089101907367
H           -0.79655202006477        2.24806910409385       -4.98063274948707
O           -2.77274459261651        1.03057467160127        3.13954800082539
H           -3.70282889366724        0.97550582858095        2.82110879467811
H           -2.70721062427804        1.86488757668475        3.65585029634417
37
 energy: -59.827586500421 gnorm: 0.064189672189 xtb: 6.7.1 (edcfbbe)
N           -0.12961653161314        0.20479529868661        2.38065854168954
C           -0.02412107581565       -0.55059526850411        1.10178854586711
C           -0.01807216811501        0.36843348635211       -0.11344047974514
C           -0.02212646956285       -0.45436861634375       -1.39332173280910
C           -0.12723641168355        0.40916458673813       -2.70521832685692
O           -0.01972668821204        1.64608405959147       -2.59270150113442
O           -0.31405719212562       -0.23554880568682       -3.76797583672469
H            0.61272428346953        0.91221470902397        2.44661214071379
H           -1.06576114961218        0.65509031825087        2.43663921518885
H           -0.88253080236067       -1.22366153930876        1.04258807153434
H            0.89210112020754       -1.14313233661269        1.10871603553232
H            0.85716983500570        1.02137619158017       -0.12552018053120
H           -0.90491072526193        1.00489798554041       -0.12614256492602
H           -0.88506249299958       -1.12402347327269       -1.42940154259466
H            0.87877874832683       -1.06729936900892       -1.48895131561084
H           -0.06619592461606       -0.46045412894905        3.16070479770138
O           -1.12879441719835       -1.52328477290413        7.65042392911303
H           -1.87962492728018       -2.12374569493543        7.40731843374662
H           -0.50835581372391       -2.09472207649960        8.13766801029003
O           -2.53443507828286       -0.84361438576092        5.19857942601741
H           -1.76587602814768       -0.41744850940240        5.67729352210262
H           -2.67866383613578       -0.26237925820739        4.43793795353717
O           -0.95264328387562       -3.13077157431780        4.22331567720579
H           -1.02796110226973       -2.55165307611565        5.00633168785651
H           -1.66634887778837       -3.77092839605223        4.32643587517794
O           -2.55391435699882       -0.14061956689201       -5.53393867398157
H           -2.22535532543904       -0.82170083012697       -6.13143352835479
H           -1.84676389950568       -0.02231311995086       -4.87185330351078
O           -2.15863243980416       -2.99088827325098        1.50673125939405
H           -2.84348138735949       -3.52997528437638        1.90479034341622
H           -1.33467236919759       -3.45292944438735        1.58599140493607
O           -1.32335595277899        2.66700727515841       -5.63128943529872
H           -1.91504888880450        3.27365707651460       -5.17844856017626
H           -0.79203912481134        2.24872746219447       -4.94058411053694
O           -2.75249729076715        1.05359128111428        3.13280131789121
H           -3.66338205319536        1.00168647629723        2.82504177845829
H           -2.68467690166573        1.86731559382353        3.65121212541965
37
 energy: -59.818226458483 gnorm: 0.134687322282 xtb: 6.7.1 (edcfbbe)
N           -0.15585390518258        0.19083740715743        2.37628935387857
C           -0.03727091216952       -0.55268592668013        1.09794448153559
C           -0.03101716224024        0.37086041763953       -0.11612582330928
C           -0.03037776582100       -0.44756609904517       -1.40340762882892
C           -0.07673979838314        0.42301236339034       -2.69168690832919
O           -0.07287456555824        1.65157835683539       -2.59718387322933
O           -0.38783341358474       -0.19742405316994       -3.75870981516333
H            0.57403032505623        0.90507060480753        2.44968874897861
H           -1.09365841246900        0.63238666250491        2.45211732237138
H           -0.88346636912314       -1.23655622788936        1.02712212074732
H            0.88378123851663       -1.13548837606149        1.11000313217709
H            0.84898184240206        1.01732540907961       -0.11738786931641
H           -0.90983679468885        1.01679200618574       -0.12201153080876
H           -0.88310378833498       -1.13093641231821       -1.44066955213698
H            0.87632737355949       -1.04568977190957       -1.48784144391689
H           -0.07446769750492       -0.47545138094374        3.15161521501724
O           -1.15609132299621       -1.55919210917751        7.70688867155598
H           -1.84052800137046       -2.11968404366807        7.38736956998139
H           -0.49307531161099       -2.06755505487049        8.13276236607651
O           -2.54001078225858       -0.80808903759026        5.24524113854178
H           -1.76342920269371       -0.49697001288583        5.62920160465642
H           -2.65939297422189       -0.26267562805450        4.45204017978141
O           -0.98654469728053       -3.09718062135786        4.22341500197841
H           -1.00662685379182       -2.56475056843248        4.98932121484344
H           -1.64136330656876       -3.78036143257561        4.31685497379103
O           -2.53659776067740       -0.15768170965934       -5.50054940195772
H           -2.24029591997537       -0.81814430490579       -6.14864764374422
H           -1.79502289982248       -0.06970152648222       -4.86482256427732
O           -2.15488503662947       -3.00430138648295        1.41635986275527
H           -2.88572559161087       -3.48625200931098        1.84976457336254
H           -1.30538243241272       -3.50957481955051        1.66667516538052
O           -1.25503721696545        2.72112023602510       -5.64994280935906
H           -1.91711833531902        3.27206201959573       -5.15321276537180
H           -0.79447042416697        2.23746904052807       -4.88959709370856
O           -2.73809243987886        1.07849480254471        3.12075204789422
H           -3.62661181214290        1.03549286322745        2.82090925436413
H           -2.66548487207819        1.86939432349964        3.63881972378688
37
 energy: -59.831196797333 gnorm: 0.041787791631 xtb: 6.7.1 (edcfbbe)
N           -0.16029568944949        0.18626833095484        2.37641673533019
C           -0.03971700865064       -0.55625031879961        1.09657637883004
C           -0.03323457952181        0.37075371417339       -0.11435828491259
C           -0.03532080300342       -0.44457242442104       -1.40226975724022
C           -0.13980359632568        0.42582119535275       -2.69365748935227
O           -0.06017463892088        1.65964312773393       -2.59309113731025
O           -0.35352489626672       -0.20086900713003       -3.75694646188556
H            0.56791925495291        0.90417137246498        2.44967853049998
H           -1.10114399455739        0.62450993691449        2.45144766869112
H           -0.88608979095921       -1.24071867802562        1.02487520750702
H            0.88296688525139       -1.13687162962762        1.10747951616001
H            0.84602643465696        1.01811068713641       -0.11994027968104
H           -0.91418989259036        1.01419003911492       -0.12226287648689
H           -0.88477091269073       -1.13120526707607       -1.43572356445363
H            0.87534897417491       -1.04076365538531       -1.49763602188789
H           -0.07817693270329       -0.48151097930414        3.15079979486784
O           -1.12878727375105       -1.54015617467957        7.67971189017110
H           -1.84680741507134       -2.11325435131592        7.40079544807078
H           -0.48964627603490       -2.08009168969531        8.14768012445739
O           -2.54062029446666       -0.83498200049820        5.21876319930698
H           -1.77267666868743       -0.47638985015555        5.68673832882944
H           -2.64872195453307       -0.26844623953503        4.43164679786431
O           -0.95632781636855       -3.11833554189618        4.21814612504585
H           -1.03299075008502       -2.53610803486367        4.98524546222734
H           -1.63699316578939       -3.78014336678545        4.31725810681809
O           -2.54113841230892       -0.17028162069511       -5.49578767426821
H           -2.23729284602155       -0.82604983937955       -6.14534528688286
H           -1.79727865650000       -0.08242391178462       -4.86255748886269
O           -2.15148571252124       -3.00342849545437        1.43773855119200
H           -2.87787263551798       -3.50091952341215        1.84511743868258
H           -1.32054177996199       -3.50295299192043        1.63091378145216
O           -1.28841626316293        2.69148749560294       -5.59575319164863
H           -1.89353975542497        3.29182596364728       -5.16153237329278
H           -0.76279617182149        2.27494291766766       -4.91855608095363
O           -2.72112895323819        1.07938227352563        3.14009829669676
H           -3.62010124428749        1.02744547899098        2.78797419142082
H           -2.67582176784098        1.89615705855950        3.64967539499499
37
 energy: -59.813865486473 gnorm: 0.173389482728 xtb: 6.7.1 (edcfbbe)
N           -0.17383248722191        0.17138700720468        2.37724717600643
C           -0.04481850170200       -0.56340598462997        1.09300307415081
C           -0.03795233864514        0.37089278284429       -0.11156140070121
C           -0.04377105283509       -0.43746339393901       -1.40235383434922
C           -0.20649079061311        0.43294408707229       -2.69518635836968
O           -0.04004679786292        1.67164754888702       -2.59018171952583
O           -0.36086489631311       -0.20361276208713       -3.75499635535521
H            0.54530621795205        0.89891094285461        2.45314742173683
H           -1.12149962430712        0.59936989408182        2.45741810728249
H           -0.88789870855899       -1.25161904202045        1.01353636373720
H            0.88100798710082       -1.13879978607407        1.10268381442212
H            0.84068870552012        1.01860974447151       -0.11995814026325
H           -0.92046995044835        1.01211285981756       -0.11993705346740
H           -0.88688798721485       -1.13066811180633       -1.43053580458348
H            0.87237143273818       -1.02729150359142       -1.51505061600630
H           -0.08417104452810       -0.50012401976114        3.14788162166955
O           -1.07620613724264       -1.51748664108870        7.63322590244145
H           -1.87029776786141       -2.10385740001257        7.45142409966965
H           -0.49267646748556       -2.10487133867424        8.17873673221797
O           -2.53621422375957       -0.83333480210413        5.21773010460518
H           -1.78381859949071       -0.47978522316329        5.70290024654063
H           -2.63764357522971       -0.26318274399962        4.43106240671792
O           -0.88121318260604       -3.15176490965970        4.22250902102158
H           -1.06993562572112       -2.49230142441031        4.97867235693142
H           -1.64533780023458       -3.75642137291780        4.31581500945610
O           -2.47766037351474       -0.17820596705736       -5.51970598521839
H           -2.24587979965703       -0.85289044575190       -6.12183059864202
H           -1.83787418688088       -0.10342365327032       -4.86242129841079
O           -2.15185051133834       -2.99145397451093        1.51048139980279
H           -2.84465491781195       -3.54932794170968        1.81939003459567
H           -1.37944031529684       -3.46202471493065        1.51167441505374
O           -1.19086784552680        2.75957128143730       -5.64414699204469
H           -1.90028281502660        3.27249496834837       -5.14023648524588
H           -0.79825179935354        2.23240642234458       -4.82982349452452
O           -2.70397774188603        1.09194689693875        3.14981655767994
H           -3.59123034035487        1.03146188610643        2.77534844014883
H           -2.67052313678008        1.92754483476065        3.63358083081662
37
 energy: -59.832121123145 gnorm: 0.057915315274 xtb: 6.7.1 (edcfbbe)
N           -0.17846394719935        0.16785996173590        2.37599579913913
C           -0.04762621196569       -0.56346318301130        1.09264754293166
C           -0.04198376196413        0.37254766893268       -0.11134288272401
C           -0.04708149383874       -0.43370892923304       -1.40460665931340