37
 energy: -59.872420126865 gnorm: 0.000261120635 xtb: 6.7.1 (edcfbbe)
N           -0.08674816068903       -0.60073550368664        2.18087438786762
C           -0.14192796096159       -0.97744589436603        0.75758303687741
C           -0.29326497546552        0.24491322035629       -0.14080657570429
C           -0.42604601422299       -0.15591024778303       -1.60452925898483
C           -0.53651816344311        1.05365598076103       -2.55025958401370
O           -0.17177641850769        2.17448672766327       -2.13111651391711
O           -0.97761608140938        0.83948471822673       -3.70565547203550
H            0.75184585721006       -0.05726525245738        2.38265197315565
H           -0.92074973599272       -0.03885722100492        2.43438340169859
H           -0.98981058040741       -1.64671018752341        0.61044618538066
H            0.76699983447433       -1.51609226825853        0.49017517133127
H            0.56562130271125        0.91320308989832       -0.05204918631261
H           -1.18087254443399        0.81639952762596        0.13378139130486
H           -1.30099381252484       -0.78515398341141       -1.77580385296487
H            0.45244707804036       -0.71560095944841       -1.93713055485703
H           -0.11148976681464       -1.48672118425011        2.78662238195308
O           -1.50956480404449       -0.28915893378721        7.37317235723094
H           -1.99619003623529       -0.49610657781966        8.17604518478945
H           -0.57181469866890       -0.35926066819011        7.57928947601433
O           -2.34249432182998       -1.34463804180578        4.89745469105845
H           -2.09235569379767       -0.98206578148198        5.76273670421105
H           -2.42750313586619       -0.57864373386690        4.30588445328136
O           -0.47474722539738       -2.80585888239963        3.59107821258631
H           -1.16721171369975       -2.42285503415233        4.17443337598051
H           -0.95643092479983       -3.30355475658277        2.90887646612191
O           -2.48641303327179       -1.39902324841816       -4.07743364344975
H           -2.65588587175531       -1.48742182345247       -5.02019344639991
H           -1.94586444011634       -0.58504688790930       -3.98330604479399
O           -1.93107523499369       -3.84563692094390        1.42035075716126
H           -2.89023444347047       -3.89000064971358        1.47658612415246
H           -1.64127492304586       -4.60439472249044        0.90692170479876
O           -0.61285054420650        4.17485085549148       -3.94607191532085
H           -0.92501529109803        3.66033067158011       -4.69722827928182
H           -0.42284016521041        3.50871420119989       -3.24711952363545
O           -2.37813331626546        0.83126810532420        3.02049348211937
H           -3.17202111519375        0.82409079604275        2.47876427037643
H           -2.25434592462468        1.73074547104913        3.33945766221667
