34
 energy: -56.714182887405 gnorm: 0.000381956063 xtb: 6.7.1 (edcfbbe)
H            1.19976435432523        0.21036596503315        1.07432767766973
C            0.37143596232205       -0.49998643102246        1.06381418862195
H            0.99120039842918       -1.16759735247968       -0.82726365387839
H            0.63565325897447       -1.36518794058907        1.67335751017814
N            0.11597674224539       -0.91516451105524       -0.32673073118257
H           -0.72050044929302        0.48656439134050        2.66253824330408
C           -0.86784445634399        0.18835988026086        1.62542297368663
O           -1.09463588724922        1.44603553296694       -0.41357092454821
C           -1.26836154013424        1.46231107444265        0.83163932953576
H           -0.33921663013738       -0.08177552855753       -0.76288785130044
O           -1.75402984277816        2.40927359251256        1.47790179023470
H           -0.54274430890534       -1.72131920843623       -0.37234804697868
H           -1.72772045470867       -0.48278379146565        1.58459828061804
O            2.70356113468551       -3.68557790641422        0.08205238275663
H            2.61311626451320       -2.94638006191167       -0.54971243602813
H            3.52284531273196       -4.13813265859840       -0.13697385446374
O            0.11593912492736       -4.94906811707806        3.00248893006597
H            0.75947078221842       -4.20879977807189        2.97985684808806
H           -0.62887108785507       -4.64020889342950        3.52478469343598
O            1.39901678163463       -2.19425452868107       -4.17411280295799
H            1.07886865166953       -3.08671037073501       -4.33828069528235
H            0.74105572108477       -1.58583505290588       -4.52390535852590
O            1.92559475973713       -2.93477638436652        2.61997235163219
H            2.70810283327451       -2.83513571999703        3.16777221278400
H            2.23840342030736       -3.19871214752840        1.73088222067379
O            0.24789223111208       -5.05881864333101        0.22565899444019
H            1.12382336035261       -4.64436591025467        0.11774733606390
H            0.14280992792155       -5.17325020316964        1.18800747413983
O           -1.47586219641373       -3.15390477469847       -0.55777395160429
H           -0.87427409377859       -3.90097378587935       -0.32348437068994
H           -2.35302207777922       -3.40709655191766       -0.26629959343901
O            2.43126635160657       -1.59391590612154       -1.71325149853268
H            2.10227393954910       -1.84339279154823       -2.60035366763304
H            3.08612871175981       -0.90395548630292       -1.85189100076879
