46
 energy: -75.136579367116 gnorm: 0.021091825034 xtb: 6.7.1 (edcfbbe)
N           -0.61387080880000        0.81876146830000       -0.35627440180000
C            0.19391739900000        1.98362839110000       -0.74667563070000
C           -0.00120992120000        2.31563670530000       -2.22453890470000
C            0.75926593080000        1.39196744950000       -3.18713337110000
C            0.07067933420000        0.07811741740000       -3.55957396600000
O            0.12201673690000       -0.28733992910000       -4.75785092920000
O           -0.49877731840000       -0.59757655620000       -2.66610573790000
H           -0.26946324730000        0.39795771500000        0.54273436970000
H           -1.61875537740000        1.07766219300000       -0.30112470840000
H           -0.10639487200000        2.83924488440000       -0.14196823870000
H            1.24494750290000        1.76833398940000       -0.54878248540000
H            0.35713994640000        3.33027103380000       -2.39811480230000
H           -1.06689212270000        2.29648646500000       -2.45885195520000
H            1.72604867510000        1.11611180380000       -2.75663455660000
H            0.95698019200000        1.90662406280000       -4.12938856680000
H           -0.53454814400000        0.10700148710000       -1.11293805820000
O            0.47727453250000       -0.37176111400000        1.80891697160000
H            0.88546666420000       -1.17244804930000        1.43350455870000
H           -0.15975021800000       -0.67512671150000        2.47798705620000
O           -3.26877343070000       -0.26657202660000       -2.83210895690000
H           -3.36342489480000       -0.15935958430000       -3.78849230630000
H           -2.35761640420000       -0.58476177660000       -2.71207798930000
O           -2.54232059400000       -0.08272241100000       -5.61298499560000
H           -2.58250243450000        0.44580854130000       -6.41604148250000
H           -1.59904122060000       -0.23479261310000       -5.43196695940000
O           -3.29505084430000        1.46115818310000       -0.67941384070000
H           -3.41045799260000        0.90870069560000       -1.47503909060000
H           -4.02632805680000        1.24682784830000       -0.09355162300000
H            0.10765446450000       -2.25441999470000       -2.25332546100000
H            1.13356273300000       -3.18839121480000       -2.90749474630000
O            0.66185482490000       -3.03529605960000       -2.07540325870000
H            1.22056821710000       -2.78648134860000       -0.36633311930000
H            1.33237213680000       -3.56453637470000        0.96290868710000
O            1.43417429920000       -2.68885142680000        0.57933597800000
O            1.37280413970000       -2.77926016840000       -4.84168040140000
H            0.93668215950000       -1.91040807060000       -4.90908361340000
H            1.04969267900000       -3.29598139510000       -5.58691026770000
O           -1.61564069290000       -1.03099836940000        3.57610290040000
H           -1.96990294800000       -0.29709092880000        4.08742186280000
H           -2.36264847920000       -1.54817651280000        3.25874512360000
H           -2.09822824860000       -2.26629805640000       -0.07159906120000
O           -1.99108973150000       -1.32106802380000        0.07437738760000
H           -2.74840277940000       -1.02102086710000        0.58625045920000
H           -2.12764042190000       -3.01885361130000       -4.51150272560000
O           -1.40937703740000       -3.00686840890000       -5.15192720630000
H           -1.05810321280000       -2.11148204150000       -5.17417272850000
46
 energy: -75.139399555175 gnorm: 0.012024991069 xtb: 6.7.1 (edcfbbe)
N           -0.60425964873308        0.82969639651375       -0.35725802745099
C            0.20256047406386        1.99079036519466       -0.75118371373533
C            0.00262358111774        2.31556060621653       -2.23016902278901
C            0.75880122552161        1.38834551778652       -3.19398287956015
C            0.06961536988008        0.07341861494001       -3.56324873013269
O            0.11101626119068       -0.29669606380255       -4.76338606147035
O           -0.50282910564450       -0.59696888612853       -2.67214208183690
H           -0.26736787112441        0.40032764251603        0.53958852977537
H           -1.60945437185337        1.08074237291615       -0.30084280642811
H           -0.09725049725651        2.84814788858890       -0.14842077196696
H            1.25349319009427        1.77538138152163       -0.55388622876975
H            0.36003812352634        3.32997549277853       -2.40771301447001
H           -1.06416437276213        2.29562327917322       -2.45926024699542
H            1.72544819131166        1.11292189446318       -2.76294796898619
H            0.95670657456376        1.90315710115794       -4.13625429778152
H           -0.53589896120919        0.10914483173332       -1.10507277996512
O            0.49280674461608       -0.36158098893864        1.81759865210901
H            0.88075105772873       -1.16120185627799        1.41896436854468
H           -0.16604075030087       -0.67258761754235        2.46176655366188
O           -3.28186458176643       -0.28878867187912       -2.83137590403714
H           -3.34329620041584       -0.14029241586203       -3.78650584466363
H           -2.35676362761538       -0.55848527488065       -2.68466555745114
O           -2.54410382662685       -0.07577040974166       -5.61749668731937
H           -2.62096536282599        0.44253866403346       -6.42454110591642
H           -1.58977239290119       -0.14361263983698       -5.43148340030542
O           -3.29761877405393        1.47055404211749       -0.68564439367908
H           -3.40125200643275        0.89816569862333       -1.46950029363631
H           -4.03572596645986        1.26969421357102       -0.10419992206300
H            0.11652047679545       -2.24324543533452       -2.23621167156520
H            1.12210484389804       -3.18500928490397       -2.91221909196272
O            0.65125830050446       -3.04231577086502       -2.07733588909319
H            1.21865168140888       -2.78413343437006       -0.36742143043074
H            1.33776681073039       -3.56956174861902        0.95828985821714
O            1.43314116132427       -2.69143243540198        0.57876762568094
O            1.44753581348613       -2.76884059348520       -4.85126660163384
H            1.00125330768001       -1.90392850799254       -4.89816961259361
H            1.03721209210126       -3.30825889983967       -5.54327479823770
O           -1.61426045030796       -1.02666122121012        3.57780766372263
H           -1.97082982796426       -0.29394537971173        4.08903170844667
H           -2.35774249959219       -1.56232861812755        3.28446053235398
H           -2.12721193941976       -2.30488998707354       -0.08713239621552
O           -2.00051940183930       -1.37292650378427        0.10276298931650
H           -2.78289424698949       -1.06662823429107        0.57080780272510
H           -2.14354063626326       -3.04560145203612       -4.51754450027866
O           -1.46123446475351       -3.00713346489582       -5.19590794441360
H           -1.05555238273167       -2.12900351781282       -5.12096139851884
46
 energy: -75.140844556178 gnorm: 0.022325433060 xtb: 6.7.1 (edcfbbe)
N           -0.59463603290082        0.83947072872959       -0.35595945541094
C            0.21139133282298        1.99524703027928       -0.75943912584876
C            0.00635423350965        2.31386520491283       -2.23945910574912
C            0.75725467423352        1.38242912721525       -3.20444223768639
C            0.05763038401469        0.07179559972137       -3.56810275039653
O            0.09570787555152       -0.30923394999755       -4.76795469397609
O           -0.50907378361302       -0.59726231941191       -2.67530925856669
H           -0.26351443467746        0.40623338725601        0.53993271446090
H           -1.59949834545684        1.08403845150445       -0.29563989073364
H           -0.08558541165824        2.85672468760171       -0.16090853470683
H            1.26281186886122        1.78135965890296       -0.56349200664705
H            0.36450980509213        3.32701033641849       -2.42320787728534
H           -1.06177271913247        2.29542830669813       -2.46212304402803
H            1.72337798444726        1.10381842362035       -2.77413932638886
H            0.95638865600016        1.89605071655481       -4.14711594227865
H           -0.53834173431371        0.10604396544530       -1.09070480401352
O            0.50938709268595       -0.35077147897065        1.82191850370861
H            0.87788326853773       -1.15245172020525        1.40885810416290
H           -0.16740737503369       -0.66276130357804        2.44717111758899
O           -3.28106141766645       -0.29622258704203       -2.82374840880996
H           -3.33046563020439       -0.13966378114394       -3.77787701346228
H           -2.35297434909402       -0.54771098440966       -2.66117248916788
O           -2.54504250809188       -0.01393562340949       -5.58948609866945
H           -2.64793512996375        0.42723529811125       -6.44455915163459
H           -1.58905286111894       -0.09686123283619       -5.44280655638088
O           -3.29844462824407        1.47638509148313       -0.69118652666299
H           -3.39910577572018        0.89120528462184       -1.46623411316878
H           -4.05357208177663        1.30612705811940       -0.12078695994862
H            0.12117423517253       -2.23204597239139       -2.22540444481000
H            1.11864548851726       -3.17826397726556       -2.91083203635327
O            0.63534448185657       -3.04818873275011       -2.08039981576573
H            1.21208020516086       -2.78710707454447       -0.36929623466445
H            1.34618040614373       -3.57367182541469        0.95514250766024
O            1.42804031852338       -2.69392799949056        0.57626571017298
O            1.49926810125193       -2.76852989588600       -4.83803132998239
H            1.09203472848407       -1.88670040071186       -4.90016924824038
H            1.02812958141714       -3.31665355995779       -5.49112824406478
O           -1.61065588582427       -1.01761955616765        3.57805150353887
H           -1.97116812560283       -0.28839076818968        4.09137058313904
H           -2.34797081890356       -1.58658648827938        3.32779376696152
H           -2.15749408667600       -2.34608168082580       -0.12018700945728
O           -2.00057531838161       -1.43385251916655        0.14921600504542
H           -2.83358998669674       -1.12125163116591        0.53389391404795
H           -2.16067547135033       -3.08175838169601       -4.55007672502433
O           -1.46950360430444       -2.99288974845437       -5.21478250154959
H           -1.08758609217795       -2.10771647463302       -5.07223226075286
46
 energy: -75.141680583162 gnorm: 0.016487225835 xtb: 6.7.1 (edcfbbe)
N           -0.58835772371723        0.84510551931722       -0.35385514663320
C            0.21757048539631        1.99612350871882       -0.76828886273738
C            0.00847905271454        2.31033634141968       -2.24906469208034
C            0.75649719096181        1.37543580397179       -3.21321649447555
C            0.05415906629952        0.06576760245267       -3.56971424762646
O            0.08248264117483       -0.31696037168612       -4.77035797766262
O           -0.51726563674015       -0.59766435988673       -2.67594900789826
H           -0.25794276285271        0.41395010093527        0.54298585939546
H           -1.59225612599662        1.08855676872052       -0.28848286350902
H           -0.07561565535085        2.86202289180008       -0.17407066576573
H            1.26970878848585        1.78338417772599       -0.57444878466887
H            0.36727935936832        3.32234019754415       -2.43814540315195
H           -1.06032990055660        2.29270060608927       -2.46806661116834
H            1.72231922741639        1.09516406654341       -2.78363730414761
H            0.95558621330175        1.88632955857481       -4.15737642439457
H           -0.53928984471036        0.10161421547923       -1.07814448571618
O            0.51950993176726       -0.34431478428629        1.82094443891540
H            0.87814055361874       -1.14865068056607        1.40596229507336
H           -0.16487097778654       -0.65201941483736        2.43885979496371
O           -3.27717453842884       -0.30462252534600       -2.81221600243116
H           -3.32187462922864       -0.13334698922992       -3.76387112543238
H           -2.34871417101673       -0.54808809884380       -2.64617606853811
O           -2.55498310570743        0.03577868558527       -5.57473100975165
H           -2.67351751334481        0.42984252054257       -6.45270395802241
H           -1.59624435706761       -0.04979064738198       -5.44896215089733
O           -3.29722135083072        1.47849136929990       -0.69609958233132
H           -3.40187399601794        0.88788677543210       -1.46625871469023
H           -4.07454190520646        1.34826853189120       -0.14115743055977
H            0.11652623869943       -2.22717700026624       -2.22720555895825
H            1.11837362877923       -3.17479625491754       -2.90549454951518
O            0.62394826076588       -3.04607362220448       -2.08108125415834
H            1.20193805607900       -2.79171987058521       -0.37020655060678
H            1.35393209885151       -3.57539755579561        0.95426624077219
O            1.42486755360311       -2.69573035978934        0.57315040465317
O            1.52440373968868       -2.76984204261779       -4.81137432420682
H            1.13735408507973       -1.88230742243536       -4.90221019340668
H            1.05322433210689       -3.31876515340193       -5.44998842539754
O           -1.60411929501341       -1.01082350494157        3.58508199050040
H           -1.97117566669915       -0.28064768878758        4.09239475148061
H           -2.33236075000472       -1.60866485659724        3.37034556856223
H           -2.16396214987996       -2.38392485544449       -0.13140627272369
O           -2.03166406368242       -1.47685477201509        0.13885440804804
H           -2.86262101489463       -1.17811053781595        0.51795583544988
H           -2.17907578547195       -3.10042180679773       -4.59503741751653
O           -1.44783371704026       -2.98158684899877       -5.21114263609732
H           -1.10452275321195       -2.08844052736668       -5.03944018273610
46
 energy: -75.142410374117 gnorm: 0.024955790755 xtb: 6.7.1 (edcfbbe)
N           -0.58475575030311        0.84850233292394       -0.35085387441711
C            0.22241545702226        1.99367436066466       -0.77977640370784
C            0.01019590279992        2.30375083361563       -2.26118138415146
C            0.75518723543327        1.36514814763732       -3.22337924243098
C            0.04485046858044        0.06010633141097       -3.57223003635516
O            0.06683302856969       -0.32378513006839       -4.77213690276321
O           -0.52745915585507       -0.59927787999453       -2.67447012167889
H           -0.24966459414258        0.42611482510337        0.54919757686035
H           -1.58702805519514        1.09515679416985       -0.27908346343248
H           -0.06470425614217        2.86527450523143       -0.19067824648589
H            1.27537606095805        1.78062624874788       -0.58948069476944
H            0.37043855109651        3.31425507895978       -2.45544158853532
H           -1.05886352820990        2.28699146746938       -2.47826105664930
H            1.72052603582056        1.08153789072920       -2.79516363436716
H            0.95397705214175        1.87164109776711       -4.16990706505285
H           -0.54061923935891        0.09519021606052       -1.06453154954408
O            0.52548611386539       -0.33992837980336        1.81676581130492
H            0.88270695255586       -1.14653017616094        1.40865699561847
H           -0.15656894236725       -0.63993737965924        2.43773373711056
O           -3.27079597310470       -0.31541872535880       -2.79628229616701
H           -3.31717632210508       -0.12239554404797       -3.74339364707809
H           -2.34404681526800       -0.55990204527935       -2.63637245810313
O           -2.57555931382769        0.08705527380321       -5.56904984805893
H           -2.69634729555833        0.45800117004824       -6.44629514802222
H           -1.61620505962371       -0.00617310881437       -5.45188049680962
O           -3.29630346884012        1.48572224263100       -0.70449892597746
H           -3.40488800701361        0.88481007697823       -1.46634546181028
H           -4.09796591038073        1.40492530561082       -0.16976850601895
H            0.10405421979864       -2.22680919615490       -2.23705765321701
H            1.12272382502632       -3.16710936476824       -2.90101409468961
O            0.61630129379155       -3.03832600694901       -2.08330685979719
H            1.18779306135175       -2.79758864160339       -0.37243865288875
H            1.36711877507533       -3.57537549860852        0.95275489451997
O            1.42086490768449       -2.69596757070530        0.56785772316395
O            1.57388753882298       -2.75818874482306       -4.78974082596341
H            1.15921040783026       -1.88934774933721       -4.89807438062159
H            1.06531418712831       -3.33959564985460       -5.37396864267101
O           -1.59356005336423       -1.00646837082617        3.60290339278849
H           -1.96899471211715       -0.26909863624450        4.09395163768186
H           -2.30858563705354       -1.62908232570025        3.42088606774061
H           -2.16980739904771       -2.41856508139280       -0.18629239312891
O           -2.03810168859728       -1.53119370003681        0.17362705767607
H           -2.92279906483535       -1.24687780358973        0.46305724223505
H           -2.19670251854765       -3.10580926152585       -4.65482352453158
O           -1.41362217502399       -2.96014486438244       -5.20690497494640
H           -1.09724502577013       -2.06723067467122       -4.99208887365690
46
 energy: -75.143024174898 gnorm: 0.019883825942 xtb: 6.7.1 (edcfbbe)
N           -0.58753953715418        0.84696185341171       -0.34966399535823
C            0.22327914048735        1.98809532760052       -0.78693535759470
C            0.01091589747619        2.29642359650642       -2.26859096953671
C            0.75321082521359        1.35566758242745       -3.22967395883884
C            0.03210045306689        0.05725065818313       -3.57622637861539
O            0.05637303861903       -0.32864097873318       -4.77340121017612
O           -0.53342231065916       -0.60265689731955       -2.67242437622193
H           -0.24474379365805        0.43367217974093        0.55388156599619
H           -1.58790655489461        1.10184048599596       -0.27421905565086
H           -0.05796105994611        2.86311034862884       -0.20004683481265
H            1.27624739577278        1.77117017677520       -0.60011975605450
H            0.37285362233366        3.30594257688899       -2.46406693717772
H           -1.05786662416611        2.28065243814173       -2.48666823564492
H            1.71823787320146        1.06866655772457       -2.80292214467235
H            0.95189115810905        1.85875154699196       -4.17794568922420
H           -0.54284048617993        0.09192400926463       -1.06053272157462
O            0.52301576729678       -0.34021416038880        1.81223241803501
H            0.88820774538925       -1.14629832696404        1.41186496834908
H           -0.14905696396303       -0.63687117507803        2.44360718897433
O           -3.27019942179156       -0.32473027534861       -2.78262084198444
H           -3.32770620641724       -0.11192980960765       -3.72452639714344
H           -2.34183725978719       -0.57180725717327       -2.63949409594979
O           -2.59397187814373        0.14097768095300       -5.55391113455744
H           -2.71487310057820        0.46964317944937       -6.44740464577163
H           -1.63655751446965        0.01232373211292       -5.45305404734069
O           -3.29900375082974        1.50274016740366       -0.71400843858184
H           -3.40444382565701        0.88724202075312       -1.46597723316275
H           -4.10350255696657        1.44138544153477       -0.18947252786109
H            0.09314985044698       -2.22933258615830       -2.24355101698234
H            1.13273382518107       -3.15562378352582       -2.89601872573576
O            0.61040583045541       -3.03647455623459       -2.08565881337225
H            1.17669524387165       -2.80045574719374       -0.37568771232995
H            1.37856535698573       -3.57346591349412        0.94979861464242
O            1.41970793541761       -2.69450853021326        0.56212345692089
O            1.60391271387717       -2.75125529262052       -4.77245082833709
H            1.16472270377717       -1.89670101526667       -4.89222590981437
H            1.06230090294975       -3.36212672151566       -5.31080688184584
O           -1.58118649656500       -1.00774075962099        3.62792815054330
H           -1.96652617880718       -0.25854100244021        4.09472666259901
H           -2.28333043489536       -1.63702317077160        3.45345318777413
H           -2.15275580936344       -2.44558204953519       -0.20536317757998
O           -2.07346815829667       -1.55505868062569        0.13556692487862
H           -2.94264261065850       -1.29554727453374        0.44130248682651
H           -2.19312847154180       -3.07996808789034       -4.68581440320342
O           -1.39440064147827       -2.93830030219478       -5.21005409480125
H           -1.06076451935962       -2.06123051683865       -4.96372786982887
46
 energy: -75.143189738757 gnorm: 0.037986961200 xtb: 6.7.1 (edcfbbe)
N           -0.59468625991584        0.84168374916950       -0.35011724050802
C            0.22190119962068        1.97910681874419       -0.79380184468056
C            0.01010083605154        2.28540319542889       -2.27580621860560
C            0.74987166266830        1.34227518513353       -3.23554272240431
C            0.02462132156645        0.04633570540962       -3.58079859299397
O            0.04483935759690       -0.33812983816351       -4.77556325747481
O           -0.53894577402831       -0.60959842248557       -2.67054817738450
H           -0.24033829052161        0.43855365329298        0.55713630868498
H           -1.59214150681393        1.10908490572139       -0.27180914713250
H           -0.05211949118646        2.85658378177096       -0.20746860319597
H            1.27412536243809        1.75433578520396       -0.61141539770720
H            0.37321570397153        3.29452148589039       -2.47022993906023
H           -1.05813410358133        2.27000796376564       -2.49655646635155
H            1.71506075309595        1.05469583218444       -2.80970055689523
H            0.94801093889191        1.84187673030364       -4.18574717757016
H           -0.54716527483023        0.09017049951764       -1.06300859645410
O            0.52031661212546       -0.33932597091211        1.80738135166613
H            0.89619064842056       -1.14381925549414        1.41198092274255
H           -0.13765585596158       -0.63559554588195        2.45379124601369
O           -3.27988733624068       -0.34188069978220       -2.76722567110765
H           -3.34860191989707       -0.09316079492281       -3.70152312227816
H           -2.34250449719466       -0.58027187968972       -2.64595150016982
O           -2.61584663131667        0.21397706001472       -5.52877259359436
H           -2.74340156104345        0.46669559888410       -6.45949489057463
H           -1.66092732416891        0.03415539869243       -5.45148935265248
O           -3.30256554730062        1.52711726783752       -0.72719879556347
H           -3.40055410779704        0.88917622639151       -1.46418416933153
H           -4.10372191911827        1.48189140244828       -0.21342645648198
H            0.08049995619741       -2.23345055494635       -2.24198998514846
H            1.14612548521468       -3.14262982235913       -2.87928568683614
O            0.59751518839029       -3.04263223249412       -2.08135367665922
H            1.16407031348249       -2.80112351607149       -0.37769140623299
H            1.38660658978223       -3.57118252368061        0.94656529186696
O            1.41893195829173       -2.69294802034606        0.55765839502563
O            1.57714234816998       -2.77485121567148       -4.71999976379575
H            1.17782259084942       -1.90277931424880       -4.88515477829640
H            1.10033913665245       -3.36193225374355       -5.28238830965902
O           -1.56240045920625       -0.99737570108359        3.65352858833474
H           -1.96572642839466       -0.24220740025206        4.09723860983805
H           -2.24474832475820       -1.65303683910524        3.50657396480063
H           -2.11698251193207       -2.46606505328868       -0.24723487509855
O           -2.09158739347190       -1.57986832000838        0.12233831067448
H           -2.99038066312824       -1.34939743107062        0.37695911473627
H           -2.17281916446407       -3.02709048401895       -4.70835512226835
O           -1.37690013433899       -2.90695442495712       -5.21884507158845
H           -0.99967436916568       -2.05798404192462       -4.94025373042612
46
 energy: -75.144105639686 gnorm: 0.022933788422 xtb: 6.7.1 (edcfbbe)
N           -0.59454149274967        0.83868229226160       -0.35004241814885
C            0.22348215542097        1.97465765561145       -0.79562484671828
C            0.00906180604737        2.27998062543341       -2.27778559807239
C            0.74718874629279        1.33506892013203       -3.23774963136143
C            0.02806748410398        0.03406912494054       -3.57984317543961
O            0.03453325126958       -0.34814175850571       -4.77627555281061
O           -0.54452843662550       -0.61396012628067       -2.67036971614904
H           -0.24012100920222        0.43316987586939        0.55578957513098
H           -1.59029059317234        1.10751046800611       -0.26974640046915
H           -0.04765726828924        2.85260673048949       -0.20890412055218
H            1.27517743719633        1.74686170683437       -0.61485622327947
H            0.37239986298597        3.28900413836190       -2.47287575392637
H           -1.05959624283268        2.26543769017052       -2.49714073105245
H            1.71275020546455        1.04930072453134       -2.81187334426893
H            0.94504052968042        1.83455660615735       -4.18823332630229
H           -0.55121310425419        0.08755360985220       -1.06336769260874
O            0.52734334726806       -0.33588703750358        1.80821277729945
H            0.89584690662167       -1.14193330783085        1.40636111824689
H           -0.13370825255133       -0.63286362078852        2.45272575554286
O           -3.28670268762769       -0.34503014098709       -2.76407518771211
H           -3.35554780237193       -0.09231269032353       -3.69621360494876
H           -2.34709558984984       -0.57993809348010       -2.64246141520455
O           -2.62678465786422        0.21886653642726       -5.53324336391128
H           -2.75349484555049        0.49066609580469       -6.44477964729916
H           -1.67475233503773        0.04119418933174       -5.44548598212579
O           -3.29454076975051        1.52729489107679       -0.73057223419703
H           -3.39999254918157        0.88805354251257       -1.46414070788075
H           -4.11733793920037        1.51960369979599       -0.23099762280966
H            0.07721466591072       -2.23358989957787       -2.23421015436073
H            1.14728450739023       -3.13350632169933       -2.87704445443214
O            0.59284556841498       -3.04657252996911       -2.08107111647058
H            1.16268239781274       -2.80027972915879       -0.37968103752756
H            1.38901418779526       -3.57134842302219        0.94307574825603
O            1.41934199360818       -2.69285830907065        0.55530107941632
O            1.60120389548761       -2.76997869990139       -4.71848277223910
H            1.20160983172952       -1.89896527981402       -4.89034791931202
H            1.07549383071848       -3.38758650865927       -5.23790403704644
O           -1.55313509987644       -0.97798538190702        3.65196371026157
H           -1.96875051631238       -0.23379820576893        4.10019567465242
H           -2.22473634286914       -1.67454758797016        3.54868852691487
H           -2.09867435054900       -2.47403855129579       -0.26275812987218
O           -2.09538011834132       -1.59233462345167        0.12013706637269
H           -3.01782745675248       -1.37409788328295        0.33482785785253
H           -2.17430840982139       -3.01304113365388       -4.73741493993699
O           -1.34531902188709       -2.88622829662676       -5.20988405212765
H           -0.99465460499711       -2.03095829386818       -4.93060277117022
46
 energy: -75.144041948302 gnorm: 0.032383978594 xtb: 6.7.1 (edcfbbe)
N           -0.59726582822939        0.83428871274593       -0.35067369934800
C            0.22366264024793        1.96843555170275       -0.79551066407489
C            0.00699118242701        2.27452267443952       -2.27745058264341
C            0.74403587588044        1.32855421098274       -3.23766882161897
C            0.02377972552189        0.02630840993959       -3.57788585059449
O            0.02976927775834       -0.36020266851431       -4.77393597327515
O           -0.55060321240707       -0.61934806981542       -2.66937985261880
H           -0.24742933407850        0.42260148352871        0.55260871327572