37
 energy: -59.746347081862 gnorm: 0.190909337199 xtb: 6.7.1 (edcfbbe)
N            0.06495200000000       -0.17036600000000        2.24069000000000
C           -0.42508700000000       -0.28387700000000        0.86827900000000
C            0.36773000000000        0.64114900000000       -0.07116600000000
C           -0.13442900000000        0.59759400000000       -1.52314500000000
C            0.09666800000000       -0.71348800000000       -2.23073300000000
O            0.72724600000000       -1.73996500000000       -1.62853300000000
O           -0.27063500000000       -0.83895900000000       -3.38700000000000
H            1.07233000000000       -0.44720500000000        2.28653100000000
H           -0.04872800000000        0.81071300000000        2.58374800000000
H           -1.50104700000000       -0.00273500000000        0.84068300000000
H           -0.33838800000000       -1.34087900000000        0.54567800000000
H            1.44982600000000        0.38979400000000       -0.04170700000000
H            0.24571000000000        1.68308900000000        0.29572000000000
H           -1.21792700000000        0.84024100000000       -1.53588800000000
H            0.40005500000000        1.38331800000000       -2.09874700000000
H           -0.48827700000000       -0.80842500000000        2.85559100000000
O            2.12595300000000        2.37806000000000        5.31152600000000
H            1.60374700000000        2.71771200000000        6.08129700000000
H            2.35272000000000        3.18798500000000        4.78883000000000
O           -1.94245600000000        3.19796700000000       -5.24827800000000
H           -1.35381300000000        2.91998100000000       -5.99449100000000
H           -2.51505500000000        2.40848800000000       -5.07662400000000
O           -1.13485200000000        2.42718600000000        5.74094500000000
H           -1.63433200000000        1.82835400000000        6.35129800000000
H           -1.51162800000000        3.32672600000000        5.91264800000000
O           -0.06350700000000        3.69818600000000       -4.20167200000000
H            0.47885100000000        3.95145600000000       -3.41280400000000
H           -0.02413700000000        2.70893100000000       -4.22257100000000
O            2.20023000000000        2.54486700000000       -5.47762900000000
H            2.02254400000000        3.25254900000000       -4.80813400000000
H            1.32778300000000        2.40014100000000       -5.92316600000000
O           -1.95999500000000        4.07544900000000        1.02435300000000
H           -1.03844900000000        4.06824100000000        0.66198300000000
H           -2.03638700000000        3.22448800000000        1.52499500000000
O           -0.63935300000000        3.35030800000000        3.79668300000000
H           -0.46202500000000        3.81750800000000        2.94176300000000
H            0.21287400000000        3.41594500000000        4.29669700000000
37
 energy: -59.778680015121 gnorm: 0.092386453044 xtb: 6.7.1 (edcfbbe)
N            0.06235512699333       -0.16917488627310        2.24970956006666
C           -0.42716349361159       -0.28135634616259        0.86525517564573
C            0.36439404802772        0.64636163554171       -0.05645202165177
C           -0.12598776915483        0.59078148859401       -1.50330041509493
C            0.10828656608394       -0.72498377849746       -2.23227780437752
O            0.70239820055024       -1.69307410030249       -1.61374298716086
O           -0.28097670549293       -0.83887388046363       -3.40380913112680
H            1.05876619792913       -0.43685923794339        2.29450356609162
H           -0.04445389270992        0.79857958406736        2.59777221863195
H           -1.48911069095210       -0.00811969431765        0.83020472346281
H           -0.33009160730081       -1.31781649108143        0.51922507209136
H            1.42909406363524        0.38019609398051       -0.04388876341466
H            0.25288784564637        1.67980438463968        0.29678525932205
H           -1.19976941263318        0.82133595088683       -1.54767124927263
H            0.39139527753716        1.36022883617617       -2.09370497897070
H           -0.47692282083278       -0.79975139840724        2.86257840643997
O            2.10556776966260        2.38963189152688        5.29586294323936
H            1.61320627614363        2.70849490849914        6.07117193080146
H            2.37261192906735        3.18861431387593        4.80975190951520
O           -2.02657236529635        3.18795648304923       -5.31268465222216
H           -1.39771858836870        2.91558728109031       -6.00290149579525
H           -2.53699160004321        2.38923671025997       -5.09808612826486
O           -1.13336050459054        2.41013314791212        5.82162904866428
H           -1.65813132912758        1.81983177336492        6.38348633726563
H           -1.53299604529461        3.29253104105845        5.92158443125938
O            0.01947770491187        3.70836901096725       -4.17507382394470
H            0.50486955922947        3.95968199132227       -3.37333155227906
H           -0.01226371005998        2.73286976826232       -4.16869206798732
O            2.20296194342873        2.53502905988444       -5.47018040394921
H            2.02643243787353        3.25722177315118       -4.83966014923747
H            1.35726886313739        2.40388763592329       -5.92982938982820
O           -1.94825590764397        4.07419989870975        1.03342887826025
H           -1.05325130906447        4.05993769931125        0.65604243293086
H           -2.04101976403806        3.23702180974396        1.52082557304397
O           -0.61029828565956        3.34674436111067        3.72417790070188
H           -0.43882232528971        3.86589090982030        2.91994477450162
H            0.20089631730680        3.41037737071915        4.25899687264167
37
 energy: -59.791160747404 gnorm: 0.031996953558 xtb: 6.7.1 (edcfbbe)
N            0.05632293431388       -0.16739287966817        2.25975072168489
C           -0.42987417510663       -0.27546927321712        0.86329568433789
C            0.36503337530466        0.64873782539978       -0.04921769487319
C           -0.12837410394060        0.59130901174806       -1.48971039663509
C            0.09970344579103       -0.75186188713951       -2.21343567344278
O            0.70082000613718       -1.65530757513919       -1.60945107448953
O           -0.28478315872320       -0.82196279193873       -3.40469623425144
H            1.04694887798978       -0.42540671073986        2.30206567807443
H           -0.04690302852740        0.79202522635404        2.61214015383194
H           -1.48426987145275       -0.01076647707724        0.82559930827256
H           -0.31556016972100       -1.29794483528431        0.50327741408029
H            1.41715500526685        0.36507344795806       -0.04490602413914
H            0.26463142869211        1.67664140463019        0.29584424059672
H           -1.19693627301873        0.80891369115299       -1.55426579322656
H            0.38754885253964        1.34264662493801       -2.09226275837691
H           -0.47226401903975       -0.79488627698540        2.87175631797405
O            2.08345424858190        2.40325150059118        5.27030022081208
H            1.61538833621283        2.69181495615321        6.05872891871039
H            2.40929019081841        3.19998218447289        4.83320974733175
O           -2.07402284762624        3.16988408626356       -5.34055759297164
H           -1.44736508756007        2.92658322521990       -6.02254914861344
H           -2.56298655010056        2.37709390402178       -5.11646715481695
O           -1.12533331929105        2.40183507419040        5.89390183361642
H           -1.67113922390752        1.80599790283455        6.41004671957865
H           -1.55231364311217        3.26627978189682        5.93130953652747
O            0.08442824584671        3.71552117671789       -4.15438573724380
H            0.50272469531522        3.97742196383089       -3.32864574222439
H           -0.01509213923623        2.75291516810495       -4.11251062351694
O            2.22401361928268        2.52816914995206       -5.47187179767399
H            2.03245121664700        3.27094574757510       -4.88281306918934
H            1.40473313138413        2.38801387154027       -5.95197454562732
O           -1.93670905449065        4.07952545977965        1.04416533289031
H           -1.06706564267480        4.04984809252344        0.63867614522130
H           -2.05245317815187        3.25303361242365        1.52284553993692
O           -0.58396730550080        3.31654206357040        3.64355066205300
H           -0.42434947315610        3.92786625739023        2.90533504810857
H            0.18582665421304        3.37365329595569        4.22157183767193
37
 energy: -59.796903958909 gnorm: 0.065775121630 xtb: 6.7.1 (edcfbbe)
N            0.05007808397751       -0.16193589101269        2.26688036672277
C           -0.43074892595835       -0.26828121039276        0.86311083985449
C            0.36509878676841        0.65703579972385       -0.04623138717810
C           -0.12780914709169        0.59931890208076       -1.48725446653310
C            0.14713206298870       -0.75320500222243       -2.21412833781258
O            0.66917938941636       -1.66721497219746       -1.57139286145190
O           -0.30764772877157       -0.82513685604785       -3.38724365241751
H            1.04189432321981       -0.41115526938629        2.30818109760522
H           -0.05620421210650        0.79559431011892        2.62273875197907
H           -1.48530911915677       -0.01071256336476        0.82315644911368
H           -0.30210852423244       -1.28623718284478        0.49907669211948
H            1.41219288629276        0.35834772151503       -0.04708711378114
H            0.27709350672338        1.68378248799275        0.30125494342467
H           -1.19913059281784        0.79362078731831       -1.56143027806317
H            0.38528129989409        1.34542132437609       -2.09311970008143
H           -0.47294567981842       -0.79270059499922        2.87889882782349
O            2.03118025370836        2.41262284667641        5.21267523804894
H            1.62534514662858        2.66714565426720        6.05341840479885
H            2.46967013068183        3.22843920354126        4.87183879092965
O           -2.13790405457185        3.16709218404445       -5.36901062464422
H           -1.49095823881746        2.94609207698407       -6.03956574636534
H           -2.59035650064958        2.35490076751776       -5.12774332784478
O           -1.09365525274463        2.40291120604654        5.97948039753858
H           -1.68908170343236        1.78839829283753        6.43040248393268
H           -1.58910565755143        3.24425445558547        5.92671619381147
O            0.15137408637927        3.72687556993786       -4.14371834953918
H            0.48794575010352        4.00416321821894       -3.27570820183729
H           -0.02724520096210        2.77231162768025       -4.04927228214180
O            2.25806377252398        2.51472185451700       -5.46689110756943
H            2.03130270961541        3.29600395358395       -4.93342860512418
H            1.47034694936831        2.35888271773933       -5.99804290551294
O           -1.92038422681812        4.10687691171088        1.07577688082519
H           -1.08271667833396        4.02624226119927        0.60041668745580
H           -2.07302588103406        3.27061757223868        1.52730642914433
O           -0.55562979511869        3.25715423057850        3.55468022431212
H           -0.40618640779541        3.98333330146372        2.89565806797640
H            0.17368638949099        3.31494530297390        4.18725118047931
37
 energy: -59.802485533131 gnorm: 0.047196681794 xtb: 6.7.1 (edcfbbe)
N            0.04157031366684       -0.15098681595754        2.27591443466860
C           -0.43391723804012       -0.25842157938934        0.86722898902553
C            0.36323371931595        0.66669559713366       -0.04194727911566
C           -0.13479590158055        0.60421773590560       -1.48310060674543
C            0.13434428695769       -0.77695911623918       -2.19333609474779
O            0.67691874449113       -1.67371618159837       -1.53828201161319
O           -0.29463482963689       -0.82092819340639       -3.37740122532382
H            1.03680656589133       -0.39148892737197        2.31646572083887
H           -0.07002189638538        0.80735040891988        2.63433498619374
H           -1.49074322540819       -0.00740210431153        0.82386020428711
H           -0.29311965993030       -1.27510006227779        0.50281557379865
H            1.40654261319027        0.34917609663718       -0.04958151038666
H            0.29489215297895        1.69474098400425        0.31058798765840
H           -1.20538481729784        0.78898811054336       -1.56218792079105
H            0.38615760463588        1.33594445214932       -2.09906935641289
H           -0.47704627509675       -0.78742038143144        2.88815245477748
O            2.07133576679395        2.44599769831828        5.20793564065124
H            1.61823502326927        2.64953641288902        6.03033045045625
H            2.45703811495416        3.24344834316966        4.86017824389254
O           -2.22771257262728        3.16232570049447       -5.40182294323655
H           -1.53789336628288        2.96891757465436       -6.04933289900096
H           -2.62565187788656        2.31592288513460       -5.14567031314994
O           -1.09801022194853        2.40544312215958        6.04776434509106
H           -1.70021957076762        1.76929708790864        6.45978935314121
H           -1.59190904910463        3.22892354477494        5.97660220698856
O            0.19413660610652        3.74278364831283       -4.09988526557102
H            0.48672153841227        4.03920517007575       -3.22430197528559
H           -0.01304309968776        2.80634128995145       -4.00119715190245
O            2.30406844983800        2.52189580237009       -5.48115380985611
H            2.01606035604399        3.30896932563468       -4.97902581857710
H            1.54650841880487        2.30951409665705       -6.04712100389979
O           -1.90203265751657        4.14196881807185        1.10373739772137
H           -1.09762624833854        4.00467911464422        0.56384357873177
H           -2.09737915591305        3.29553719538894        1.52940706757565
O           -0.53585603318310        3.24212532851294        3.47111886327426
H           -0.37465279412527        3.95923658842784        2.84777441548336
H            0.17579221540377        3.23376822913979        4.12422527135790
37
 energy: -59.804768406966 gnorm: 0.073133240916 xtb: 6.7.1 (edcfbbe)
N            0.03311502178840       -0.13413469268567        2.28383122629420
C           -0.43702126772267       -0.24754040189493        0.87518907045494
C            0.36351662784498        0.67466823844600       -0.03633841272387
C           -0.14104723661394        0.60348560995482       -1.47660023456524
C            0.08116998227655       -0.80768143433907       -2.16453297718715
O            0.70476761981674       -1.67724937652708       -1.52144210451884
O           -0.26198413868700       -0.81850290440795       -3.37232550242390
H            1.03263131921844       -0.36805729842823        2.32591302988219
H           -0.08677902847347        0.82752249924964        2.64068393507543
H           -1.49718737372657       -0.00064064821726        0.82642340900596
H           -0.29160179414741       -1.26718478693693        0.51652065221370
H            1.40597980019841        0.34628957349808       -0.04907840321372
H            0.31162599522546        1.70563184399268        0.32042366594996
H           -1.20903374422233        0.79044455160479       -1.55388172382225
H            0.38912510714037        1.32099412551499       -2.10515011963033
H           -0.48386451206922       -0.77697606243705        2.89532144610413
O            1.98736522016781        2.46443858461536        5.11803659640125
H            1.62994796024816        2.62259599872021        6.01800688331884
H            2.53080884310929        3.28775669681310        4.91238429297058
O           -2.30093628173449        3.15332985969925       -5.41890166855316
H           -1.59052919170050        2.98717698547217       -6.05727499318418
H           -2.67384592775003        2.29494095074420       -5.17474614716376
O           -1.10227116444179        2.40503723193275        6.10737383897320
H           -1.68561544964110        1.75693880663522        6.50295452129885
H           -1.59930543411259        3.21079999655829        6.00275520402018
O            0.24404728608243        3.76007156705115       -4.05755026084631
H            0.51135683309076        4.07426943083705       -3.19426703814485
H           -0.01119197838963        2.84132463150526       -3.95429040861553
O            2.35324708925047        2.56386052760328       -5.52933579398330
H            1.99318497729163        3.28869058258695       -4.99653858511802
H            1.61109202961656        2.25604445640961       -6.07637554368813
O           -1.91148071666423        4.14096611178743        1.06026808212180
H           -1.10102065079205        4.01985840703100        0.58622153266473
H           -2.11464211300537        3.32762651671344        1.53499933336795
O           -0.49467270943332        3.15170848525287        3.36596728647857
H           -0.34839928513943        3.96351589032805        2.83223494442295
H            0.16816028609696        3.15850644531720        4.08077096636009
37
 energy: -59.808331163721 gnorm: 0.075760395847 xtb: 6.7.1 (edcfbbe)
N            0.02814243728759       -0.11782523146155        2.28888523334084
C           -0.43701171532148       -0.24058325314563        0.88237444138700
C            0.36772271906026        0.67592813028126       -0.03133396960229
C           -0.13480417127903        0.59963965854080       -1.47032752875328
C            0.10270643044619       -0.80038185225778       -2.16870123485808
O            0.68212231042713       -1.69064231967972       -1.51269622419909
O           -0.26902582264217       -0.83362195543943       -3.35858930379937
H            1.02857742124947       -0.34855738807507        2.33519405100743
H           -0.09818541929572        0.84631449550056        2.63961601130455
H           -1.49763570920870        0.00591326895796        0.82764628012166
H           -0.29344043111400       -1.26320874897128        0.53121191220202
H            1.41086448209205        0.35262173803375       -0.04321831704480
H            0.31474093984169        1.70752157959391        0.32330593507347
H           -1.20482905107011        0.78114240281202       -1.54640749107637
H            0.38773543649653        1.32039412123723       -2.10018050196859
H           -0.48891361755399       -0.76199208590959        2.89932049913238
O            2.04080779502052        2.49076790047742        5.14466486491921
H            1.60471711875999        2.63293498564453        5.98622480683907
H            2.49122009648740        3.28163087244661        4.87842943922277
O           -2.32008825032486        3.14613196208128       -5.41087492561592
H           -1.63697544135006        2.99859545063491       -6.06757419796736
H           -2.71156865175670        2.30625549799300       -5.19590900581915
O           -1.06686747022350        2.41427330582576        6.17304556990396
H           -1.67364206857768        1.75267483388652        6.52492076036772
H           -1.63902783447380        3.19953003026792        5.97734302062678
O            0.31196677130602        3.77009715769275       -4.06549971284536
H            0.51679815543220        4.09828022246845       -3.17600617857840
H           -0.03680777568756        2.85463764421557       -3.90845195114326
O            2.38158714693280        2.59479695001128       -5.56456101212162
H            1.97301852030916        3.26757350726810       -5.00052071480856
H            1.65031496824121        2.22970993277697       -6.08886598229976
O           -1.91349518361628        4.15639476601328        1.05250560544569
H           -1.11338959192399        4.01333287542770        0.57762239194823
H           -2.13026302527813        3.35404297662960        1.53718305273758
O           -0.45799707381934        3.06830319268886        3.31815611270701
H           -0.34256833547426        3.93203380381290        2.83092165792818
H            0.18220589059652        3.10586657172027        4.04879660628150
37
 energy: -59.801427120601 gnorm: 0.135711287493 xtb: 6.7.1 (edcfbbe)
N            0.02305079162304       -0.10035398526834        2.29501478934029
C           -0.43617844562171       -0.23622505962969        0.89275525591863
C            0.37257864158790        0.67033102187900       -0.02472408571800
C           -0.12274871087798        0.59141559041854       -1.46070877263300
C            0.19126659039580       -0.75723392445228       -2.19769334903717
O            0.61987332212574       -1.70935516559155       -1.50812010304564
O           -0.30631309818858       -0.86611177139859       -3.33406692794834
H            1.02118574742136       -0.33031194491896        2.34849400525996
H           -0.10902237214712        0.86604517210443        2.63534962616190
H           -1.49438615292097        0.01381596644005        0.82975204715054
H           -0.30051711052992       -1.26171361227045        0.54885275477515
H            1.41699373313383        0.36265452425544       -0.03054925072053
H            0.30585617453747        1.70108923363654        0.32170830175877
H           -1.19887409587525        0.76574528430881       -1.53625832847697
H            0.37953642712056        1.32767052837228       -2.08431008711563
H           -0.49487035480799       -0.74216913637597        2.90352837847373
O            2.01714866684727        2.50691301089266        5.12027089219278
H            1.59854636593604        2.64103929692499        5.96370697312793
H            2.50313463125267        3.29459245920731        4.88501698345824
O           -2.34087220557959        3.13227934806994       -5.40365199140294
H           -1.67213400649804        3.00745857201948       -6.06723987897721
H           -2.72997149972182        2.29189204980716       -5.21748159911586
O           -1.08688847647138        2.42143040062930        6.17152030341718
H           -1.66466366409532        1.74363572140701        6.52329053356964
H           -1.60793138298354        3.20674106697743        6.03603402135751
O            0.30280423440440        3.77031312080526       -4.03544929746602
H            0.51345556433729        4.12785287865508       -3.16926236941533
H            0.01297667162776        2.87129000670928       -3.91932769328881
O            2.39333263320258        2.61061402393505       -5.58055721658783
H            1.94224671476291        3.25900346926682       -5.00836387951070
H            1.68214112235870        2.21783979954769       -6.09330193814149
O           -1.89158225880903        4.21454296322966        1.11393026539743
H           -1.13618608370204        3.96497792545421        0.50787773123196
H           -2.14934194653809        3.37944110444300        1.53182597161975
O           -0.44377537377114        3.09201397102823        3.33044553060233
H           -0.32705534729338        3.79185862836733        2.78563638690053
H            0.22589655375198        3.05950446111534        3.99370601688276
37
 energy: -59.813058182934 gnorm: 0.065223063169 xtb: 6.7.1 (edcfbbe)
N            0.02106474938850       -0.09255498591399        2.29891430778849
C           -0.43529585514915       -0.23342304572493        0.89476419594210
C            0.37353585080144        0.67162435454889       -0.02444712658069
C           -0.12407560593737        0.59111927310047       -1.46125591727017
C            0.13529076703850       -0.78305264380426       -2.17424436154596
O            0.64886335025642       -1.70088960799819       -1.51076305568383
O           -0.28749731959519       -0.85556585573336       -3.34205536497687
H            1.01977303118012       -0.32079963749496        2.35493156907618
H           -0.11195681758935        0.87555397038612        2.63615466283367
H           -1.49321265100689        0.01774524068989        0.82905949282609
H           -0.29899383950958       -1.25995044769876        0.55295256869152
H            1.41783267884890        0.35860132758104       -0.02676124963838
H            0.30869313955770        1.70378135371529        0.32081392216678
H           -1.19746773466370        0.76991450750740       -1.53323217801889
H            0.38355001717243        1.32368704643968       -2.08786258086941
H           -0.49697281450490       -0.73269511507985        2.90947383698224
O            2.00207999604596        2.51384790828457        5.10009134160762
H            1.59941887274306        2.63482790596555        5.96442968447418
H            2.50500197282197        3.30695701431947        4.88914058852741
O           -2.36868089353979        3.14051013226405       -5.40919086468296
H           -1.67489501714937        3.02785741802722       -6.06702996091816
H           -2.72758737742000        2.26755341776821       -5.21531979303882
O           -1.08671048678364        2.42180680943630        6.17575552752117
H           -1.66410787500901        1.73792439958497        6.52318578317017
H           -1.59893324091919        3.20270398888215        6.04931296184806
O            0.31108307370424        3.77110524969035       -4.03432499743003
H            0.51199521525552        4.13700786579255       -3.16626341826927
H            0.02060522162914        2.87692406297631       -3.91504457078279
O            2.39973734432821        2.61155055327263       -5.57500213964246
H            1.92891747092664        3.26597084272015       -5.01419984131159
H            1.69951383505921        2.20847062390084       -6.10953638746287
O           -1.89706698297243        4.21197680706451        1.10258780474761
H           -1.13811365941377        3.97262533073073        0.51420396207830
H           -2.15412832080737        3.38549338308771        1.53588622973873
O           -0.41507338786351        2.98662862009242        3.27138351231071
H           -0.32368925480375        3.86736825345385        2.80657456401283
H            0.21621454787439        3.01832067816650        4.00456729177440
37
 energy: -59.792000307523 gnorm: 0.180028572143 xtb: 6.7.1 (edcfbbe)
N            0.01693996161749       -0.07736545002859        2.30521328005132
C           -0.43447244091446       -0.22804823122323        0.89851617116628
C            0.37498557848657        0.67469872302675       -0.02407737485428
C           -0.12700177232163        0.59116412344114       -1.46275644962604
C            0.04187188616570       -0.82623401620059       -2.13468586003444
O            0.69516861179099       -1.69154798205196       -1.50881948137684
O           -0.25350601692674       -0.83921963305994       -3.35560919073158
H            1.01730108693518       -0.30242944768693        2.36568225307228
H           -0.11853511352158        0.89541723182093        2.63634675061354
H           -1.49291896929482        0.02370097674675        0.82865491278725
H           -0.29620577090434       -1.25738019145491        0.56241289949154
H            1.41935085422778        0.35175692009057       -0.02156103031985
H            0.31587867521867        1.70958641479551        0.32099882626897
H           -1.19618493872201        0.77700904147846       -1.52883367699753
H            0.39112829083582        1.31663222974345       -2.09462994672570
H           -0.50131775931959       -0.71541926933225        2.91959817144788
O            1.92937634988867        2.52079078013203        5.03601428713755
H            1.61188768811016        2.62471359222826        5.97029989887500
H            2.54573833915269        3.33327049890291        4.91916073996534
O           -2.38480509376969        3.14730248871276       -5.40725153650557
H           -1.69026938461857        3.04334483300945       -6.07478390139474
H           -2.74109060162608        2.26383786888419       -5.21860173846748
O           -1.00915776899444        2.44681718038575        6.26668385579539
H           -1.66365323896063        1.73853840990830        6.52546875642079
H           -1.67950760169464        3.19693098173606        5.97992174493024
O            0.41283289482701        3.78131541535395       -4.08964744778797
H            0.51527719155109        4.14697661727709       -3.16187746125350
H           -0.06535434710909        2.87476897820690       -3.84844192382579
O            2.39736087328274        2.60756952141259       -5.57032009033818
H            1.92627854611754        3.26399370292290       -5.02272549268329
H            1.71055435897381        2.21085470706570       -6.12555161021173
O           -1.93166328794949        4.15704371093859        1.00556671313887
H           -1.12672315250248        4.04089611590126        0.60168742330824
H           -2.14464860631428        3.39251728722598        1.54454349916819
O           -0.39943724384154        2.97840421081021        3.27560187320008
H           -0.30684531182793        3.75381150483035        2.76714706673852
H            0.25007923394632        2.97450715405122        3.98830508955182
37
 energy: -59.815814184183 gnorm: 0.064979385741 xtb: 6.7.1 (edcfbbe)
N            0.01432203317801       -0.07041027580459        2.30809836157922
C           -0.43556290009149       -0.22563484018578        0.90338468708415
C            0.37446109903472        0.67317236629076       -0.02140346876277
C           -0.12912378885961        0.58723371357096       -1.45728842846161