34
 energy: -56.611636159513 gnorm: 0.178133053831 xtb: 6.7.1 (edcfbbe)
H            1.51131700000000       -0.30682800000000       -0.55501400000000
C            0.42356400000000       -0.53272100000000       -0.60971700000000
H            0.15351800000000        0.48284000000000       -2.37712700000000
H            0.30622500000000       -1.51992900000000       -1.10801900000000
N           -0.26687200000000        0.47309100000000       -1.42055200000000
H            0.31243500000000       -1.51306200000000        1.31258500000000
C           -0.16516600000000       -0.64664900000000        0.80679900000000
O            0.75046400000000        1.63132300000000        1.24106600000000
C            0.05694300000000        0.56251400000000        1.67849900000000
H           -0.17036900000000        1.42768900000000       -1.01141000000000
O           -0.37805100000000        0.56237000000000        2.81853100000000
H           -1.27994500000000        0.22829700000000       -1.50380900000000
H           -1.25406300000000       -0.84893600000000        0.72816900000000
O           -2.63309500000000       -3.47253400000000        0.05539900000000
H           -3.03730700000000       -2.69804100000000        0.52164200000000
H           -1.83281400000000       -3.69631400000000        0.59399600000000
O           -0.57696700000000        3.57123200000000       -2.00531800000000
H            0.18491800000000        3.92359600000000       -2.53065700000000
H           -1.01241600000000        4.37695600000000       -1.62874600000000
O            2.33144000000000        0.03412900000000       -3.55099600000000
H            1.94767500000000        0.93092000000000       -3.72158600000000
H            1.89873400000000       -0.55249500000000       -4.22125800000000
O            0.19153900000000       -4.21410200000000        2.98995500000000
H           -0.71399200000000       -3.91240200000000        2.72613500000000
H            0.28910500000000       -3.91463200000000        3.92879000000000
O           -1.51924000000000        4.51454600000000        0.57422500000000
H           -2.19403600000000        3.80924100000000        0.40747600000000
H           -1.28585900000000        4.41333200000000        1.53125300000000
O           -2.00217800000000        2.74536700000000        4.46714900000000
H           -2.25477200000000        3.67713600000000        4.24666200000000
H           -2.74445800000000        2.19590100000000        4.10976900000000
O            2.03734900000000       -2.64250700000000        2.62087800000000
H            2.51993700000000       -2.42803900000000        1.78318900000000
H            2.35208900000000       -1.96349000000000        3.26932800000000
34
 energy: -56.634805886059 gnorm: 0.089269566987 xtb: 6.7.1 (edcfbbe)
H            1.49320150793461       -0.30028278976740       -0.55438473898812
C            0.42663000075575       -0.54581586191439       -0.61665180091911
H            0.15703819344320        0.49896161740404       -2.36548256268745
H            0.31541367757649       -1.51837483196752       -1.11097011820682
N           -0.26009342695738        0.47514161845726       -1.42217992676730
H            0.30110507949484       -1.49809245768511        1.31194706043134
C           -0.15499605689672       -0.64540854113611        0.79177656197641
O            0.71395041397254        1.58220404574003        1.19720788412596
C            0.07439210636775        0.56658697825843        1.68293643738077
H           -0.15872102502905        1.41534450677190       -0.99801603879493
O           -0.38904905499724        0.56445586567906        2.83103026712666
H           -1.26318112823861        0.24829633435475       -1.50592496945036
H           -1.23464476972974       -0.83646777360353        0.74171499013933
O           -2.61939540625979       -3.45145519575780        0.05034952409629
H           -3.03704011189401       -2.71775492583079        0.53251693790336
H           -1.84253055218759       -3.69769744912048        0.57950447759402
O           -0.58309481812661        3.56526920204773       -2.04171120523124
H            0.18145363732044        3.93221951241968       -2.51523185032311
H           -0.98861740765128        4.33437049209295       -1.60119291892354
O            2.26579135416792        0.02553506650898       -3.51495882497564
H            1.97745958944773        0.92944536948246       -3.75261521708189
H            1.92038013917274       -0.54023419304126       -4.23273517321810
O            0.12970450631323       -4.27524407905863        3.00911928020076
H           -0.73344185765463       -3.90648992290397        2.75588606217209
H            0.29212699076747       -3.92394596258149        3.90382958632469
O           -1.55745161031382        4.53607128549101        0.58264374019301
H           -2.18783484048448        3.81450964923671        0.41914302555046
H           -1.25810937361149        4.40024200488877        1.49871238672979
O           -2.01798393531020        2.75867157221137        4.47046827910477
H           -2.27231177347266        3.67202362406559        4.25804158072441
H           -2.73476710231879        2.20256873392384        4.12273886907142
O            2.05765361414084       -2.59695394510733        2.60937143838392
H            2.55624029820412       -2.42186454081901        1.79443185980232
H            2.37637514205457       -1.94803600874002        3.25597109653599
34
 energy: -56.642700720705 gnorm: 0.035096584352 xtb: 6.7.1 (edcfbbe)
H            1.48384260816854       -0.29067415115203       -0.54870521052168
C            0.43235720581778       -0.55466469760777       -0.61752824232891
H            0.17916233779832        0.51926184872111       -2.35320554151903
H            0.32623183421035       -1.51330373276890       -1.11561261251964
N           -0.24711931487013        0.48023990935558       -1.42403264165650
H            0.29244133371302       -1.48599301596757        1.31461272409797
C           -0.15948142831959       -0.65265217435307        0.77548735018427
O            0.70816680199608        1.53177967648379        1.16717604414595
C            0.04467606147504        0.60353980445551        1.65167397303085
H           -0.13660106633004        1.40265141855811       -0.97432417081003
O           -0.37931202140158        0.54530229517034        2.82761955173688
H           -1.24388233811540        0.27341104184241       -1.51293267064283
H           -1.23100242145082       -0.84013061787101        0.74232462679039
O           -2.60552352147923       -3.42845270751725        0.04339722025758
H           -3.04181086924064       -2.73625028555359        0.54655177751444
H           -1.84619446483527       -3.70488697503561        0.55959298313724
O           -0.56411940213547        3.54883430979535       -2.04363962094679
H            0.17099816543607        3.94245711748350       -2.51276889951040
H           -0.97695494890552        4.27557861060401       -1.56506343577460
O            2.21154062180881        0.03045752308898       -3.50449782728387
H            1.98745002531879        0.93029416163632       -3.77639513707672
H            1.92306691613231       -0.53624322346391       -4.22860073743202
O            0.08128830704727       -4.30429410388142        3.01729120423789
H           -0.76316458692140       -3.91165017411344        2.79502240440033
H            0.29879905302421       -3.96161009123004        3.88830534211546
O           -1.57458851076696        4.53382281210456        0.57114669083505
H           -2.20676513111776        3.82899072658849        0.43188778767700
H           -1.22542192113386        4.39964437874089        1.45608204057947
O           -2.04148784464919        2.78113739073255        4.48443415592189
H           -2.30605601702788        3.67903860632977        4.27887330661044
H           -2.72593919092470        2.20299496831165        4.14308326459758
O            2.07218017167837       -2.54167166640612        2.59883569777525
H            2.60237410069400       -2.42633524850762        1.80484463261254
H            2.40650145530633       -1.92282473457389        3.24634996976505
34
 energy: -56.646534585122 gnorm: 0.076145067926 xtb: 6.7.1 (edcfbbe)
H            1.48531881391858       -0.29674761651817       -0.54051794207938
C            0.43598996920981       -0.56489891489162       -0.61595091146704
H            0.21003616262165        0.53800893022521       -2.34219031462573
H            0.33063988601069       -1.51513399154412       -1.12819805485361
N           -0.23030462100266        0.48677915211016       -1.42028190843446
H            0.28746935651466       -1.50220044486269        1.31353285069162
C           -0.15984879186733       -0.67108427485946        0.77213345664183
O            0.64364361067057        1.55606505030915        1.10186149420214
C            0.09612357028330        0.59554110423621        1.64969439593940
H           -0.10751411813976        1.39599401643069       -0.94743209622630
O           -0.39838437452607        0.55648955730126        2.80131176936831
H           -1.22870829467795        0.29781599387877       -1.51900606232819
H           -1.23440380163697       -0.83961646125023        0.74593400666908
O           -2.58146272161876       -3.38833281584649        0.01226000278985
H           -3.05660614368341       -2.75944116770722        0.57786224565558
H           -1.84612799687591       -3.72309786782316        0.53524092818324
O           -0.56178583112209        3.52262017351496       -2.07493560902237
H            0.17608062424338        3.96459168201090       -2.50359810901096
H           -0.95949106323150        4.20171662822556       -1.49251994076464
O            2.10281274432326        0.02286852488017       -3.44369035614379
H            2.01966432723223        0.94713192840524       -3.82873238420124
H            1.94589460366152       -0.53259161753172       -4.24913374547716
O            0.01720027752985       -4.36488783250849        3.02718445269366
H           -0.80635118022316       -3.88940074755273        2.84513186166447
H            0.33622199690491       -3.98809706152331        3.86881258285951
O           -1.61416673068707        4.55347019436170        0.55299980812372
H           -2.23371257759265        3.83054847211136        0.44702262012798
H           -1.16031771490674        4.39256002326480        1.40253774988118
O           -2.05913011290599        2.80893580218556        4.50251057777916
H           -2.35932245121219        3.69746709022876        4.30425825938022
H           -2.71566262626371        2.19383989063489        4.16719200775586
O            2.06595962994704       -2.48384730977184        2.58554940583777
H            2.66009693961551       -2.44498638508639        1.81508379115161
H            2.44580063948660       -1.90028070503832        3.24535916723966
34
 energy: -56.644207157347 gnorm: 0.095004271480 xtb: 6.7.1 (edcfbbe)
H            1.48847271227643       -0.30766846696551       -0.53143370782234
C            0.43817381149542       -0.57755335266239       -0.61629362817989
H            0.24773391116416        0.55166236171607       -2.33326635855323
H            0.33721081206917       -1.52250837311797       -1.14435457284190
N           -0.21167597962135        0.49056195604734       -1.41764943356353
H            0.28696030872411       -1.51265488053300        1.31704810215193
C           -0.16176776021406       -0.68638476001136        0.77073366510329
O            0.58091582963938        1.59242148284400        1.03259906375100
C            0.12513071529295        0.59275769453824        1.64453034289401
H           -0.07721966950605        1.38812725893346       -0.92209480763634
O           -0.39861155605540        0.56874183856197        2.78405894483050
H           -1.21360287997452        0.31828309920961       -1.52988770485440
H           -1.23878577959639       -0.84440079614223        0.74579040174915
O           -2.56553012951585       -3.35652832142426       -0.01232067028298
H           -3.06392265113275       -2.77442049914254        0.59799398832997
H           -1.84678223133051       -3.74079468309585        0.51295077889547
O           -0.55017872742470        3.49769023868009       -2.07897356929064
H            0.17999277846842        3.98026891254975       -2.49153837217363
H           -0.94964971070085        4.13778535555557       -1.44048411536895
O            2.16830207564645        0.06728864836594       -3.54707350337626
H            1.94492287399958        0.93380445635785       -3.77911270498080
H            1.88514958005477       -0.54198697378392       -4.19970378284397
O           -0.03541982390234       -4.41259299716922        3.03665019666933
H           -0.84244853102589       -3.87730883036063        2.88626516755289
H            0.35633054932118       -4.02128657833637        3.85458677170270
O           -1.62725517828314        4.55589189686168        0.52826660667446
H           -2.25971143246211        3.83342185625476        0.45751290778931
H           -1.12197531943854        4.39853712731301        1.35454552063637
O           -2.07306489686788        2.83691116526542        4.52158408706039
H           -2.42037902166773        3.71621298200685        4.32997785928796
H           -2.70187058387768        2.18112153759365        4.19190723487259
O            2.07903210422838       -2.44138476523349        2.57734717192156
H            2.70024806848820       -2.44805040609097        1.82116813616749
H            2.48692773172783       -1.87816618458578        3.24595598373011
34
 energy: -56.651504746290 gnorm: 0.040715530922 xtb: 6.7.1 (edcfbbe)
H            1.49510277623964       -0.31958277336061       -0.52752270620935
C            0.44009052558861       -0.58301857234766       -0.62113196045077
H            0.26567617992131        0.55654162007715       -2.33171404996886
H            0.34150755058860       -1.53098027582393       -1.15261249219683
N           -0.20158925571297        0.49070873512393       -1.41649490537073
H            0.29381908260028       -1.49853142915949        1.32607892315125
C           -0.16692826077274       -0.68162385508946        0.76738330190900
O            0.59869709735655        1.59284869866698        1.03356179354413
C            0.04070624683995        0.62559323319485        1.61199505012918
H           -0.06462018320461        1.38517199386043       -0.90954256640543
O           -0.35958546155704        0.56355332222272        2.79212909174361
H           -1.20644411145059        0.32194433207133       -1.53692659474165
H           -1.24046504351893       -0.85922300302022        0.73101905413951
O           -2.57951215930391       -3.37042706566611        0.00003277646416
H           -3.04816726553279       -2.76465610806956        0.58101356285705
H           -1.84320816498554       -3.73901615968982        0.50415878494738
O           -0.52788480084279        3.48757341593423       -2.02932751569888
H            0.17269357428199        3.97089813254662       -2.48547259075926
H           -0.95665675422286        4.12763480961107       -1.45359169638774
O            2.12172977825261        0.06788065445784       -3.51911952723850
H            1.95401869769765        0.95212949069211       -3.81054959455393
H            1.88518210221547       -0.54763230971365       -4.20171144403563
O           -0.01965573123977       -4.37413179946061        3.03337573709276
H           -0.84568605364234       -3.90906313683238        2.89117156261623
H            0.32262926932774       -4.05522176492477        3.86642633206092
O           -1.59372098082546        4.52896168046680        0.50406141795595
H           -2.27287673999506        3.84040284563828        0.45399598115250
H           -1.14481416398950        4.41418393527043        1.33787262846060
O           -2.07549032346057        2.84703965215897        4.53344106265183
H           -2.45042687630445        3.72222257464708        4.34377689322087
H           -2.69689492231406        2.17950076001030        4.20445249219340
O            2.11557215669574       -2.44927537835694        2.58352760394324
H            2.69180150713759       -2.42835994705530        1.81888360665644
H            2.50105270812997       -1.86624730808034        3.24464598712968
34
 energy: -56.653147083058 gnorm: 0.076961479842 xtb: 6.7.1 (edcfbbe)
H            1.50732289522242       -0.34222123330126       -0.52653805541878
C            0.45099438318464       -0.59069018068364       -0.62525040361311
H            0.29928329935764        0.56403753749942       -2.32537926329259
H            0.34271188476367       -1.53598100928705       -1.15513361667407
N           -0.17711069544478        0.49201552385773       -1.41652201279139
H            0.29620155809585       -1.48714867802312        1.32860005091436
C           -0.16542498997849       -0.67896543619304        0.75785700517845
O            0.56275776893420        1.59971460576179        1.02196946466407
C           -0.00054033534731        0.64447762789483        1.58675794236238
H           -0.03428998107319        1.37750211874102       -0.89115851414567
O           -0.34948859067878        0.56514436563319        2.78330965991788
H           -1.18107695221060        0.33410556536159       -1.54662220720608
H           -1.23579988340455       -0.86805693194755        0.71577324283565
O           -2.55964844503786       -3.34377383364014       -0.02436400949856
H           -3.05871981000087       -2.78600770304095        0.59682078817559
H           -1.84659103215212       -3.74559731891717        0.49043869854419
O           -0.52613275072823        3.46719629942781       -2.04410207806968
H            0.17160696970191        3.98428824162857       -2.46987876149661
H           -0.92943492641524        4.07165951316674       -1.37993711302778
O            2.01334231760589        0.06841362663357       -3.44852974363546
H            1.97047138488875        0.98094007972390       -3.87634539149045
H            1.89586369840782       -0.54850924247381       -4.20945543336218
O           -0.06399141562916       -4.40827786211710        3.02860854056973
H           -0.87868181838566       -3.87939938720002        2.94180132181639
H            0.36969573030402       -4.08033436010277        3.84311695741311
O           -1.63092896173756        4.54804023973568        0.47321982774243
H           -2.29536611226865        3.84418602015074        0.46338244441889
H           -1.08198934507728        4.40020240481612        1.27528797121860
O           -2.09312154731334        2.86076319158365        4.55189170514681
H           -2.48523206420773        3.72591327283376        4.36958962913017
H           -2.70154339440976        2.18982361352842        4.22375876937344
O            2.10470692907300       -2.41461735701494        2.58096085199168
H            2.73013389202141       -2.45975287203844        1.83250809360827
H            2.52567233993746       -1.85129144199742        3.24084963870297
34
 energy: -56.657323427710 gnorm: 0.047847256657 xtb: 6.7.1 (edcfbbe)
H            1.51717727906969       -0.36205703379008       -0.52505253277313
C            0.45993014646377       -0.59819980848690       -0.62655604283977
H            0.33409539655678        0.57147089380978       -2.31932496820785
H            0.34194696787512       -1.53945323314507       -1.15799295380682
N           -0.15349805753922        0.49424402866090       -1.41714700726637
H            0.29274370408531       -1.48839351908200        1.32747920728600
C           -0.16188805561024       -0.68289507780882        0.75243440647092
O            0.48908379804853        1.62921159203899        0.98507213906492
C            0.03820337747643        0.63001828024093        1.59200081155805
H           -0.00509549158472        1.37016031053444       -0.87490315048960
O           -0.37306228653257        0.58099898526171        2.76366639505100
H           -1.15656063355221        0.34808679860942       -1.55705462709560
H           -1.23330670780354       -0.86745011623211        0.70742324475854
O           -2.56618701008284       -3.35289958128900       -0.01636115820629
H           -3.04881205190821       -2.78426508891755        0.58301297442142
H           -1.83966419110733       -3.74230139167353        0.47317698882399
O           -0.50354329028740        3.45118748804453       -1.99944668593549
H            0.16262294278029        3.97090238506076       -2.45779441755474
H           -0.92309892726871        4.04669211928977       -1.36417818078216
O            1.98377214724189        0.08436416495349       -3.45795038995237
H            1.93880332486611        0.98520351590118       -3.86976849135785
H            1.87933770374838       -0.53783263294404       -4.21254739761322
O           -0.07192565216117       -4.40248128192539        3.03263439112548
H           -0.88898711240900       -3.90446086178624        2.95373074085382
H            0.34805263796184       -4.10704330469581        3.84585615060621
O           -1.59581478246083        4.51722654376780        0.43989981150544
H           -2.31226485077868        3.86647487660557        0.44908963651997
H           -1.10084021872614        4.40911651732350        1.24733862405289
O           -2.10927509788453        2.87585815541550        4.57116224654128
H           -2.52093241451357        3.73131429016078        4.39601568120241
H           -2.70203807615133        2.19262055615734        4.24563480154342
O            2.14911676107345       -2.41294717196848        2.58954898075334
H            2.73790775162602       -2.44756290228409        1.83317529421654
H            2.53965296948467       -1.82710949580629        3.23501147752910
34
 energy: -56.658401968717 gnorm: 0.058895555699 xtb: 6.7.1 (edcfbbe)
H            1.53013787241121       -0.38450472969588       -0.52130927839153
C            0.46861038029478       -0.60575024038967       -0.62827292272786
H            0.38038670051793        0.57611201285132       -2.31602606374429
H            0.34296190229411       -1.54721575382249       -1.16075728812196
N           -0.12503108994189        0.49482054894490       -1.42099827078177
H            0.29036283879765       -1.47500109969133        1.33714807975420
C           -0.16626063594539       -0.68014662833243        0.74700061296937
O            0.45641321341648        1.64171389734740        0.97011258282936
C            0.01612104137178        0.63972523653784        1.57913444318886
H            0.02257907340694        1.36172090758524       -0.85928812922392
O           -0.37381868757645        0.58725764975624        2.75792269902284
H           -1.12738479576053        0.35819060926187       -1.57605544427238
H           -1.23606668502684       -0.87550293663254        0.68729835152423
O           -2.54054812529788       -3.31585202819762       -0.05089051373105
H           -3.05848415148843       -2.80650260762213        0.60527882763693
H           -1.84284000947393       -3.76223754826425        0.45561001285485
O           -0.49796584878966        3.42923734776334       -1.99473807395812
H            0.16427188447139        3.97415101818886       -2.43496893341481
H           -0.89867037405211        3.99863719519513       -1.31030861301293
O            1.99606487343869        0.10797312165171       -3.51690156021080
H            1.89499180234714        0.98463721370164       -3.82643707344185
H            1.81479835567634       -0.51445600895434       -4.20338755637611
O           -0.09122281411819       -4.40509233340555        3.03417876570521
H           -0.90762471933519       -3.91423558354967        2.97728704126946
H            0.33611091768385       -4.13511477799609        3.84002430328039
O           -1.63034379928096        4.54424991590817        0.41176125479890
H           -2.31977902030728        3.87197238889314        0.43751334030146
H           -1.05255980320727        4.38271657691681        1.18668303696440
O           -2.12544136169490        2.89790361530524        4.59582279187764
H           -2.57484776905360        3.74029300008346        4.42622870067822
H           -2.69508079531904        2.18767990538497        4.27028142809309
O            2.15293608370672       -2.38358473303879        2.58792736133494
H            2.76731596302479       -2.46325051459720        1.84356322469301
H            2.57555958280498       -1.81274563708578        3.23684886263630
34
 energy: -56.660931612965 gnorm: 0.064663913768 xtb: 6.7.1 (edcfbbe)
H            1.54408608648778       -0.41050713828224       -0.51804954386628
C            0.47864545022249       -0.61473225041407       -0.62929586314594
H            0.42978003095712        0.57785860116250       -2.31118406414836
H            0.34290668716203       -1.55577000932469       -1.16177103708012
N           -0.09340983503822        0.49439977005813       -1.42413734573367
H            0.29160553328687       -1.46478403464803        1.34588326624631
C           -0.16622969518005       -0.67879434312548        0.74298831173154
O            0.40747016816890        1.66107511364229        0.94463461131693
C           -0.01878611346251        0.65511038342912        1.55886953091272
H            0.05332930500272        1.35276219001051       -0.84449041717176
O           -0.36543968649860        0.59390931805254        2.75318096803438
H           -1.09470155550798        0.36853183723918       -1.59528399217886
H           -1.23402520939291       -0.88482717745435        0.67228399054693
O           -2.55589229022772       -3.33591957715954       -0.03560159217884
H           -3.04023058366045       -2.79738020551638        0.57754566569946
H           -1.83362525141315       -3.75642545221796        0.43534878866858
O           -0.48744802732238        3.40885929069607       -1.97993135958427
H            0.16485271005707        3.97640638683024       -2.40995161863681
H           -0.87835876222300        3.95360537158528       -1.26327005527564
O            1.92458867080879        0.12231692321107       -3.50008061751654
H            1.89391902762413        1.00816343954119       -3.85088050175981
H            1.78038475053617       -0.49783988136945       -4.20069962481174
O           -0.15001285906026       -4.45925390499147        3.02811046332516
H           -0.94577567803588       -3.86760271099079        3.03524719182759
H            0.39652942793399       -4.15631521393083        3.80414178051163
O           -1.58964484472319        4.51687688345578        0.37028530795807
H           -2.33096915824055        3.89639011076729        0.41721842592785
H           -1.06791564259475        4.38773666936946        1.14876852657155
O           -2.14696613255505        2.91447610371105        4.62588970243459
H           -2.61923097029482        3.74480332302488        4.45937829844701
H           -2.69746286808602        2.19084956357945        4.29620799970660
O            2.16426879131292       -2.36840178267080        2.58661284876803
H            2.78876147396566       -2.47315438750974        1.85232021410857
H            2.60064904998508       -1.80462420975825        3.23699774035022
34
 energy: -56.657289318569 gnorm: 0.103312658811 xtb: 6.7.1 (edcfbbe)
H            1.55772556342882       -0.43882648806303       -0.51787636664205
C            0.48883088366009       -0.62157313991425       -0.62900954804871
H            0.47563059895815        0.57262130444286       -2.30577416933927
H            0.33825357954384       -1.56225130331058       -1.15741766985651
N           -0.06242914940809        0.49258967764426       -1.42679568093217
H            0.29095855179063       -1.46042878202495        1.35026032472979
C           -0.16034017635526       -0.67643792118790        0.74168095064302
O            0.34487570633470        1.68453795332715        0.92145668745937
C           -0.04235946648106        0.66147159635272        1.54404193273444
H            0.07812829601760        1.34462109769355       -0.83445542058510
O           -0.35980039751457        0.60412025679971        2.74767206548063
H           -1.06044115793659        0.37552181995763       -1.61291224784742
H           -1.22733112555206       -0.88756854185549        0.66330225806968
O           -2.52865568937692       -3.30442946418165       -0.06361774348226
H           -3.05266052097753       -2.82582949843834        0.59597127913796
H           -1.83796587706939       -3.76736786542952        0.42432345366516
O           -0.47122722609330        3.39398502868226       -1.95035562297530
H            0.16241881152072        3.96628474632749       -2.38815924544850
H           -0.86483615442989        3.92576580392596       -1.25251036209761
O            1.78432056878063        0.13234541370592       -3.41422240386783
H            1.91706493645952        1.04652986153668       -3.92372838865613
H            1.79965153944142       -0.48645016695059       -4.21768969671353
O           -0.14402991030002       -4.44756617746831        3.04095842046421
H           -0.93772741155735       -3.91544491313284        3.02094619833220
H            0.34279242930343       -4.15653681475740        3.81077087398188
O           -1.61018924644246        4.52953410941993        0.34349637628309
H           -2.34208430930324        3.90677222963201        0.41163073383761
H           -1.02784640542878        4.35921947641511        1.09371293177592
O           -2.17005092680306        2.92274653766966        4.65501683222061
H           -2.64343486203937        3.74132176333522        4.49062382684506
H           -2.70970252036933        2.20747588951246        4.31947919441208
O            2.20141713041338       -2.36593288624426        2.59308856180540
H            2.80183270902828       -2.46714304318674        1.86042582496636
H            2.61486322875008       -1.78587856023185        3.23295183965396
34