34
 energy: -56.605325180788 gnorm: 0.176690127286 xtb: 6.7.1 (edcfbbe)
H            1.51131700000000       -0.30682800000000       -0.55501400000000
C            0.42356400000000       -0.53272100000000       -0.60971700000000
H            0.15351800000000        0.48284000000000       -2.37712700000000
H            0.30622500000000       -1.51992900000000       -1.10801900000000
N           -0.26687200000000        0.47309100000000       -1.42055200000000
H            0.31243500000000       -1.51306200000000        1.31258500000000
C           -0.16516600000000       -0.64664900000000        0.80679900000000
O            0.75046400000000        1.63132300000000        1.24106600000000
C            0.05694300000000        0.56251400000000        1.67849900000000
H           -0.17036900000000        1.42768900000000       -1.01141000000000
O           -0.37805100000000        0.56237000000000        2.81853100000000
H           -1.27994500000000        0.22829700000000       -1.50380900000000
H           -1.25406300000000       -0.84893600000000        0.72816900000000
O           -2.58591600000000       -3.13245500000000        2.15140400000000
H           -2.42892800000000       -2.16251600000000        2.02817900000000
H           -1.68210000000000       -3.51545300000000        2.28195200000000
O           -1.68416600000000        3.04060000000000        3.37068400000000
H           -1.98778700000000        3.27354500000000        2.45736000000000
H           -2.27803200000000        2.29819100000000        3.64775100000000
O           -2.05330000000000        2.41919200000000       -3.38088100000000
H           -1.76125900000000        3.15816400000000       -3.97184900000000
H           -2.50117300000000        1.77800200000000       -3.98825100000000
O           -2.32849800000000       -2.50360400000000        5.20125700000000
H           -2.20041900000000       -2.95894600000000        4.33127500000000
H           -1.55149600000000       -2.78648400000000        5.74610500000000
O           -0.58009500000000       -1.37105800000000       -4.95981300000000
H           -1.36591800000000       -0.76861400000000       -4.97216600000000
H           -0.82779000000000       -2.08892700000000       -4.32426300000000
O            0.95164500000000        2.19259000000000       -5.11655700000000
H            1.00948600000000        3.17261500000000       -5.24623500000000
H            0.42583200000000        1.87041000000000       -5.89137000000000
O           -1.80790200000000       -3.60452900000000       -0.88493900000000
H           -2.30645500000000       -3.09316000000000       -1.57091100000000
H           -0.85750600000000       -3.50861200000000       -1.14601700000000
34
 energy: -56.627710944809 gnorm: 0.090259068406 xtb: 6.7.1 (edcfbbe)
H            1.49432579961573       -0.30154102627978       -0.55100062165050
C            0.42772628718978       -0.54569940582293       -0.62219864126174
H            0.14551131758743        0.51011126380162       -2.37543714149623
H            0.31652670354831       -1.51771089907055       -1.11650332832575
N           -0.26033096677401        0.47535201512901       -1.42637502059589
H            0.30471397341740       -1.49734631074470        1.30422954384611
C           -0.15491491946185       -0.64703926387998        0.78628315913842
O            0.71239286226556        1.57897716167412        1.18765699194857
C            0.07768846654547        0.56279341116926        1.68017286451772
H           -0.15444658430289        1.40793509744780       -0.99207448234354
O           -0.37802485256439        0.55276717971511        2.82989534523752
H           -1.26611489382097        0.25781304047819       -1.50164746667050
H           -1.23478065287222       -0.83926294697779        0.73787991464750
O           -2.57292261084091       -3.12635351362756        2.19574129196051
H           -2.42884551042399       -2.17656609457131        2.04764205213260
H           -1.68018577476563       -3.51203116454929        2.24608331912562
O           -1.73523636109523        3.08883844382267        3.38988780158267
H           -1.98724141185680        3.26612759138416        2.46599974702706
H           -2.24885670870674        2.29740663481007        3.64083326719145
O           -2.02739305206654        2.39064084634169       -3.39035178549482
H           -1.77508838574822        3.15004800877679       -3.94159926254837
H           -2.51929055902810        1.80336866508266       -3.98964014823487
O           -2.32282889985759       -2.50457395167769        5.20615234085316
H           -2.23583875571455       -2.95451905547415        4.34527275479328
H           -1.55355168789397       -2.78764635773881        5.72754172898076
O           -0.57189861366050       -1.34636150983752       -4.92257703903006
H           -1.37122121299223       -0.79480771332933       -4.98162459099498
H           -0.82698020201220       -2.09493726308868       -4.35510321363800
O            0.90966266950750        2.20142361578501       -5.10290967177637
H            1.02962205077749        3.15513106719462       -5.25385516024659
H            0.45615326914838        1.87599241399967       -5.90065422277288
O           -1.79724803469159       -3.57635814027751       -0.87678412684383
H           -2.30466127126117       -3.11589346563610       -1.56664971486088
H           -0.86819847719050       -3.52712837402872       -1.16157048419741
34
 energy: -56.635868365096 gnorm: 0.036605895378 xtb: 6.7.1 (edcfbbe)
H            1.48473750749765       -0.29068812626861       -0.54847790119848
C            0.43392780178231       -0.55413013635069       -0.63355137783973
H            0.14132952544668        0.54967903694010       -2.37517041026083
H            0.32952321167390       -1.51124450725207       -1.13276737696827
N           -0.25047095523887        0.48513188366341       -1.43057495482051
H            0.29793687876962       -1.48815490862802        1.29558423178906
C           -0.15916204019649       -0.65771358782757        0.76018848721793
O            0.70876891420829        1.52225304677534        1.14914479218461
C            0.05011502291906        0.59624595965120        1.64199250976039
H           -0.12644331059342        1.39188167696498       -0.95713817363225
O           -0.35761505582765        0.52107961658835        2.82197109779963
H           -1.25338516360519        0.29862745221810       -1.49726105795093
H           -1.23085159229933       -0.84637224457124        0.72890768894521
O           -2.55362160991638       -3.12430614943211        2.25153047453792
H           -2.43242535016539       -2.18776054750799        2.08587671809939
H           -1.66929753487491       -3.51485608950250        2.20782451947930
O           -1.77701412890945        3.13121601813683        3.40326979176417
H           -1.99665127531812        3.27503714806396        2.47894627458107
H           -2.21756191177536        2.30520878487269        3.64720099623865
O           -2.02400491590672        2.36118088471426       -3.38993161848792
H           -1.76929675065416        3.13401513862066       -3.89509001133288
H           -2.53899586275644        1.81936117616187       -3.99192832898892
O           -2.32700420893472       -2.50958607879222        5.21632207613308
H           -2.29517069066833       -2.94372577582905        4.35304347021263
H           -1.55070055565061       -2.79044011449265        5.70343826071293
O           -0.57075512744176       -1.32895984945477       -4.89378909293949
H           -1.37746128768478       -0.81605297860133       -4.98939393298185
H           -0.81720456966107       -2.10417447371468       -4.38102312079731
O            0.88806605378870        2.20798077645729       -5.10278336866972
H            1.04694750946098        3.14216140263404       -5.25066533600583
H            0.47961343744366        1.87834588952701       -5.90667188575836
O           -1.78261259594343       -3.54858608328395       -0.86642250315841
H           -2.31156231635423       -3.14126446312033       -1.55746578678671
H           -0.87347405261354       -3.55243977736017       -1.18241915087808
34
 energy: -56.640151740950 gnorm: 0.076731951458 xtb: 6.7.1 (edcfbbe)
H            1.48451826254704       -0.29473950894066       -0.55127555209602
C            0.43682239765382       -0.56384098251209       -0.64415649610121
H            0.14321427870110        0.58753645145327       -2.37206952778693
H            0.33385772403200       -1.50984919441667       -1.16176757379839
N           -0.23905204515699        0.49947012970017       -1.42612003078780
H            0.29502362486469       -1.51068886879613        1.28090103855406
C           -0.15752981591295       -0.68118107673804        0.74595391533358
O            0.64150562178535        1.54237834590511        1.07164950487380
C            0.11026873571407        0.58194971110057        1.63339039307867
H           -0.09092728007412        1.38612645335555       -0.91817663646162
O           -0.36724787770594        0.52327542210739        2.78875444271479
H           -1.24642972832031        0.34033849826350       -1.48820333133318
H           -1.23229880022225       -0.84911209742684        0.72381726591033
O           -2.53696079703584       -3.12454326952012        2.34236207663375
H           -2.43694861925998       -2.19479852852896        2.11840239737044
H           -1.64885935345160       -3.52204708669327        2.16180347951407
O           -1.83922821378333        3.20217447233632        3.43312536353656
H           -2.00038558991299        3.27457132897476        2.47774906735069
H           -2.17287164530738        2.29883758193303        3.65513735960030
O           -1.98672899205984        2.30074511062569       -3.38694296124806
H           -1.77068080112519        3.13296270221568       -3.82958531840352
H           -2.58787023371336        1.84343361734088       -4.00442000616006
O           -2.34047206505792       -2.51311767351696        5.23135051965795
H           -2.37181742641075       -2.92844187646566        4.35325421707829
H           -1.53528277210353       -2.79938708667313        5.66955056836718
O           -0.54586014864111       -1.28349941431307       -4.83226676946185
H           -1.40266702450290       -0.84840486594098       -5.01369809884809
H           -0.80766043662894       -2.13492381338942       -4.42363351237663
O            0.81879959945982        2.21642823547773       -5.06917400170313
H            1.09343775117303        3.13249501519960       -5.26012031041219
H            0.52548532477439        1.87437088082994       -5.93791566733764
O           -1.76438540941832       -3.49257674479987       -0.82697063933921
H           -2.32860951779245       -3.18328056070103       -1.55736376246999
H           -0.87393572710650       -3.59371130744619       -1.22062541344973
34
 energy: -56.641884756420 gnorm: 0.051156519549 xtb: 6.7.1 (edcfbbe)
H            1.48651507973688       -0.30606991898743       -0.55888221317479
C            0.43723720693319       -0.57454480985844       -0.65935949392524
H            0.14662925403946        0.62380611881412       -2.36891454698833
H            0.33551102993329       -1.51168828388882       -1.19915124253277
N           -0.22795821674837        0.51492457536177       -1.41993270388580
H            0.29991452103162       -1.52635347623975        1.26949922061022
C           -0.15635948655209       -0.70046403017467        0.73207393670055
O            0.57960102696082        1.57424447095366        0.98971894549707
C            0.12840209314544        0.57971284014215        1.61160017112839
H           -0.05459132160732        1.38354444189496       -0.87990002980230
O           -0.35104547344146        0.52913792040308        2.76439517233415
H           -1.24152852954474        0.38035507231045       -1.48017916501226
H           -1.23270284274175       -0.86181191765657        0.71267280282367
O           -2.50906451401894       -3.14184548089187        2.34119696741065
H           -2.43854587134779       -2.20333706061080        2.15210943788455
H           -1.64070356530855       -3.51789649034659        2.20768322869698
O           -1.82656007311992        3.18981327455313        3.42637328937115
H           -2.01245885967621        3.30121886529570        2.49681551788127
H           -2.18615620296400        2.34762452670932        3.68779632458501
O           -2.00606221184040        2.27222931565687       -3.37005183868311
H           -1.75585349999782        3.11449639573610       -3.77428504989941
H           -2.59992853075047        1.84247599643834       -4.00543044318202
O           -2.36361671960858       -2.52321792842824        5.25031713818231
H           -2.44420345747617       -2.90560252240617        4.35126690270396
H           -1.51844726915977       -2.81025298227511        5.63012744885027
O           -0.57589640002058       -1.31497181245754       -4.86786996563630
H           -1.39280348128864       -0.84457733077508       -4.99549531744056
H           -0.78149823998596       -2.12579547514301       -4.41218731630545
O            0.85150274496826        2.21538595746245       -5.09797788658452
H            1.09482018900785        3.12978327455815       -5.24488046936518
H            0.51882232437274        1.87711422993122       -5.92741088631073
O           -1.75278459773072       -3.50523421058436       -0.83572861596907
H           -2.33767580090617       -3.19715373451538       -1.53932526238568
H           -0.87428730429234       -3.59609981098164       -1.22396805757733
34
 energy: -56.646675408415 gnorm: 0.036550089904 xtb: 6.7.1 (edcfbbe)
H            1.49196221432000       -0.32170755631379       -0.57128161502733
C            0.43649005095537       -0.58095614150472       -0.67657165556677
H            0.15277301815948        0.64964452932485       -2.36597323074665
H            0.33363633332653       -1.51472796497183       -1.23244887367249
N           -0.21957420540281        0.52729497877707       -1.41479897085373
H            0.30861601233535       -1.51855886927997        1.26738393212091
C           -0.16109583013595       -0.70261391247662        0.71720542801881
O            0.58465721558593        1.57955604198577        0.96480929175799
C            0.04317949337385        0.61557916794136        1.56268309366313
H           -0.02703551979778        1.38252449258905       -0.84875358404747
O           -0.30395478377842        0.52615741985944        2.75930030194052
H           -1.23821345901801        0.40673842470385       -1.47615455984592
H           -1.23390261987790       -0.88349008888307        0.68719984656069
O           -2.49596888394889       -3.14563047885314        2.41544921020638
H           -2.43884700488173       -2.20965988851574        2.16695275837462
H           -1.63032335518543       -3.52027193419269        2.20634367831996
O           -1.86474239135436        3.23752658803489        3.44800308403511
H           -2.00703796899600        3.29709711410698        2.49132094328893
H           -2.15452029974871        2.34859767893145        3.69813951191638
O           -2.04030117226431        2.26368592169156       -3.35151184966539
H           -1.74050697929237        3.08940616297633       -3.74168884182839
H           -2.59497190496694        1.83108162997942       -3.99425737382700
O           -2.39274517926906       -2.53517921714407        5.24777606570449
H           -2.46694959882317       -2.89170687108221        4.34182083075079
H           -1.53052374132521       -2.81322623191885        5.60405651710929
O           -0.56749120421826       -1.29578085062946       -4.84195026009190
H           -1.40995403563022       -0.86515578495594       -5.00394985401869
H           -0.76410268443280       -2.14479763423673       -4.43541384633912
O            0.83782085283253        2.21901925350067       -5.09353410895513
H            1.11777699997348        3.12588445259922       -5.24233746927460
H            0.54028520343281        1.87591720971446       -5.93746222012173
O           -1.74445351363476       -3.50932767376836       -0.83632721613909
H           -2.34451792196912       -3.21027015618225       -1.52401382999588
H           -0.87724013634222       -3.60369981180729       -1.22729913375110
34
 energy: -56.646887587876 gnorm: 0.081721645683 xtb: 6.7.1 (edcfbbe)
H            1.50038310906893       -0.34538850202211       -0.59531722942308
C            0.44094397548661       -0.58421209389862       -0.69951999267388
H            0.16258962935711        0.68447031233062       -2.36390686698975
H            0.32217148151897       -1.50875937041840       -1.26564543605434
N           -0.20361199460623        0.54546662924120       -1.41387518777937
H            0.31197391713547       -1.51477080051219        1.24983478636383
C           -0.15786333117526       -0.70473804262481        0.69219066104344
O            0.53403105850284        1.59500428085110        0.93372290537934
C            0.02353641127730        0.62266633507759        1.53164548229948
H            0.01263202643629        1.37939577926344       -0.81315347298071
O           -0.30086799012750        0.53002763726714        2.73029263035015
H           -1.22410404996138        0.44555667128284       -1.47239063297295
H           -1.22891823199084       -0.89293835528609        0.65768174969850
O           -2.47959976951282       -3.14586667915842        2.45998912045465
H           -2.42702755959903       -2.21499973561962        2.21505318977078
H           -1.63220302500527       -3.53387496422908        2.21532912228928
O           -1.86431341642852        3.24273173296542        3.44933889767402
H           -2.02256989402266        3.33050901658867        2.51504625364690
H           -2.14159762679587        2.37304916501293        3.71879230857671
O           -2.01209133430187        2.19900963491823       -3.33278489133287
H           -1.72795870406462        3.06604961562210       -3.66593086004758
H           -2.65410031503086        1.85802837528799       -3.99662475076661
O           -2.42128307954281       -2.54384392289413        5.23500353704412
H           -2.47893375064554       -2.88284281632605        4.33174118975976
H           -1.57120956169137       -2.81817326115126        5.59036932215884
O           -0.55249043121509       -1.26853342048804       -4.80197478288230
H           -1.43185275700039       -0.89808269788246       -5.01942033269581
H           -0.74384282619439       -2.17007313885254       -4.46831324267995
O            0.79294736723113        2.22818711676951       -5.07254971094981
H            1.15452714922441        3.11906611695533       -5.24607093624260
H            0.58591263728539        1.87298336607935       -5.96380424405699
O           -1.72446750105949       -3.43650816799914       -0.77952821777252
H           -2.36187816753155       -3.25681281030732       -1.51692448975868
H           -0.88064044502025       -3.66283300584393       -1.27557987845045
34
 energy: -56.649215252784 gnorm: 0.081483007954 xtb: 6.7.1 (edcfbbe)
H            1.50750740091936       -0.36812699462399       -0.61973593044260
C            0.44471424859178       -0.58277663777455       -0.71813369150342
H            0.17141286286690        0.71072036051934       -2.36216826001515
H            0.30569360052312       -1.49902474372282       -1.28603753633959
N           -0.19011129578724        0.55981542333144       -1.41595306675571
H            0.30997606915456       -1.51330219571365        1.22993633617575
C           -0.15190987263520       -0.70388312525631        0.67111062690879
O            0.46432719246090        1.61660239330416        0.91175350994994
C            0.05864378468683        0.60377774067942        1.52649149771579
H            0.04207914169790        1.37355451122635       -0.78630465011378
O           -0.32218236530653        0.54367022216791        2.69621074585349
H           -1.20872327189416        0.47400223549038       -1.47160929427494
H           -1.22373354870079       -0.89248394304916        0.63507167939928
O           -2.46996034355492       -3.13797747267972        2.52629846376745
H           -2.41805425443382       -2.21968556230348        2.24880206823787
H           -1.63263517587650       -3.55027232296410        2.18718643432666
O           -1.92819318037005        3.31736273910149        3.48126950832716
H           -2.01798779423655        3.32791404137495        2.51129364592860
H           -2.08236084955025        2.35029166344302        3.71613371338900
O           -2.01437756834563        2.17378166414896       -3.31238118595648
H           -1.72097779815406        3.03871184475071       -3.62748262085143
H           -2.67042086781358        1.85961923969840       -3.98073669250958
O           -2.44157800474782       -2.55286902871517        5.23249917439042
H           -2.49515713824349       -2.87244606361958        4.32654832665243
H           -1.59863428266963       -2.82286514700368        5.57684470611288
O           -0.55534554434633       -1.27191993288623       -4.79578207599140
H           -1.43248354939278       -0.91229327714347       -5.02273055005539
H           -0.72885637852990       -2.17793674650447       -4.47945214207653
O            0.79946781026736        2.23328244249211       -5.08048893986653
H            1.16660605374654        3.11608589195100       -5.23980718657302
H            0.60229456848584        1.87131815748739       -5.96435265297182
O           -1.72811303254847       -3.50122888281327       -0.82527113723038
H           -2.35923583977517       -3.23785398310513       -1.48581259407544
H           -0.88346777648757       -3.64461451128913       -1.24049422953250
34
 energy: -56.649585183852 gnorm: 0.081054001946 xtb: 6.7.1 (edcfbbe)
H            1.51010288865675       -0.37692077062160       -0.63583155880382
C            0.44346245962845       -0.57828203726050       -0.73002347102397
H            0.18334300929902        0.72679423723039       -2.36577215108421
H            0.29340077268946       -1.49334486869461       -1.29815762700002
N           -0.18175477287660        0.56989872039150       -1.42276677429904
H            0.31350587301179       -1.50472563096188        1.22091739461995
C           -0.15251106197956       -0.69817881958775        0.66076471655755
O            0.44653451135378        1.62336754453475        0.90709196841315
C            0.05384472361219        0.60053669349941        1.51972295430516
H            0.04739067216138        1.37561283779863       -0.78256564268923
O           -0.31671733740125        0.54072508636355        2.69540279187849
H           -1.19888756948651        0.48558552943221       -1.48188460491395
H           -1.22380476261803       -0.89598636678399        0.62157226071592
O           -2.45927903931343       -3.14776683399760        2.48904602016819
H           -2.41865202001307       -2.22125493546667        2.24823951523103
H           -1.63399285938291       -3.54598383028350        2.22653684012450
O           -1.91092493137961        3.29882777970231        3.48489883335679
H           -1.99133238013081        3.33285977591548        2.51467488714849
H           -2.12350846512878        2.39185930011266        3.72954434438998
O           -2.10242333406874        2.22956630991585       -3.28582202150659
H           -1.72757073095051        3.01086849986255       -3.65492393047010
H           -2.58638474904696        1.79615622199005       -3.93037038544542
O           -2.46262236226328       -2.57764829795898        5.27689534764290
H           -2.54584620603785       -2.84663400417570        4.33256216611732
H           -1.56054810519546       -2.82747918245977        5.55385218015635
O           -0.56403703411187       -1.29145882276869       -4.80927039437242
H           -1.42030919908329       -0.91077533396575       -5.01746199504826
H           -0.73056383258501       -2.17748519833538       -4.47723591933189
O            0.82970535299577        2.23174449071856       -5.09874307871746
H            1.16945118207890        3.11524260816938       -5.23811238215804
H            0.59078543628050        1.87334198215111       -5.94834580001489
O           -1.71931296802620       -3.48316038027288       -0.80658553910487
H           -2.36887429188726       -3.26345023609396       -1.48482344760960
H           -0.88344586880029       -3.65350206810040       -1.25030949723167
34
 energy: -56.650703678213 gnorm: 0.076511630060 xtb: 6.7.1 (edcfbbe)
H            1.51303860618787       -0.38794129726026       -0.65440837824545
C            0.44102381657823       -0.57643048593404       -0.74511933020670
H            0.20033750665870        0.74960195230639       -2.36941846585393
H            0.27975229183858       -1.49025185729904       -1.31877080328768
N           -0.17065322071556        0.58397970489061       -1.42863848764699
H            0.32409008209716       -1.49562550633150        1.21315646899926
C           -0.15414361964471       -0.69469097159895        0.64951543462332
O            0.43479337370696        1.63234162278542        0.88998405893657
C           -0.00280911885875        0.62154398146191        1.48984977559195
H            0.05792235201174        1.38103039446035       -0.77422707389254
O           -0.28395994867303        0.52783622584543        2.70335773864017
H           -1.18939794779155        0.50531482755649       -1.49352951830193
H           -1.22273354114507       -0.90828788382293        0.60532918126571
O           -2.45633284394568       -3.14406153412092        2.54242738595192
H           -2.41390107782573       -2.22144385239233        2.23912169498185
H           -1.63241470301084       -3.55314353088206        2.20883003916288
O           -1.87776387756676        3.26695062047913        3.47402863237598
H           -2.00353246764700        3.36911727023977        2.54178975730404
H           -2.13708472103865        2.42182621409466        3.74341587108879
O           -2.07878426605787        2.15162670962540       -3.26700112697965
H           -1.70080672519543        3.00869530911636       -3.55034959540613
H           -2.64718569152151        1.83191908214182       -3.98702286505415
O           -2.47151375997835       -2.57159915040930        5.27271958367825
H           -2.55976790847576       -2.86413904541262        4.34037580614972
H           -1.58176807825347       -2.83019781492371        5.56037818995051
O           -0.57613805815561       -1.31137389222745       -4.82674588548021
H           -1.41315812472658       -0.91458487994434       -5.00960614866425
H           -0.71854007781541       -2.17759052308068       -4.47565146340153
O            0.80939599785121        2.23697318574313       -5.08703784948395
H            1.18957041612942        3.11280148667175       -5.24136324112890
H            0.61602203138188        1.87200858662646       -5.96002442828711
O           -1.71595785486213       -3.48968267865046       -0.80323768984959
H           -2.37319600619862       -3.27376278984953       -1.47278498396738
H           -0.88617983533714       -3.65980947990612       -1.24662628356273
34
 energy: -56.643404342477 gnorm: 0.143852882324 xtb: 6.7.1 (edcfbbe)
H            1.51525375739074       -0.40030981233422       -0.67286554932641
C            0.43929194917211       -0.57403303334067       -0.75772918757625
H            0.21613425163151        0.76845747539126       -2.37162398013468
H            0.26417647693913       -1.48553621308807       -1.33310316828225
N           -0.16073907775404        0.59565756903206       -1.43447279165453
H            0.32975516635413       -1.49316839826165        1.20323329665122
C           -0.15138684582137       -0.69242394764302        0.64062129997695
O            0.40635929518809        1.64817023364337        0.87474125723708
C           -0.02620005492330        0.62919614256879        1.47247265704841
H            0.06721366247972        1.38357254736761       -0.76595212542076
O           -0.27273535150189        0.52587359261173        2.69754097616374
H           -1.18023906818614        0.52335568485089       -1.50560134964742
H           -1.21883140887516       -0.91203982211762        0.59420149909192
O           -2.44355089793918       -3.15210989549399        2.46033721778519
H           -2.40463880872786       -2.21900064393534        2.26325859215408
H           -1.65343324052889       -3.55432903401638        2.27223353071901
O           -1.95185201905205        3.35900426026097        3.50962178686895
H           -2.01033906274183        3.36016999200921        2.53581608010452
H           -2.04728226757637        2.36461117138558        3.73428693223679
O           -2.04832542315817        2.11017381432394       -3.24535982941145
H           -1.69286915210300        2.99430047882923       -3.50613574505670
H           -2.69035564824237        1.84847658053462       -3.99424101409679
O           -2.47564815981875       -2.56205900996154        5.26470227917564
H           -2.55273234066521       -2.88654438297297        4.35958770014444
H           -1.62002873114253       -2.82608226686728        5.58043201722492
O           -0.54890614888953       -1.26342563436519       -4.76956024083940
H           -1.44717456733763       -0.95091285436072       -5.03059297423420
H           -0.70245665829234       -2.21060195127492       -4.52072084686274
O            0.82681553665612        2.24099884015506       -5.09839458057345
H            1.18692093843782        3.11295975345867       -5.23222752617619
H            0.62445237080617        1.87084246632648       -5.95507053029431
O           -1.70727578712935       -3.44370837187484       -0.76601909974964
H           -2.38037693362409       -3.29954362173006       -1.46774857373376
H           -0.89077275102356       -3.70104170911241       -1.27295200951214
34