34
 energy: -56.709256395359 gnorm: 0.001905855890 xtb: 6.7.1 (edcfbbe)
H            2.23696525549905        0.89606306058067       -0.36008456045886
C            1.44790642166986        0.22894396773924       -0.70703360885830
H            0.97538578115517        1.31878255163278       -2.42058829147222
H            1.90097726382715       -0.55402360931045       -1.31479091130164
N            0.49702981110726        0.98947732736759       -1.53789332607787
H            1.39881988187904       -1.24746253924840        0.83911781808628
C            0.77845795390766       -0.41389241106640        0.50217129454028
O            1.58832697682142        1.28062071045287        1.99851135744217
C            0.63388655479713        0.50572437460156        1.72803396720051
H            0.13915535130739        1.83979163766814       -1.04670715742512
O           -0.41230740197177        0.40875513277602        2.39735381859492
H           -0.29608188400665        0.39913821582329       -1.79273153333052
H           -0.20961370997727       -0.80915439597188        0.26551999688883
O            1.68631082043026        1.84186012199403       -3.81042410644908
H            0.98827381723034        2.06690822976285       -4.45189961814097
H            2.25411654685687        2.61498982770193       -3.73975764124233
O           -0.45505089841802        2.45448064203395       -5.47466312131727
H           -1.14574717026678        3.05797593827131       -5.18360051303058
H           -0.87332991114216        1.77805731656254       -6.01656768998295
O           -0.39336220262772        3.38061885399605       -0.50374223963134
H            0.23672990760872        3.69564331231110        0.16994273265431
H           -1.27042341653102        3.53191364651287       -0.14380815695069
O           -1.24756410605241        1.12251649328929        4.93300095899147
H           -0.89065592514715        0.92800002237396        4.04370016598478
H           -2.02150457987489        0.55592247114575        5.02423385661716
O            1.35093483620244        3.95409990825320        1.53214746923585
H            2.22783909453958        4.34777417846100        1.58383041757842
H            1.44410615433683        3.03237316703873        1.84138545037737
O            4.12135735959400        0.44644213740279        1.49243286853488
H            3.21151013634518        0.75213073295144        1.69633226480482
H            4.62802172996214        0.56813236855497        2.30056323041707
O            3.70316089368606       -2.04183893695493        0.28408140780292
H            4.52767840027389       -2.34031293874625       -0.11154100833413
H            3.90218025712103       -1.18332151584295        0.70069540828256
