
                                 *****************
                                 * O   R   C   A *
                                 *****************

                                            #,                                       
                                            ###                                      
                                            ####                                     
                                            #####                                    
                                            ######                                   
                                           ########,                                 
                                     ,,################,,,,,                         
                               ,,#################################,,                 
                          ,,##########################################,,             
                       ,#########################################, ''#####,          
                    ,#############################################,,   '####,        
                  ,##################################################,,,,####,       
                ,###########''''           ''''###############################       
              ,#####''   ,,,,##########,,,,          '''####'''          '####       
            ,##' ,,,,###########################,,,                        '##       
           ' ,,###''''                  '''############,,,                           
         ,,##''                                '''############,,,,        ,,,,,,###''
      ,#''                                            '''#######################'''  
     '                                                          ''''####''''         
             ,#######,   #######,   ,#######,      ##                                
            ,#'     '#,  ##    ##  ,#'     '#,    #''#        ,####,   ,####,        
            ##       ##  ##   ,#'  ##            #'  '#       #'       #'  '#        
            ##       ##  #######   ##           ,######,      #####,   #    #        
            '#,     ,#'  ##    ##  '#,     ,#' ,#      #,     #,   #   #,  ,#        
             '#######'   ##     ##  '#######'  #'      '#     '####' # '####'        



                #########################################################
                #                        -***-                          #
                #          Department of theory and spectroscopy        #
                #                                                       #
                #                      Frank Neese                      #
                #                                                       #
                #     Directorship, Architecture, Infrastructure        #
                #                    SHARK, DRIVERS                     #
                #        Core code/Algorithms in most modules           #
                #                                                       #
                #        Max Planck Institute fuer Kohlenforschung      #
                #                Kaiser Wilhelm Platz 1                 #
                #                 D-45470 Muelheim/Ruhr                 #
                #                      Germany                          #
                #                                                       #
                #                  All rights reserved                  #
                #                        -***-                          #
                #########################################################


                         Program Version 6.0.1  -  RELEASE   -


 With contributions from (in alphabetic order):
[Max-Planck-Institut fuer Kohlenforschung]                               
  Daniel Aravena         : Magnetic Suceptibility                        
  Michael Atanasov       : Ab Initio Ligand Field Theory (pilot matlab implementation)
  Alexander A. Auer      : GIAO ZORA, VPT2 properties, NMR spectrum      
  Ute Becker             : All parallelization in ORCA, NUMFREQ, NUMCALC 
  Giovanni Bistoni       : ED, misc. LED, open-shell LED, HFLD           
  Martin Brehm           : Molecular dynamics                            
  Dmytro Bykov           : pre 5.0 version of the SCF Hessian            
  Marcos Casanova-Páez   : Triplet and SCS-CIS(D). UHF-(DLPNO)-IP/EA/STEOM-CCSD. UHF-CVS-IP/STEOM-CCSD   
  Vijay G. Chilkuri      : MRCI spin determinant printing, contributions to CSF-ICE 
  Pauline Colinet        : FMM embedding                                 
  Dipayan Datta          : RHF DLPNO-CCSD density                        
  Achintya Kumar Dutta   : EOM-CC, STEOM-CC                              
  Nicolas Foglia         : Exact transition moments, OPA infrastructure, MCD improvements    
  Dmitry Ganyushin       : Spin-Orbit,Spin-Spin,Magnetic field MRCI      
  Miquel Garcia-Rates    : C-PCM and meta-GGA Hessian, CCSD/C-PCM, Gaussian charge scheme 
  Tiago L. C. Gouveia    : GS-ROHF, GS-ROCIS                             
  Yang Guo               : DLPNO-NEVPT2, F12-NEVPT2, CIM, IAO-localization        
  Andreas Hansen         : Spin unrestricted coupled pair/coupled cluster methods 
  Ingolf Harden          : AUTO-CI MPn and infrastructure                
  Benjamin Helmich-Paris : MC-RPA, TRAH-(SCF,CASSCF), AVAS, COSX integrals, SCF dyn. polar. 
  Lee Huntington         : MR-EOM, pCC                                   
  Robert Izsak           : Overlap fitted RIJCOSX, COSX-SCS-MP3, EOM     
  Riya Kayal             : Wick's Theorem for AUTO-CI, AUTO-CI UHF-CCSDT 
  Emily Kempfer          : AUTO-CI, RHF CISDT and CCSDT                  
  Christian Kollmar      : KDIIS, OOCD, Brueckner-CCSD(T), CCSD density, CASPT2, CASPT2-K, improved NEVPT2 
  Axel Koslowski         : Symmetry handling                             
  Simone Kossmann        : meta-GGA functionals, TD-DFT gradient, OOMP2, (MP2 Hessian; deprecated post 5.0) 
  Lucas Lang             : DCDCAS                                        
  Marvin Lechner         : AUTO-CI (C++ implementation), FIC-MRCC        
  Spencer Leger          : CASSCF response                               
  Dagmar Lenk            : GEPOL surface, SMD, ORCA-2-JSON               
  Dimitrios Liakos       : Extrapolation schemes; Compound Job, initial MDCI parallelization 
  Dimitrios Manganas     : Further ROCIS development; embedding schemes. LFT, Crystal Embedding 
  Dimitrios Pantazis     : SARC Basis sets                               
  Anastasios Papadopoulos: AUTO-CI, single reference methods and gradients 
  Taras Petrenko         : pre 6.0 DFT Hessian and TD-DFT gradient, (ASA, deprecated), ECA, 1-Electron XAS/XES, NRVS 
  Peter Pinski           : DLPNO-MP2, DLPNO-MP2 Gradient                 
  Christoph Reimann      : Effective Core Potentials                     
  Marius Retegan         : Local ZFS, SOC                                
  Christoph Riplinger    : Optimizer, TS searches, QM/MM, DLPNO-CCSD(T), (RO)-DLPNO pert. Triples 
  Michael Roemelt        : Original ROCIS implementation                 
  Masaaki Saitow         : Open-shell DLPNO-CCSD energy and density      
  Barbara Sandhoefer     : DKH picture change effects                    
  Kantharuban Sivalingam : CASSCF convergence/infrastructure, NEVPT2 and variants, FIC-MRCI 
  Bernardo de Souza      : ESD, SOC TD-DFT                               
  Georgi L. Stoychev     : AutoAux, RI-MP2 NMR, DLPNO-MP2 response, X2C  
  Van Anh Tran           : RI-MP2 g-tensors                              
  Willem Van den Heuvel  : Paramagnetic NMR                              
  Zikuan Wang            : NOTCH, Electric field optimization            
  Frank Wennmohs         : Technical directorship and infrastructure     
  Hang Xu                : AUTO-CI-Response properties                   
                                                                         
[FACCTs GmbH]                                                            
  Markus Bursch, Miquel Garcia-Rates, Christoph Riplinger, Bernardo de Souza, Georgi L. Stoychev 
                                                                 
  APM, Basis sets (HGBS, AHGBS, def-TZVP (Ac-Lr), def2-XVPD (La-Lu)), CI-OPT, improved COSX, DLPNO-Multilevel,           
  DOCKER, DRACO, updates on ESD, GOAT, IRC, LR-CPCM, MBIS, meta-GGA TD-DFT gradient, ML-optimized integration grids, 
  MM, NACMEs, nearIR, NEB, NEB-TS, NL-DFT gradient (VV10), 2- and 3-layer-ONIOM, interface openCOSMO-RS, QMMM,   
  Crystal-QMMM, SF, symmetry and pop. for TD-DFT, r2SCAN hybrids, SOLVATOR                                   
                                                                         
[Other institutions]                                                     
  V. Asgeirsson          : NEB                                           
  Christoph Bannwarth    : sTDA-DFT, sTD-DFT, PBEh-3c, B97-3c, D3        
  Sebastian Ehlert       : rSCAN, r2SCAN, r2SCAN-3c, D4, dhf basis sets  
  Marvin Friede          : D4 for Fr, Ra, Ac-Lr                          
  Lars Goerigk           : TD-DFT with DH, B97 family of functionals     
  Stefan Grimme          : VdW corrections, initial TS optimization, DFT functionals, gCP, sTDA/sTD-DF 
  Waldemar Hujo          : DFT-NL                                        
  H. Jonsson             : NEB                                           
  Holger Kruse           : gCP                                           
  Marcel Mueller         : wB97X-3c, vDZP basis set                      
  Hagen Neugebauer       : wr2SCAN                                       
  Tobias Risthaus        : range-separated hybrid DFT                    
  Lukas Wittmann         : regularized MP2, r2SCAN double-hybrids, wr2SCAN        
                                                                         
We gratefully acknowledge several colleagues who have allowed us to      
interface, adapt or use parts of their codes:                            
  Ed Valeev, F. Pavosevic, A. Kumar             : LibInt (2-el integral package), F12 methods 
  Garnet Chan, S. Sharma, J. Yang, R. Olivares  : DMRG                   
  Ulf Ekstrom                                   : XCFun DFT Library      
  Mihaly Kallay                                 : mrcc  (arbitrary order and MRCC methods)
  Frank Weinhold                                : gennbo (NPA and NBO analysis)           
  Simon Mueller                                 : openCOSMO-RS                            
  Christopher J. Cramer and Donald G. Truhlar   : smd solvation model                     
  S Lehtola, MJT Oliveira, MAL Marques          : LibXC Library                           
  Liviu Ungur et al                             : ANISO software                          


 Your calculation uses the libint2 library for the computation of 2-el integrals
 For citations please refer to: http://libint.valeyev.net

 Your ORCA version has been built with support for libXC version: 6.2.2
 For citations please refer to: https://libxc.gitlab.io

 This ORCA versions uses:
   CBLAS   interface :  Fast vector & matrix operations
   LAPACKE interface :  Fast linear algebra routines
   SCALAPACK package :  Parallel linear algebra routines
   Shared memory     :  Shared parallel matrices
   BLAS/LAPACK       :  OpenBLAS 0.3.27  USE64BITINT DYNAMIC_ARCH NO_AFFINITY SkylakeX SINGLE_THREADED
        Core in use  :  SkylakeX
   Copyright (c) 2011-2014, The OpenBLAS Project


NOTE: MaxCore=5000 MB was set to SCF,MP2,MDCI,CIPSI,MRCI and CIS
      => If you want to overwrite this, your respective input block should be placed after the MaxCore statement
Your calculation utilizes the atom-pairwise dispersion correction
based on EEQ partial charges (D4)


Warning: RI is on but no J-basis has been assigned. Assigning Def2/J (nothing to worry about!)
================================================================================

----- Orbital basis set information -----
Your calculation utilizes the basis: def2-TZVP
   F. Weigend and R. Ahlrichs, Phys. Chem. Chem. Phys. 7, 3297 (2005).

----- AuxJ basis set information -----
Your calculation utilizes the auxiliary basis: def2/J
   F. Weigend, Phys. Chem. Chem. Phys. 8, 1057 (2006).

================================================================================
                                        WARNINGS
                       Please study these warnings very carefully!
================================================================================


================================================================================
                                       INPUT FILE
================================================================================
NAME = input.inp
|  1> ! SP B3LYP D4 def2-TZVP TightSCF CPCM(water)
|  2> 
|  3> %maxcore 5000
|  4> 
|  5> %pal
|  6> nprocs 28
|  7> end
|  8> 
|  9> %geom
| 10>     MaxIter 500
| 11> end
| 12> 
| 13> * xyz 0 1
| 14> H            1.27895744065181        0.33052433173812        0.19358274067616
| 15> C            0.24416947531218        0.12812386615980       -0.08139352067257
| 16> H            0.19085586519226        1.31585089551781       -1.82020152406558
| 17> H            0.19864210245566       -0.78907131268325       -0.66451843766238
| 18> N           -0.27971220649683        1.22605017907273       -0.90233256373909
| 19> H           -0.55282872376367       -1.04912985978062        1.54354523220270
| 20> C           -0.61237496712630       -0.02889236781897        1.16929722608787
| 21> O           -1.15835471262843        1.29385695688837        3.07049182570751
| 22> C           -0.21292032234435        0.81792652630500        2.36759002252790
| 23> H           -0.17577531460865        2.12855394356338       -0.41021605872604
| 24> O            0.98788364067758        0.98287715688744        2.65711413579978
| 25> H           -1.29619759093124        1.09554858883135       -1.08247905909489
| 26> H           -1.65910437428983        0.16370424567969        0.94150582891150
| 27> O           -1.28722904641389       -5.99087381572419        0.14892426135765
| 28> H           -1.10679448573549       -5.81341413142535        1.09896892520730
| 29> H           -2.21547466254930       -6.22770859492220        0.08673026072986
| 30> O            4.36984248897060       -4.41465441586477       -0.17950217938368
| 31> H            4.25795459317344       -3.66746573691465        0.43121126777317
| 32> H            3.76857833799345       -4.21129557449511       -0.91170680421328
| 33> O            1.03356880071546       -3.11071219694812        1.80499327041780
| 34> H            0.63369397994834       -2.51545270596416        2.47089698641770
| 35> H            0.48859035565914       -3.06379772180020        0.99069253725279
| 36> O            1.48640993810620        5.28420602648165        1.60265207191829
| 37> H            2.28174929161738        4.89122410288550        2.00190428258731
| 38> H            1.21661763625622        5.99863654294999        2.18444505766237
| 39> O            3.80568617497640        4.21866810035925        2.77751050267773
| 40> H            3.71717404660578        3.91436812829227        3.71102025258138
| 41> H            4.67099702763000        4.63147599693691        2.71095181284784
| 42> O           -2.51002086094924       -2.83220420820900        2.08136173100695
| 43> H           -2.74286593250296       -2.00555857437568        2.54364490412250
| 44> H           -2.50358638628734       -2.57653163563284        1.14331888014328
| 45> O            1.35467341333674       -1.03414658058795       -3.20578777088303
| 46> H            1.93547688253072       -0.25869495109128       -3.07434360124015
| 47> H            1.71220738490256       -1.72192281021177       -2.60893753121572
| 48> O            2.89244642909417       -0.80879177310818        3.50020599388571
| 49> H            2.49614897686780       -1.58887252585965        3.92844597919276
| 50> H            2.14904521916679       -0.24767714881978        3.20535875873243
| 51> O           -0.76933457291888       -4.93779340776202        2.57697961077814
| 52> H            0.05712680684924       -4.46906185925075        2.31892263638249
| 53> H           -1.45096722582815       -4.23871056753576        2.49479893739995
| 54> O           -4.60960976438335       -0.91094621586438       -3.78110641458534
| 55> H           -3.96819942807041       -0.18554606662932       -3.97298329037332
| 56> H           -4.07511839487630       -1.71697750216732       -3.86926452941080
| 57> O           -0.36180561924232       -4.40630679162034       -3.17141468941630
| 58> H           -0.05329055246476       -5.30786006731753       -3.07203799527174
| 59> H           -0.26504571758294       -3.98541281300759       -2.28934276667302
| 60> O           -3.01142371218887        3.28992569383244       -2.98839745232725
| 61> H           -3.13739920112553        2.66701866902223       -2.23971315799433
| 62> H           -2.24621954892656        3.82355656567943       -2.71691226643252
| 63> O            1.88609366220846        2.92899424228506       -1.07079564815695
| 64> H            2.32178873517182        2.76789173838932       -0.21613697981544
| 65> H            2.14649239721601        3.80158877131659       -1.38120241203188
| 66> O           -0.34005325581344       -3.52515574009329       -0.55101037893276
| 67> H           -1.14362818380786       -2.96578113317109       -0.56667915771291
| 68> H           -0.64345542592950       -4.42349532724358       -0.31964745803010
| 69> O           -2.81715979495510        2.73882563769258        1.42136244464073
| 70> H           -2.13289164262963        3.31787792248155        1.02891767988708
| 71> H           -2.31152897419184        2.19152248132926        2.05160221839105
| 72> O           -1.12215235641508        3.63268602286678       -5.26430982049631
| 73> H           -1.98758725138123        3.76951293826499       -4.86405529245664
| 74> H           -0.64190354369542        3.05379900471575       -4.62624928568712
| 75> O           -0.17825190635766       -1.63960119440201        3.80595698478320
| 76> H           -0.87234695918149       -2.21345005595276        4.18292781323340
| 77> H            0.25318828279770       -1.23538339051471        4.57244921090004
| 78> O            1.18065098285335        3.99462010471761        6.45391828405681
| 79> H            1.03239121209185        3.87948807664634        7.39674182490658
| 80> H            0.48446274044195        3.47718236323432        6.00352178855337
| 81> O            3.62141865735110        0.60175475433097        5.63928022909265
| 82> H            3.47459011167813        0.13782183993546        4.77689188078875
| 83> H            4.46347407718723        0.28373581736164        5.97585712851133
| 84> O           -0.50737311573180        4.32037256894996       -2.26277209707244
| 85> H            0.25930352186783        4.87242358909633       -2.46799923520894
| 86> H           -0.24713727523634        3.43647904246134       -2.59710774378585
| 87> O            3.40457818063985       -2.06360959854345        1.13414480674814
| 88> H            3.55127239062054       -1.54861681950827        1.94643148958955
| 89> H            2.55871585240390       -2.53139886120094        1.34104149281672
| 90> O            1.18543241827833       -0.76485339235724        6.15687640110259
| 91> H            1.56697914194072       -1.65393297348904        6.02880658921805
| 92> H            1.93861891766251       -0.15445594892527        6.10152876434314
| 93> O           -5.07527889177407        0.98305123119683        1.79554081108403
| 94> H           -4.52133620455369        1.76774470493137        1.67796619662984
| 95> H           -4.53269651847494        0.38053889247116        2.33638963631880
| 96> O            4.36774977593383        0.17931039582048       -0.29618404268016
| 97> H            4.11343402747925       -0.66209118144469        0.11421662200602
| 98> H            4.00523819680775        0.86860699762331        0.29191818474706
| 99> O           -2.20480861528724       -3.09975931048891        5.04631140962311
|100> H           -2.75240777148627       -3.33002257024097        4.28698937526025
|101> H           -2.65802457783960       -2.36604067419027        5.49967361925008
|102> O            2.12857117860840        5.16777309988125       -2.87019088130987
|103> H            2.57024232686590        5.96147214719516       -3.17493932962978
|104> H            2.38885723925796        4.45131882392373       -3.47899000826569
|105> O            2.85560771489055        2.93509750644015       -4.37397958875226
|106> H            3.00257814290791        2.65939384636598       -5.28022920004211
|107> H            3.15514830514866        2.19978914046757       -3.79665534235387
|108> O           -1.49478515126647       -1.88369535378059       -6.20730119578003
|109> H           -2.00732318262445       -2.20252726896015       -5.42711637762439
|110> H           -0.61240921850484       -2.29363356897677       -6.07972631051385
|111> O           -0.53659971977000        3.76751132801135        0.35398186240413
|112> H           -0.56862132432223        4.08719868964929       -0.58020828293759
|113> H            0.17540073833570        4.26690835803330        0.77772661422901
|114> O           -2.67691195927280        0.91065408920984       -4.32242587764202
|115> H           -2.64635232107784        0.95549952101455       -5.28819185968634
|116> H           -2.80079924772313        1.81359331755848       -3.97406264073363
|117> O           -3.22076007619724       -0.46626233224125        3.33053146472349
|118> H           -3.36656126739089       -0.55884433567341        4.28593735642917
|119> H           -2.45772307649212        0.14329435078440        3.24634333059486
|120> O            3.01457499806016        1.00319877529363       -2.51464604070430
|121> H            3.64765641776803        0.62970817573636       -1.87668192165244
|122> H            2.51132972347343        1.67305958969090       -1.98291160914313
|123> O           -3.34612499188819       -0.83859393281133        6.09778601618988
|124> H           -4.04446752967827       -0.72555701999595        6.74674112570866
|125> H           -2.55066525863580       -0.37283138626036        6.45730263643933
|126> O           -0.93129340527411        2.60693073380644        5.34500857578200
|127> H           -0.90495139660990        2.12038490358848        4.47710219432888
|128> H           -1.68355415247758        3.20241280202053        5.27660140552194
|129> O           -0.61796380088527        2.12630292215301       -7.47613999228597
|130> H           -1.43749263706377        1.60626879324597       -7.53845566188253
|131> H           -0.80073752628720        2.79952201194636       -6.78542217294794
|132> O           -4.86263746285737       -0.63302072076544       -1.16286243318847
|133> H           -5.76068099409869       -0.44493620272393       -0.89053082286975
|134> H           -4.86090303126039       -0.74094679036347       -2.15141391923422
|135> O            3.60867927422081        3.35324271307808        5.30360381500309
|136> H            3.60267283402962        2.38112186511860        5.40440709162603
|137> H            2.77950484714043        3.65688464108294        5.71827523299894
|138> O           -2.75058893723960        0.37603843706223       -7.09088806853044
|139> H           -2.29724017677340       -0.46597957806531       -6.87775749890382
|140> H           -3.54289086468082        0.14096654005522       -7.57691265304177
|141> O           -2.52977586460787       -2.76363036603317       -3.88757349772598
|142> H           -2.04274131595901       -2.03177108112643       -3.40391390316362
|143> H           -1.99553610564513       -3.54955931150900       -3.71110858504310
|144> O           -1.18295336533784        0.42773763497855        6.99810937320855
|145> H           -0.36852933672627       -0.07564544612205        6.82479197887474
|146> H           -1.09753259675594        1.23343675103965        6.44962302729233
|147> O            0.30004808184098        2.02179666652626       -3.53357052944238
|148> H            1.17744126062257        2.38015498212356       -3.73593738294099
|149> H            0.19011356803735        1.27622048909438       -4.16977903550961
|150> O            0.81457921938151       -2.85625743450756       -5.19879315485139
|151> H            0.44071405404296       -3.46016416480064       -4.53099471682264
|152> H            1.10320926293836       -2.08117125178074       -4.67352602921857
|153> O            3.03856068755169        2.06221979425885        1.24826002617277
|154> H            2.31162485213485        1.67085149883707        1.77004464837261
|155> H            3.38639215437237        2.78842158495310        1.79156548437807
|156> O           -3.03441007855943        1.41880042065503       -1.00678696652467
|157> H           -3.70181124843314        0.70913928785408       -1.01847800354082
|158> H           -3.10690144389868        1.86383035826063       -0.14494455327456
|159> O            0.19086673289550        0.31750719420613       -5.54288967900191
|160> H            0.05784469589446        0.91154233411030       -6.30212619499067
|161> H           -0.46160067202842       -0.39299106608392       -5.64856729793625
|162> O            2.17833979825388       -3.08972775445036        5.08586492189611
|163> H            2.92227245513651       -3.67338450885020        5.24982713553951
|164> H            1.38213344836508       -3.67195649207075        5.07521354091204
|165> O            0.03713472187710       -4.72582140574411        5.17917720573745
|166> H           -0.20456192407937       -5.00573070865655        4.27084606321152
|167> H           -0.72871317825515       -4.20309719531714        5.46339898850059
|168> O           -1.27149764157341       -0.76918623206846       -2.72426890768538
|169> H           -1.67043800794974       -0.06689604664823       -3.26921703757040
|170> H           -0.32512204031990       -0.82826682803140       -2.97877452826945
|171> O           -2.46899145495072       -1.86574967546081       -0.56760536724180
|172> H           -3.40342440587912       -1.64534119850162       -0.67558954027243
|173> H           -2.02790599420205       -1.36340206086105       -1.28876576956454
|174> O            2.21957188177245       -2.83296969406834       -1.38432376607859
|175> H            2.63639407498527       -2.34709254491765       -0.66022527871369
|176> H            1.35537469274916       -3.12169271097407       -1.04104535528321
|177> *
|178> 
|179>                          ****END OF INPUT****
================================================================================

                       ****************************
                       * Single Point Calculation *
                       ****************************

---------------------------------
CARTESIAN COORDINATES (ANGSTROEM)
---------------------------------
  H      1.278957    0.330524    0.193583
  C      0.244169    0.128124   -0.081394
  H      0.190856    1.315851   -1.820202
  H      0.198642   -0.789071   -0.664518
  N     -0.279712    1.226050   -0.902333
  H     -0.552829   -1.049130    1.543545
  C     -0.612375   -0.028892    1.169297
  O     -1.158355    1.293857    3.070492
  C     -0.212920    0.817927    2.367590
  H     -0.175775    2.128554   -0.410216
  O      0.987884    0.982877    2.657114
  H     -1.296198    1.095549   -1.082479
  H     -1.659104    0.163704    0.941506
  O     -1.287229   -5.990874    0.148924
  H     -1.106794   -5.813414    1.098969
  H     -2.215475   -6.227709    0.086730
  O      4.369842   -4.414654   -0.179502
  H      4.257955   -3.667466    0.431211
  H      3.768578   -4.211296   -0.911707
  O      1.033569   -3.110712    1.804993
  H      0.633694   -2.515453    2.470897
  H      0.488590   -3.063798    0.990693
  O      1.486410    5.284206    1.602652
  H      2.281749    4.891224    2.001904
  H      1.216618    5.998637    2.184445
  O      3.805686    4.218668    2.777511
  H      3.717174    3.914368    3.711020
  H      4.670997    4.631476    2.710952
  O     -2.510021   -2.832204    2.081362
  H     -2.742866   -2.005559    2.543645
  H     -2.503586   -2.576532    1.143319
  O      1.354673   -1.034147   -3.205788
  H      1.935477   -0.258695   -3.074344
  H      1.712207   -1.721923   -2.608938
  O      2.892446   -0.808792    3.500206
  H      2.496149   -1.588873    3.928446
  H      2.149045   -0.247677    3.205359
  O     -0.769335   -4.937793    2.576980
  H      0.057127   -4.469062    2.318923
  H     -1.450967   -4.238711    2.494799
  O     -4.609610   -0.910946   -3.781106
  H     -3.968199   -0.185546   -3.972983
  H     -4.075118   -1.716978   -3.869265
  O     -0.361806   -4.406307   -3.171415
  H     -0.053291   -5.307860   -3.072038
  H     -0.265046   -3.985413   -2.289343
  O     -3.011424    3.289926   -2.988397
  H     -3.137399    2.667019   -2.239713
  H     -2.246220    3.823557   -2.716912
  O      1.886094    2.928994   -1.070796
  H      2.321789    2.767892   -0.216137
  H      2.146492    3.801589   -1.381202
  O     -0.340053   -3.525156   -0.551010
  H     -1.143628   -2.965781   -0.566679
  H     -0.643455   -4.423495   -0.319647
  O     -2.817160    2.738826    1.421362
  H     -2.132892    3.317878    1.028918
  H     -2.311529    2.191522    2.051602
  O     -1.122152    3.632686   -5.264310
  H     -1.987587    3.769513   -4.864055
  H     -0.641904    3.053799   -4.626249
  O     -0.178252   -1.639601    3.805957
  H     -0.872347   -2.213450    4.182928
  H      0.253188   -1.235383    4.572449
  O      1.180651    3.994620    6.453918
  H      1.032391    3.879488    7.396742
  H      0.484463    3.477182    6.003522
  O      3.621419    0.601755    5.639280
  H      3.474590    0.137822    4.776892
  H      4.463474    0.283736    5.975857
  O     -0.507373    4.320373   -2.262772
  H      0.259304    4.872424   -2.467999
  H     -0.247137    3.436479   -2.597108
  O      3.404578   -2.063610    1.134145
  H      3.551272   -1.548617    1.946431
  H      2.558716   -2.531399    1.341041
  O      1.185432   -0.764853    6.156876
  H      1.566979   -1.653933    6.028807
  H      1.938619   -0.154456    6.101529
  O     -5.075279    0.983051    1.795541
  H     -4.521336    1.767745    1.677966
  H     -4.532697    0.380539    2.336390
  O      4.367750    0.179310   -0.296184
  H      4.113434   -0.662091    0.114217
  H      4.005238    0.868607    0.291918
  O     -2.204809   -3.099759    5.046311
  H     -2.752408   -3.330023    4.286989
  H     -2.658025   -2.366041    5.499674
  O      2.128571    5.167773   -2.870191
  H      2.570242    5.961472   -3.174939
  H      2.388857    4.451319   -3.478990
  O      2.855608    2.935098   -4.373980
  H      3.002578    2.659394   -5.280229
  H      3.155148    2.199789   -3.796655
  O     -1.494785   -1.883695   -6.207301
  H     -2.007323   -2.202527   -5.427116
  H     -0.612409   -2.293634   -6.079726
  O     -0.536600    3.767511    0.353982
  H     -0.568621    4.087199   -0.580208
  H      0.175401    4.266908    0.777727
  O     -2.676912    0.910654   -4.322426
  H     -2.646352    0.955500   -5.288192
  H     -2.800799    1.813593   -3.974063
  O     -3.220760   -0.466262    3.330531
  H     -3.366561   -0.558844    4.285937
  H     -2.457723    0.143294    3.246343
  O      3.014575    1.003199   -2.514646
  H      3.647656    0.629708   -1.876682
  H      2.511330    1.673060   -1.982912
  O     -3.346125   -0.838594    6.097786
  H     -4.044468   -0.725557    6.746741
  H     -2.550665   -0.372831    6.457303
  O     -0.931293    2.606931    5.345009
  H     -0.904951    2.120385    4.477102
  H     -1.683554    3.202413    5.276601
  O     -0.617964    2.126303   -7.476140
  H     -1.437493    1.606269   -7.538456
  H     -0.800738    2.799522   -6.785422
  O     -4.862637   -0.633021   -1.162862
  H     -5.760681   -0.444936   -0.890531
  H     -4.860903   -0.740947   -2.151414
  O      3.608679    3.353243    5.303604
  H      3.602673    2.381122    5.404407
  H      2.779505    3.656885    5.718275
  O     -2.750589    0.376038   -7.090888
  H     -2.297240   -0.465980   -6.877757
  H     -3.542891    0.140967   -7.576913
  O     -2.529776   -2.763630   -3.887573
  H     -2.042741   -2.031771   -3.403914
  H     -1.995536   -3.549559   -3.711109
  O     -1.182953    0.427738    6.998109
  H     -0.368529   -0.075645    6.824792
  H     -1.097533    1.233437    6.449623
  O      0.300048    2.021797   -3.533571
  H      1.177441    2.380155   -3.735937
  H      0.190114    1.276220   -4.169779
  O      0.814579   -2.856257   -5.198793
  H      0.440714   -3.460164   -4.530995
  H      1.103209   -2.081171   -4.673526
  O      3.038561    2.062220    1.248260
  H      2.311625    1.670851    1.770045
  H      3.386392    2.788422    1.791565
  O     -3.034410    1.418800   -1.006787
  H     -3.701811    0.709139   -1.018478
  H     -3.106901    1.863830   -0.144945
  O      0.190867    0.317507   -5.542890
  H      0.057845    0.911542   -6.302126
  H     -0.461601   -0.392991   -5.648567
  O      2.178340   -3.089728    5.085865
  H      2.922272   -3.673385    5.249827
  H      1.382133   -3.671956    5.075214
  O      0.037135   -4.725821    5.179177
  H     -0.204562   -5.005731    4.270846
  H     -0.728713   -4.203097    5.463399
  O     -1.271498   -0.769186   -2.724269
  H     -1.670438   -0.066896   -3.269217
  H     -0.325122   -0.828267   -2.978775
  O     -2.468991   -1.865750   -0.567605
  H     -3.403424   -1.645341   -0.675590
  H     -2.027906   -1.363402   -1.288766
  O      2.219572   -2.832970   -1.384324
  H      2.636394   -2.347093   -0.660225
  H      1.355375   -3.121693   -1.041045

----------------------------
CARTESIAN COORDINATES (A.U.)
----------------------------
  NO LB      ZA    FRAG     MASS         X           Y           Z
   0 H     1.0000    0     1.008    2.416879    0.624600    0.365818
   1 C     6.0000    0    12.011    0.461413    0.242119   -0.153811
   2 H     1.0000    0     1.008    0.360665    2.486598   -3.439682
   3 H     1.0000    0     1.008    0.375379   -1.491129   -1.255758
   4 N     7.0000    0    14.007   -0.528579    2.316899   -1.705161
   5 H     1.0000    0     1.008   -1.044695   -1.982568    2.916878
   6 C     6.0000    0    12.011   -1.157221   -0.054599    2.209652
   7 O     8.0000    0    15.999   -2.188973    2.445035    5.802389
   8 C     6.0000    0    12.011   -0.402361    1.545657    4.474097
   9 H     1.0000    0     1.008   -0.332167    4.022384   -0.775196
  10 O     8.0000    0    15.999    1.866830    1.857369    5.021218
  11 H     1.0000    0     1.008   -2.449458    2.070287   -2.045589
  12 H     1.0000    0     1.008   -3.135253    0.309356    1.779188
  13 O     8.0000    0    15.999   -2.432510  -11.321111    0.281426
  14 H     1.0000    0     1.008   -2.091538  -10.985761    2.076750
  15 H     1.0000    0     1.008   -4.186640  -11.768664    0.163896
  16 O     8.0000    0    15.999    8.257806   -8.342488   -0.339210
  17 H     1.0000    0     1.008    8.046368   -6.930506    0.814871
  18 H     1.0000    0     1.008    7.121581   -7.958195   -1.722876
  19 O     8.0000    0    15.999    1.953162   -5.878394    3.410943
  20 H     1.0000    0     1.008    1.197508   -4.753517    4.669319
  21 H     1.0000    0     1.008    0.923302   -5.789739    1.872138
  22 O     8.0000    0    15.999    2.808908    9.985702    3.028574
  23 H     1.0000    0     1.008    4.311881    9.243074    3.783051
  24 H     1.0000    0     1.008    2.299074   11.335780    4.128003
  25 O     8.0000    0    15.999    7.191705    7.972127    5.248734
  26 H     1.0000    0     1.008    7.024441    7.397084    7.012812
  27 H     1.0000    0     1.008    8.826905    8.752221    5.122956
  28 O     8.0000    0    15.999   -4.743252   -5.352090    3.933204
  29 H     1.0000    0     1.008   -5.183265   -3.789956    4.806792
  30 H     1.0000    0     1.008   -4.731093   -4.868939    2.160560
  31 O     8.0000    0    15.999    2.559962   -1.954254   -6.058061
  32 H     1.0000    0     1.008    3.657521   -0.488863   -5.809667
  33 H     1.0000    0     1.008    3.235603   -3.253963   -4.930177
  34 O     8.0000    0    15.999    5.465932   -1.528395    6.614431
  35 H     1.0000    0     1.008    4.717038   -3.002534    7.423687
  36 H     1.0000    0     1.008    4.061107   -0.468042    6.057250
  37 O     8.0000    0    15.999   -1.453832   -9.331077    4.869786
  38 H     1.0000    0     1.008    0.107954   -8.445303    4.382129
  39 H     1.0000    0     1.008   -2.741931   -8.010002    4.714487
  40 O     8.0000    0    15.999   -8.710900   -1.721439   -7.145256
  41 H     1.0000    0     1.008   -7.498810   -0.350631   -7.507850
  42 H     1.0000    0     1.008   -7.700858   -3.244617   -7.311850
  43 O     8.0000    0    15.999   -0.683714   -8.326713   -5.993105
  44 H     1.0000    0     1.008   -0.100705  -10.030402   -5.805310
  45 H     1.0000    0     1.008   -0.500864   -7.531339   -4.326231
  46 O     8.0000    0    15.999   -5.690766    6.217059   -5.647253
  47 H     1.0000    0     1.008   -5.928825    5.039935   -4.232444
  48 H     1.0000    0     1.008   -4.244740    7.225475   -5.134220
  49 O     8.0000    0    15.999    3.564200    5.534997   -2.023511
  50 H     1.0000    0     1.008    4.387545    5.230557   -0.408440
  51 H     1.0000    0     1.008    4.056283    7.183962   -2.610094
  52 O     8.0000    0    15.999   -0.642608   -6.661579   -1.041259
  53 H     1.0000    0     1.008   -2.161144   -5.604514   -1.070868
  54 H     1.0000    0     1.008   -1.215955   -8.359195   -0.604046
  55 O     8.0000    0    15.999   -5.323660    5.175630    2.685986
  56 H     1.0000    0     1.008   -4.030581    6.269881    1.944373
  57 H     1.0000    0     1.008   -4.368157    4.141377    3.876966
  58 O     8.0000    0    15.999   -2.120561    6.864782   -9.948104
  59 H     1.0000    0     1.008   -3.755996    7.123347   -9.191732
  60 H     1.0000    0     1.008   -1.213022    5.770844   -8.742344
  61 O     8.0000    0    15.999   -0.336847   -3.098397    7.192216
  62 H     1.0000    0     1.008   -1.648497   -4.182814    7.904588
  63 H     1.0000    0     1.008    0.478457   -2.334536    8.640677
  64 O     8.0000    0    15.999    2.231107    7.548738   12.196138
  65 H     1.0000    0     1.008    1.950937    7.331170   13.977816
  66 H     1.0000    0     1.008    0.915502    6.570922   11.345012
  67 O     8.0000    0    15.999    6.843489    1.137152   10.656695
  68 H     1.0000    0     1.008    6.566024    0.260446    9.027017
  69 H     1.0000    0     1.008    8.434744    0.536183   11.292733
  70 O     8.0000    0    15.999   -0.958796    8.164321   -4.276020
  71 H     1.0000    0     1.008    0.490013    9.207546   -4.663843
  72 H     1.0000    0     1.008   -0.467022    6.494004   -4.907822
  73 O     8.0000    0    15.999    6.433720   -3.899657    2.143223
  74 H     1.0000    0     1.008    6.710932   -2.926462    3.678222
  75 H     1.0000    0     1.008    4.835272   -4.783651    2.534201
  76 O     8.0000    0    15.999    2.240143   -1.445363   11.634810
  77 H     1.0000    0     1.008    2.961161   -3.125480   11.392793
  78 H     1.0000    0     1.008    3.663459   -0.291879   11.530218
  79 O     8.0000    0    15.999   -9.590887    1.857698    3.393080
  80 H     1.0000    0     1.008   -8.544087    3.340553    3.170897
  81 H     1.0000    0     1.008   -8.565555    0.719114    4.415137
  82 O     8.0000    0    15.999    8.253851    0.338848   -0.559707
  83 H     1.0000    0     1.008    7.773264   -1.251171    0.215838
  84 H     1.0000    0     1.008    7.568803    1.641429    0.551645
  85 O     8.0000    0    15.999   -4.166484   -5.857696    9.536147
  86 H     1.0000    0     1.008   -5.201297   -6.292831    8.101236
  87 H     1.0000    0     1.008   -5.022939   -4.471169   10.392877
  88 O     8.0000    0    15.999    4.022417    9.765676   -5.423875
  89 H     1.0000    0     1.008    4.857054   11.265550   -5.999766
  90 H     1.0000    0     1.008    4.514286    8.411774   -6.574338
  91 O     8.0000    0    15.999    5.396317    5.546530   -8.265624
  92 H     1.0000    0     1.008    5.674050    5.025526   -9.978187
  93 H     1.0000    0     1.008    5.962366    4.156999   -7.174639
  94 O     8.0000    0    15.999   -2.824735   -3.559668  -11.730099
  95 H     1.0000    0     1.008   -3.793291   -4.162173  -10.255764
  96 H     1.0000    0     1.008   -1.157286   -4.334339  -11.489018
  97 O     8.0000    0    15.999   -1.014027    7.119565    0.668929
  98 H     1.0000    0     1.008   -1.074539    7.723686   -1.096435
  99 H     1.0000    0     1.008    0.331459    8.063288    1.469690
 100 O     8.0000    0    15.999   -5.058630    1.720887   -8.168201
 101 H     1.0000    0     1.008   -5.000881    1.805632   -9.993234
 102 H     1.0000    0     1.008   -5.292744    3.427195   -7.509890
 103 O     8.0000    0    15.999   -6.086354   -0.881108    6.293792
 104 H     1.0000    0     1.008   -6.361879   -1.056063    8.099248
 105 H     1.0000    0     1.008   -4.644424    0.270787    6.134700
 106 O     8.0000    0    15.999    5.696721    1.895771   -4.751992
 107 H     1.0000    0     1.008    6.893072    1.189976   -3.546415
 108 H     1.0000    0     1.008    4.745725    3.161624   -3.747160
 109 O     8.0000    0    15.999   -6.323260   -1.584713   11.523146
 110 H     1.0000    0     1.008   -7.642936   -1.371104   12.749493
 111 H     1.0000    0     1.008   -4.820059   -0.704549   12.202534
 112 O     8.0000    0    15.999   -1.759889    4.926385   10.100602
 113 H     1.0000    0     1.008   -1.710110    4.006947    8.460497
 114 H     1.0000    0     1.008   -3.181456    6.051683    9.971332
 115 O     8.0000    0    15.999   -1.167782    4.018130  -14.127857
 116 H     1.0000    0     1.008   -2.716467    3.035408  -14.245617
 117 H     1.0000    0     1.008   -1.513175    5.290330  -12.822590
 118 O     8.0000    0    15.999   -9.189053   -1.196236   -2.197492
 119 H     1.0000    0     1.008  -10.886109   -0.840808   -1.682859
 120 H     1.0000    0     1.008   -9.185775   -1.400187   -4.065583
 121 O     8.0000    0    15.999    6.819416    6.336710   10.022359
 122 H     1.0000    0     1.008    6.808065    4.499668   10.212849
 123 H     1.0000    0     1.008    5.252503    6.910510   10.805974
 124 O     8.0000    0    15.999   -5.197860    0.710610  -13.399836
 125 H     1.0000    0     1.008   -4.341155   -0.880574  -12.997078
 126 H     1.0000    0     1.008   -6.695093    0.266388  -14.318290
 127 O     8.0000    0    15.999   -4.780584   -5.222505   -7.346449
 128 H     1.0000    0     1.008   -3.860222   -3.839491   -6.432465
 129 H     1.0000    0     1.008   -3.771017   -6.707695   -7.012979
 130 O     8.0000    0    15.999   -2.235458    0.808307   13.224510
 131 H     1.0000    0     1.008   -0.696420   -0.142949   12.896988
 132 H     1.0000    0     1.008   -2.074036    2.330858   12.188021
 133 O     8.0000    0    15.999    0.567009    3.820642   -6.677481
 134 H     1.0000    0     1.008    2.225042    4.497841   -7.059899
 135 H     1.0000    0     1.008    0.359263    2.411707   -7.879740
 136 O     8.0000    0    15.999    1.539332   -5.397544   -9.824295
 137 H     1.0000    0     1.008    0.832829   -6.538763   -8.562339
 138 H     1.0000    0     1.008    2.084763   -3.932844   -8.831684
 139 O     8.0000    0    15.999    5.742048    3.897031    2.358870
 140 H     1.0000    0     1.008    4.368338    3.157452    3.344900
 141 H     1.0000    0     1.008    6.399354    5.269353    3.385568
 142 O     8.0000    0    15.999   -5.734204    2.681144   -1.902552
 143 H     1.0000    0     1.008   -6.995409    1.340079   -1.924645
 144 H     1.0000    0     1.008   -5.871193    3.522129   -0.273906
 145 O     8.0000    0    15.999    0.360686    0.600002  -10.474543
 146 H     1.0000    0     1.008    0.109311    1.722565  -11.909293
 147 H     1.0000    0     1.008   -0.872299   -0.742645  -10.674245
 148 O     8.0000    0    15.999    4.116466   -5.838739    9.610892
 149 H     1.0000    0     1.008    5.522295   -6.941691    9.920736
 150 H     1.0000    0     1.008    2.611854   -6.938992    9.590764
 151 O     8.0000    0    15.999    0.070174   -8.930508    9.787227
 152 H     1.0000    0     1.008   -0.386566   -9.459460    8.070729
 153 H     1.0000    0     1.008   -1.377068   -7.942703   10.324328
 154 O     8.0000    0    15.999   -2.402782   -1.453551   -5.148122
 155 H     1.0000    0     1.008   -3.156670   -0.126415   -6.177925
 156 H     1.0000    0     1.008   -0.614392   -1.565197   -5.629068
 157 O     8.0000    0    15.999   -4.665718   -3.525756   -1.072619
 158 H     1.0000    0     1.008   -6.431540   -3.109244   -1.276679
 159 H     1.0000    0     1.008   -3.832187   -2.576457   -2.435414
 160 O     8.0000    0    15.999    4.194383   -5.353537   -2.615993
 161 H     1.0000    0     1.008    4.982063   -4.435362   -1.247645
 162 H     1.0000    0     1.008    2.561287   -5.899144   -1.967291

--------------------------------
INTERNAL COORDINATES (ANGSTROEM)
--------------------------------
 H      0   0   0     0.000000000000     0.00000000     0.00000000
 C      1   0   0     1.089662344941     0.00000000     0.00000000
 H      2   1   0     2.106416651557    97.33154663     0.00000000
 H      2   1   3     1.087820944175   109.36760160    94.54711110
 N      3   2   1     1.035365591034    39.71740442   239.44782179
 H      2   1   3     2.159064245261   105.18338561   185.49787192
 C      6   2   1     1.088343633777    41.43183297   104.59966350
 O      7   6   2     2.379558901170   105.00520840   205.47395435
 C      8   7   6     1.270601001889    34.82131636    91.13591279
 H      5   3   2     1.033196291574   107.50380833   122.58086765
 O      9   8   7     1.246179393308   122.60779137   182.64330036
 H      5   3   2     1.040541186889   107.54078324   237.34639756
 H      7   6   2     1.088404716996   106.88583872   120.22828205
 O      6   2   1     5.187016947373   111.67795768   251.63810827
 H     14   6   2     0.983175179481    62.75779812   152.10159947
 H     14   6   2     0.959999338659   112.91451857   249.56373852
 O      4   2   1     5.547883044309   118.20803401    21.89169027
 H     17   4   2     0.971483781499    57.70618482    12.19632442
 H     17   4   2     0.969018580955    47.95450057   209.31206643
 O      6   2   1     2.614408903611   106.33398951   304.80729022
 H     20   6   2     0.978601805063    48.73438149   135.76136559
 H     20   6   2     0.980962872686    62.75284048   291.81101685
 O     10   5   3     4.095441123265   161.43968170   289.37443381
 H     23  10   5     0.972831849417   102.84190149   337.08036730
 H     23  10   5     0.960042669500   139.21717761   202.12835985
 O     24  23  10     1.837465702983   177.62666855   171.86211253
 H     26  24  23     0.985836357127   115.99030855    93.17660488
 H     26  24  23     0.961042814025   124.07635137   318.38490640
 O      6   2   1     2.701703495995   140.99560392   203.56106281
 H     29   6   2     0.975328438747    73.01793850   249.61434526
 H     29   6   2     0.972283012753    68.25977382     2.40852373
 O      4   2   1     2.802591676046   122.85619731   294.33537862
 H     32   4   2     0.977719524838    93.08249313    18.63938888
 H     32   4   2     0.978313289008    70.06392988   123.46093250
 O     11   9   8     2.747406204205   130.76483889   111.94689332
 H     35  11   9     0.974149442576   112.03065501   335.87888140
 H     35  11   9     0.976949268176     5.91849774   355.45698350
 O     15  14   6     1.750744536227   160.29116243     0.32187075
 H     38  15  14     0.984551206821   100.29042968   303.15269586
 H     38  15  14     0.979843637571    98.73928282    48.01501338
 O     12   5   3     4.720943892513   146.91875257    39.17957361
 H     41  12   5     0.987131871384    48.90867977   290.27398981
 H     41  12   5     0.971153598452    91.05247277    37.45437175
 O     34  32   4     3.438579336660   103.21463677    92.86494894
 H     44  34  32     0.958047797705   121.56273643   150.62862378
 H     44  34  32     0.982122750319    57.25526519   240.25076916
 O     12   5   3     3.374880212342   120.84436699   305.94728261
 H     47  12   5     0.982044376773    38.94319383   209.07496516
 H     47  12   5     0.971598438154    78.40714913   338.69886624
 O     10   5   3     2.308327044279   104.85954189   326.29728739
 H     50  10   5     0.972741308230    95.23372737   252.12228992
 H     50  10   5     0.962071240787   130.43686185   132.76168663
 O     46  44  34     1.799795042283   166.64176356   184.32820461
 H     53  46  44     0.979223226031    99.48723293   272.71120970
 H     53  46  44     0.976010087981    90.37431513    18.93452101
 O      8   7   6     2.749399298966    87.21124167   219.49037856
 H     56   8   7     0.978538372364    97.44996265   278.45521182
 H     56   8   7     0.975912621236     5.90714036   111.06841506
 O     49  47  12     2.790912559692    91.40960325   106.07967584
 H     59  49  47     0.963277140505    41.33823796    41.44083062
 H     59  49  47     0.986341902174    69.25491464   254.45185350
 O     21  20   6     1.791300419201   171.80210620   128.51580862
 H     62  21  20     0.976308078303   108.82221903   336.33959616
 H     62  21  20     0.968009815289   126.32021881   102.28363844
 O     27  26  24     3.736827430286   138.53607055   351.99471083
 H     65  27  26     0.961328545657   145.28571471   195.41248164
 H     65  27  26     0.977382672419    97.69400568    61.87544651
 O     35  11   9     2.663959571646    95.20974037   232.32172790
 H     68  35  11     0.990205046530     8.89443279   260.58095454
 H     68  35  11     0.960977306480   110.22987174   195.75585857
 O     49  47  12     1.864579403717   161.59760978    36.81305225
 H     71  49  47     0.966784140185   147.13873498   118.53675965
 H     71  49  47     0.980189157005    85.65525052    10.40948023
 O     18  17   4     1.948004459511   155.58014602   358.93420558
 H     74  18  17     0.972906166504   132.14739760   172.09244194
 H     74  18  17     0.988491836735    93.48368346    62.71446465
 O     64  62  21     1.897600360549   169.62370464   295.18409870
 H     77  64  62     0.975931493825    81.75552669    18.51629372
 H     77  64  62     0.971050103083   119.29649785   121.35364067
 O     56   8   7     2.884762567671    94.27818238    87.03836008
 H     80  56   8     0.967688037753    16.78567139   141.40970570
 H     80  56   8     0.974645680178    90.71394942   355.86792912
 O     74  18  17     2.829174833870   108.73260226   275.82026249
 H     83  74  18     0.970083408636     7.79825374     1.85301442
 H     83  74  18     0.975914279106    97.40183966   191.48416929
 O     63  62  21     1.818358983860   172.21895840   177.69249024
 H     86  63  62     0.964082961436    99.12960331   128.31755589
 H     86  63  62     0.974312598236   101.22972134    19.45852202
 O     72  71  49     1.934722467500   153.82967517   235.02334119
 H     89  72  71     0.958072647383   129.64235252   169.16233600
 H     89  72  71     0.975546995223   105.98586443    40.48540018
 O     91  89  72     1.821480013416   170.51780710   288.01918577
 H     92  91  89     0.958593330278   138.00666185   171.64179283
 H     92  91  89     0.981685409773   114.37612244   341.84555705
 O     43  41  12     3.486019211567   120.52773211   278.35390310
 H     95  43  41     0.986426568076    25.89414189   167.64175906
 H     95  43  41     0.981280784661   126.75347342   139.63777231
 O     57  56   8     1.790490564085   157.40041477    38.18306155
 H     98  57  56     0.987895045034   114.13133438   119.11487122
 H     98  57  56     0.967420105557   128.36541707   256.28426812
 O     42  41  12     1.729505198180   171.96246283    75.09439008
 H    101  42  41     0.967289479067   104.75597890    88.50348957
 H    101  42  41     0.975707053966   114.81023742   207.42210537
 O     30  29   6     1.793601458764   177.35884853    97.44342326
 H    104  30  29     0.970891256845   112.94805325   138.87726210
 H    104  30  29     0.980241018662   106.77366216   253.92153937
 O     33  32   4     1.752167194904   168.51912836    40.43180383
 H    107  33  32     0.973285944178   109.48780088    33.33492534
 H    107  33  32     0.992325965984   110.18157983   279.83878243
 O     88  86  63     1.778851923836   169.42765464    21.99468399
 H    110  88  86     0.960001238497   127.57420738   167.85622118
 H    110  88  86     0.989415553360   102.43878018   290.29277209
 O     67  65  27     1.787552240929   172.58849424   194.09485245
 H    113  67  65     0.995330213191   122.56437033   173.49118531
 H    113  67  65     0.961860003478   110.13427048    49.13139303
 O     59  49  47     2.723157882768   148.62329142   321.25442904
 H    116  59  49     0.972597682104   101.05819788    37.00328408
 H    116  59  49     0.981693069911     9.83359941   150.14910258
 O     41  12   5     2.645083579614    57.08820447   142.63016935
 H    119  41  12     0.957090630980   113.08276084   144.07601655
 H    119  41  12     0.994427013569     5.39207053   156.25719474
 O     27  26  24     1.692026965072   178.00026887   151.44454876
 H    122  27  26     0.977351687439   115.29796940   313.78300235
 H    122  27  26     0.975541406538   110.57085766   194.75945826
 O    117 116  59     1.854185905844   159.39308618   293.85299352
 H    125 117 116     0.979767358165   107.15945134   310.96477713
 H    125 117 116     0.958760156525   128.72174047   182.22589242
 O     96  95  43     1.719879579942   166.23390977   231.88138168
 H    128  96  95     1.003367962362    92.64094856    50.41632160
 H    128  96  95     0.966558996027   105.11763148   305.46457484
 O    112 110  88     1.674520381295   177.53529759    73.34777058
 H    131 112 110     0.972995346287   112.25915401   290.23946916
 H    131 112 110     0.978409446491   106.49644024    44.22007454
 O     61  59  49     1.773766770246   176.89925039   206.94267730
 H    134  61  59     0.969119092746    97.87467476    26.15138436
 H    134  61  59     0.986271107187    89.04072725   281.92175165
 O     97  95  43     1.768865410559   157.37430798   332.73642175
 H    137  97  95     0.974901664057   103.22637018    56.22654458
 H    137  97  95     0.979781325587   104.65648681   308.05750442
 O     51  50  10     1.776567903458   166.10057720    64.81654286
 H    140  51  50     0.976659635410   107.41259397   292.60435818
 H    140  51  50     0.971358116780   107.97224563   179.26155091
 O     48  47  12     1.757487567107   167.90571828   345.07546073
 H    143  48  47     0.974258654210   117.95495701   243.56779821
 H    143  48  47     0.972665918335   106.99416350   122.97933788
 O    136 134  61     1.674683429286   164.07410799    55.42852498
 H    146 136 134     0.973145773756   106.86860775   327.71336351
 H    146 136 134     0.970406745394   120.53957394   207.27871281
 O     78  77  64     1.823295777732   156.39792596    33.36270897
 H    149  78  77     0.959674222034   130.57889297   141.69330728
 H    149  78  77     0.986432109388   101.52147907   264.06932615
 O    151 149  78     1.711859011172   175.47946349   276.82771330
 H    152 151 149     0.980730315125   108.24543217   209.31821878
 H    152 151 149     0.969817316870   107.84422788    98.14063558
 O    129 128  96     1.628144534809   175.40333920    30.25123718
 H    155 129 128     0.974337408051    97.55784047    21.90516251
 H    155 129 128     0.981779204494   107.56189994   271.29036972
 O     54  53  46     1.722398869690   175.06985293   248.79881591
 H    158  54  53     0.966129089781   152.87372234   176.23932883
 H    158  54  53     0.983352345528    88.94002063    57.54812695
 O     34  32   4     1.729601915059   172.20640761   355.13308998
 H    161  34  32     0.966507094762   109.51358872   303.03922794
 H    161  34  32     0.973672341871   100.35500887    53.73968544

---------------------------
INTERNAL COORDINATES (A.U.)
---------------------------
 H      0   0   0     0.000000000000     0.00000000     0.00000000
 C      1   0   0     2.059163410386     0.00000000     0.00000000
 H      2   1   0     3.980550595374    97.33154663     0.00000000
 H      2   1   3     2.055683667235   109.36760160    94.54711110
 N      3   2   1     1.956557415541    39.71740442   239.44782179
 H      2   1   3     4.080040129086   105.18338561   185.49787192
 C      6   2   1     2.056671407436    41.43183297   104.59966350
 O      7   6   2     4.496714642745   105.00520840   205.47395435
 C      8   7   6     2.401087919055    34.82131636    91.13591279
 H      5   3   2     1.952458033657   107.50380833   122.58086765
 O      9   8   7     2.354937767088   122.60779137   182.64330036
 H      5   3   2     1.966337874286   107.54078324   237.34639756
 H      7   6   2     2.056786837991   106.88583872   120.22828205
 O      6   2   1     9.802041482543   111.67795768   251.63810827
 H     14   6   2     1.857931830888    62.75779812   152.10159947
 H     14   6   2     1.814135838812   112.91451857   249.56373852
 O      4   2   1    10.483979576769   118.20803401    21.89169027
 H     17   4   2     1.835838290579    57.70618482    12.19632442
 H     17   4   2     1.831179736685    47.95450057   209.31206643
 O      6   2   1     4.940516829910   106.33398951   304.80729022
 H     20   6   2     1.849289405730    48.73438149   135.76136559
 H     20   6   2     1.853751176920    62.75284048   291.81101685
 O     10   5   3     7.739262120570   161.43968170   289.37443381
 H     23  10   5     1.838385769755   102.84190149   337.08036730
 H     23  10   5     1.814217722233   139.21717761   202.12835985
 O     24  23  10     3.472306959111   177.62666855   171.86211253
 H     26  24  23     1.862960727833   115.99030855    93.17660488
 H     26  24  23     1.816107721480   124.07635137   318.38490640
 O      6   2   1     5.105479702488   140.99560392   203.56106281
 H     29   6   2     1.843103639856    73.01793850   249.61434526
 H     29   6   2     1.837348618767    68.25977382     2.40852373
 O      4   2   1     5.296130732935   122.85619731   294.33537862
 H     32   4   2     1.847622137732    93.08249313    18.63938888
 H     32   4   2     1.848744189401    70.06392988   123.46093250
 O     11   9   8     5.191845304583   130.76483889   111.94689332
 H     35  11   9     1.840875659980   112.03065501   335.87888140
 H     35  11   9     1.846166563587     5.91849774   355.45698350
 O     15  14   6     3.308427703928   160.29116243     0.32187075
 H     38  15  14     1.860532145713   100.29042968   303.15269586
 H     38  15  14     1.851636129074    98.73928282    48.01501338
 O     12   5   3     8.921291050457   146.91875257    39.17957361
 H     41  12   5     1.865408894980    48.90867977   290.27398981
 H     41  12   5     1.835214335046    91.05247277    37.45437175
 O     34  32   4     6.497973236047   103.21463677    92.86494894
 H     44  34  32     1.810447960870   121.56273643   150.62862378
 H     44  34  32     1.855943027996    57.25526519   240.25076916
 O     12   5   3     6.377599336117   120.84436699   305.94728261
 H     47  12   5     1.855794923458    38.94319383   209.07496516
 H     47  12   5     1.836054960256    78.40714913   338.69886624
 O     10   5   3     4.362105941212   104.85954189   326.29728739
 H     50  10   5     1.838214671707    95.23372737   252.12228992
 H     50  10   5     1.818051166408   130.43686185   132.76168663
 O     46  44  34     3.401119727104   166.64176356   184.32820461
 H     53  46  44     1.850463721174    99.48723293   272.71120970
 H     53  46  44     1.844391770229    90.37431513    18.93452101
 O      8   7   6     5.195611707841    87.21124167   219.49037856
 H     56   8   7     1.849169535301    97.44996265   278.45521182
 H     56   8   7     1.844207584773     5.90714036   111.06841506
 O     49  47  12     5.274060401538    91.40960325   106.07967584
 H     59  49  47     1.820329986620    41.33823796    41.44083062
 H     59  49  47     1.863916069519    69.25491464   254.45185350
 O     21  20   6     3.385067215869   171.80210620   128.51580862
 H     62  21  20     1.844954890328   108.82221903   336.33959616
 H     62  21  20     1.829273445844   126.32021881   102.28363844
 O     27  26  24     7.061580452966   138.53607055   351.99471083
 H     65  27  26     1.816647676012   145.28571471   195.41248164
 H     65  27  26     1.846985578912    97.69400568    61.87544651
 O     35  11   9     5.034154022250    95.20974037   232.32172790
 H     68  35  11     1.871216354369     8.89443279   260.58095454
 H     68  35  11     1.815983930160   110.22987174   195.75585857
 O     49  47  12     3.523544427976   161.59760978    36.81305225
 H     71  49  47     1.826957255568   147.13873498   118.53675965
 H     71  49  47     1.852289066179    85.65525052    10.40948023
 O     18  17   4     3.681194936133   155.58014602   358.93420558
 H     74  18  17     1.838526208696   132.14739760   172.09244194
 H     74  18  17     1.867978857047    93.48368346    62.71446465
 O     64  62  21     3.585944993069   169.62370464   295.18409870
 H     77  64  62     1.844243248798    81.75552669    18.51629372
 H     77  64  62     1.835018757143   119.29649785   121.35364067
 O     56   8   7     5.451411214286    94.27818238    87.03836008
 H     80  56   8     1.828665374425    16.78567139   141.40970570
 H     80  56   8     1.841813413146    90.71394942   355.86792912
 O     74  18  17     5.346365620997   108.73260226   275.82026249
 H     83  74  18     1.833191969383     7.79825374     1.85301442
 H     83  74  18     1.844210717693    97.40183966   191.48416929
 O     63  62  21     3.436200492650   172.21895840   177.69249024
 H     86  63  62     1.821852767493    99.12960331   128.31755589
 H     86  63  62     1.841183979496   101.22972134    19.45852202
 O     72  71  49     3.656095608720   153.82967517   235.02334119
 H     89  72  71     1.810494919955   129.64235252   169.16233600
 H     89  72  71     1.843516651741   105.98586443    40.48540018
 O     91  89  72     3.442098383768   170.51780710   288.01918577
 H     92  91  89     1.811478868028   138.00666185   171.64179283
 H     92  91  89     1.855116574137   114.37612244   341.84555705
 O     43  41  12     6.587621607449   120.52773211   278.35390310
 H     95  43  41     1.864076064887    25.89414189   167.64175906
 H     95  43  41     1.854351943490   126.75347342   139.63777231
 O     57  56   8     3.383536811490   157.40041477    38.18306155
 H     98  57  56     1.866851084172   114.13133438   119.11487122
 H     98  57  56     1.828159055953   128.36541707   256.28426812
 O     42  41  12     3.268291171754   171.96246283    75.09439008
 H    101  42  41     1.827912207661   104.75597890    88.50348957
 H    101  42  41     1.843819118932   114.81023742   207.42210537
 O     30  29   6     3.389415550466   177.35884853    97.44342326
 H    104  30  29     1.834718581256   112.94805325   138.87726210
 H    104  30  29     1.852387070508   106.77366216   253.92153937
 O     33  32   4     3.311116139210   168.51912836    40.43180383
 H    107  33  32     1.839243884492   109.48780088    33.33492534
 H    107  33  32     1.875224311289   110.18157983   279.83878243
 O     88  86  63     3.361542968850   169.42765464    21.99468399
 H    110  88  86     1.814139428985   127.57420738   167.85622118
 H    110  88  86     1.869724428493   102.43878018   290.29277209
 O     67  65  27     3.377984185432   172.58849424   194.09485245
 H    113  67  65     1.880901515748   122.56437033   173.49118531
 H    113  67  65     1.817651985746   110.13427048    49.13139303
 O     59  49  47     5.146022617861   148.62329142   321.25442904
 H    116  59  49     1.837943257663   101.05819788    37.00328408
 H    116  59  49     1.855131049700     9.83359941   150.14910258
 O     41  12   5     4.998483566802    57.08820447   142.63016935
 H    119  41  12     1.808639177894   113.08276084   144.07601655
 H    119  41  12     1.879194715818     5.39207053   156.25719474
 O     27  26  24     3.197467575196   178.00026887   151.44454876
 H    122  27  26     1.846927025785   115.29796940   313.78300235
 H    122  27  26     1.843506090656   110.57085766   194.75945826
 O    117 116  59     3.503903563422   159.39308618   293.85299352
 H    125 117 116     1.851491981887   107.15945134   310.96477713
 H    125 117 116     1.811794123947   128.72174047   182.22589242
 O     96  95  43     3.250101389414   166.23390977   231.88138168
 H    128  96  95     1.896090660414    92.64094856    50.41632160
 H    128  96  95     1.826531794770   105.11763148   305.46457484
 O    112 110  88     3.164384926316   177.53529759    73.34777058
 H    131 112 110     1.838694734063   112.25915401   290.23946916
 H    131 112 110     1.848925900710   106.49644024    44.22007454
 O     61  59  49     3.351933421214   176.89925039   206.94267730
 H    134  61  59     1.831369676444    97.87467476    26.15138436
 H    134  61  59     1.863782286382    89.04072725   281.92175165
 O     97  95  43     3.342671193722   157.37430798   332.73642175
 H    137  97  95     1.842297152571   103.22637018    56.22654458
 H    137  97  95     1.851518376489   104.65648681   308.05750442
 O     51  50  10     3.357226795851   166.10057720    64.81654286
 H    140  51  50     1.845619236980   107.41259397   292.60435818
 H    140  51  50     1.835600818675   107.97224563   179.26155091
 O     48  47  12     3.321170185604   167.90571828   345.07546073
 H    143  48  47     1.841082040060   117.95495701   243.56779821
 H    143  48  47     1.838072205452   106.99416350   122.97933788
 O    136 134  61     3.164693042366   164.07410799    55.42852498
 H    146 136 134     1.838979000782   106.86860775   327.71336351
 H    146 136 134     1.833802987305   120.53957394   207.27871281
 O     78  77  64     3.445529681048   156.39792596    33.36270897
 H    149  78  77     1.813521457427   130.57889297   141.69330728
 H    149  78  77     1.864086536449   101.52147907   264.06932615
 O    151 149  78     3.234944711000   175.47946349   276.82771330
 H    152 151 149     1.853311706821   108.24543217   209.31821878
 H    152 151 149     1.832689128818   107.84422788    98.14063558
 O    129 128  96     3.076747277230   175.40333920    30.25123718
 H    155 129 128     1.841230863251    97.55784047    21.90516251
 H    155 129 128     1.855293820472   107.56189994   271.29036972
 O     54  53  46     3.254862157090   175.06985293   248.79881591
 H    158  54  53     1.825719389701   152.87372234   176.23932883
 H    158  54  53     1.858266626198    88.94002063    57.54812695
 O     34  32   4     3.268473940167   172.20640761   355.13308998
 H    161  34  32     1.826433715592   109.51358872   303.03922794
 H    161  34  32     1.839974070310   100.35500887    53.73968544

---------------------
BASIS SET INFORMATION
---------------------
There are 4 groups of distinct atoms

 Group   1 Type H   : 5s1p contracted to 3s1p pattern {311/1}
 Group   2 Type C   : 11s6p2d1f contracted to 5s3p2d1f pattern {62111/411/11/1}
 Group   3 Type N   : 11s6p2d1f contracted to 5s3p2d1f pattern {62111/411/11/1}
 Group   4 Type O   : 11s6p2d1f contracted to 5s3p2d1f pattern {62111/411/11/1}

Atom   0H    basis set group =>   1
Atom   1C    basis set group =>   2
Atom   2H    basis set group =>   1
Atom   3H    basis set group =>   1
Atom   4N    basis set group =>   3
Atom   5H    basis set group =>   1
Atom   6C    basis set group =>   2
Atom   7O    basis set group =>   4
Atom   8C    basis set group =>   2
Atom   9H    basis set group =>   1
Atom  10O    basis set group =>   4
Atom  11H    basis set group =>   1
Atom  12H    basis set group =>   1
Atom  13O    basis set group =>   4
Atom  14H    basis set group =>   1
Atom  15H    basis set group =>   1
Atom  16O    basis set group =>   4
Atom  17H    basis set group =>   1
Atom  18H    basis set group =>   1
Atom  19O    basis set group =>   4
Atom  20H    basis set group =>   1
Atom  21H    basis set group =>   1
Atom  22O    basis set group =>   4
Atom  23H    basis set group =>   1
Atom  24H    basis set group =>   1
Atom  25O    basis set group =>   4
Atom  26H    basis set group =>   1
Atom  27H    basis set group =>   1
Atom  28O    basis set group =>   4
Atom  29H    basis set group =>   1
Atom  30H    basis set group =>   1
Atom  31O    basis set group =>   4
Atom  32H    basis set group =>   1
Atom  33H    basis set group =>   1
Atom  34O    basis set group =>   4
Atom  35H    basis set group =>   1
Atom  36H    basis set group =>   1
Atom  37O    basis set group =>   4
Atom  38H    basis set group =>   1
Atom  39H    basis set group =>   1
Atom  40O    basis set group =>   4
Atom  41H    basis set group =>   1
Atom  42H    basis set group =>   1
Atom  43O    basis set group =>   4
Atom  44H    basis set group =>   1
Atom  45H    basis set group =>   1
Atom  46O    basis set group =>   4
Atom  47H    basis set group =>   1
Atom  48H    basis set group =>   1
Atom  49O    basis set group =>   4
Atom  50H    basis set group =>   1
Atom  51H    basis set group =>   1
Atom  52O    basis set group =>   4
Atom  53H    basis set group =>   1
Atom  54H    basis set group =>   1
Atom  55O    basis set group =>   4
Atom  56H    basis set group =>   1
Atom  57H    basis set group =>   1
Atom  58O    basis set group =>   4
Atom  59H    basis set group =>   1
Atom  60H    basis set group =>   1
Atom  61O    basis set group =>   4
Atom  62H    basis set group =>   1
Atom  63H    basis set group =>   1
Atom  64O    basis set group =>   4
Atom  65H    basis set group =>   1
Atom  66H    basis set group =>   1
Atom  67O    basis set group =>   4
Atom  68H    basis set group =>   1
Atom  69H    basis set group =>   1
Atom  70O    basis set group =>   4
Atom  71H    basis set group =>   1
Atom  72H    basis set group =>   1
Atom  73O    basis set group =>   4
Atom  74H    basis set group =>   1
Atom  75H    basis set group =>   1
Atom  76O    basis set group =>   4
Atom  77H    basis set group =>   1
Atom  78H    basis set group =>   1
Atom  79O    basis set group =>   4
Atom  80H    basis set group =>   1
Atom  81H    basis set group =>   1
Atom  82O    basis set group =>   4
Atom  83H    basis set group =>   1
Atom  84H    basis set group =>   1
Atom  85O    basis set group =>   4
Atom  86H    basis set group =>   1
Atom  87H    basis set group =>   1
Atom  88O    basis set group =>   4
Atom  89H    basis set group =>   1
Atom  90H    basis set group =>   1
Atom  91O    basis set group =>   4
Atom  92H    basis set group =>   1
Atom  93H    basis set group =>   1
Atom  94O    basis set group =>   4
Atom  95H    basis set group =>   1
Atom  96H    basis set group =>   1
Atom  97O    basis set group =>   4
Atom  98H    basis set group =>   1
Atom  99H    basis set group =>   1
Atom 100O    basis set group =>   4
Atom 101H    basis set group =>   1
Atom 102H    basis set group =>   1
Atom 103O    basis set group =>   4
Atom 104H    basis set group =>   1
Atom 105H    basis set group =>   1
Atom 106O    basis set group =>   4
Atom 107H    basis set group =>   1
Atom 108H    basis set group =>   1
Atom 109O    basis set group =>   4
Atom 110H    basis set group =>   1
Atom 111H    basis set group =>   1
Atom 112O    basis set group =>   4
Atom 113H    basis set group =>   1
Atom 114H    basis set group =>   1
Atom 115O    basis set group =>   4
Atom 116H    basis set group =>   1
Atom 117H    basis set group =>   1
Atom 118O    basis set group =>   4
Atom 119H    basis set group =>   1
Atom 120H    basis set group =>   1
Atom 121O    basis set group =>   4
Atom 122H    basis set group =>   1
Atom 123H    basis set group =>   1
Atom 124O    basis set group =>   4
Atom 125H    basis set group =>   1
Atom 126H    basis set group =>   1
Atom 127O    basis set group =>   4
Atom 128H    basis set group =>   1
Atom 129H    basis set group =>   1
Atom 130O    basis set group =>   4
Atom 131H    basis set group =>   1
Atom 132H    basis set group =>   1
Atom 133O    basis set group =>   4
Atom 134H    basis set group =>   1
Atom 135H    basis set group =>   1
Atom 136O    basis set group =>   4
Atom 137H    basis set group =>   1
Atom 138H    basis set group =>   1
Atom 139O    basis set group =>   4
Atom 140H    basis set group =>   1
Atom 141H    basis set group =>   1
Atom 142O    basis set group =>   4
Atom 143H    basis set group =>   1
Atom 144H    basis set group =>   1
Atom 145O    basis set group =>   4
Atom 146H    basis set group =>   1
Atom 147H    basis set group =>   1
Atom 148O    basis set group =>   4
Atom 149H    basis set group =>   1
Atom 150H    basis set group =>   1
Atom 151O    basis set group =>   4
Atom 152H    basis set group =>   1
Atom 153H    basis set group =>   1
Atom 154O    basis set group =>   4
Atom 155H    basis set group =>   1
Atom 156H    basis set group =>   1
Atom 157O    basis set group =>   4
Atom 158H    basis set group =>   1
Atom 159H    basis set group =>   1
Atom 160O    basis set group =>   4
Atom 161H    basis set group =>   1
Atom 162H    basis set group =>   1
---------------------------------
AUXILIARY/J BASIS SET INFORMATION
---------------------------------
There are 4 groups of distinct atoms

 Group   1 Type H   : 5s2p1d contracted to 3s1p1d pattern {311/2/1}
 Group   2 Type C   : 12s5p4d2f1g contracted to 6s4p3d1f1g pattern {711111/2111/211/2/1}
 Group   3 Type N   : 12s5p4d2f1g contracted to 6s4p3d1f1g pattern {711111/2111/211/2/1}
 Group   4 Type O   : 12s5p4d2f1g contracted to 6s4p3d1f1g pattern {711111/2111/211/2/1}

Atom   0H    basis set group =>   1
Atom   1C    basis set group =>   2
Atom   2H    basis set group =>   1
Atom   3H    basis set group =>   1
Atom   4N    basis set group =>   3
Atom   5H    basis set group =>   1
Atom   6C    basis set group =>   2
Atom   7O    basis set group =>   4
Atom   8C    basis set group =>   2
Atom   9H    basis set group =>   1
Atom  10O    basis set group =>   4
Atom  11H    basis set group =>   1
Atom  12H    basis set group =>   1
Atom  13O    basis set group =>   4
Atom  14H    basis set group =>   1
Atom  15H    basis set group =>   1
Atom  16O    basis set group =>   4
Atom  17H    basis set group =>   1
Atom  18H    basis set group =>   1
Atom  19O    basis set group =>   4
Atom  20H    basis set group =>   1
Atom  21H    basis set group =>   1
Atom  22O    basis set group =>   4
Atom  23H    basis set group =>   1
Atom  24H    basis set group =>   1
Atom  25O    basis set group =>   4
Atom  26H    basis set group =>   1
Atom  27H    basis set group =>   1
Atom  28O    basis set group =>   4
Atom  29H    basis set group =>   1
Atom  30H    basis set group =>   1
Atom  31O    basis set group =>   4
Atom  32H    basis set group =>   1
Atom  33H    basis set group =>   1
Atom  34O    basis set group =>   4
Atom  35H    basis set group =>   1
Atom  36H    basis set group =>   1
Atom  37O    basis set group =>   4
Atom  38H    basis set group =>   1
Atom  39H    basis set group =>   1
Atom  40O    basis set group =>   4
Atom  41H    basis set group =>   1
Atom  42H    basis set group =>   1
Atom  43O    basis set group =>   4
Atom  44H    basis set group =>   1
Atom  45H    basis set group =>   1
Atom  46O    basis set group =>   4
Atom  47H    basis set group =>   1
Atom  48H    basis set group =>   1
Atom  49O    basis set group =>   4
Atom  50H    basis set group =>   1
Atom  51H    basis set group =>   1
Atom  52O    basis set group =>   4
Atom  53H    basis set group =>   1
Atom  54H    basis set group =>   1
Atom  55O    basis set group =>   4
Atom  56H    basis set group =>   1
Atom  57H    basis set group =>   1
Atom  58O    basis set group =>   4
Atom  59H    basis set group =>   1
Atom  60H    basis set group =>   1
Atom  61O    basis set group =>   4
Atom  62H    basis set group =>   1
Atom  63H    basis set group =>   1
Atom  64O    basis set group =>   4
Atom  65H    basis set group =>   1
Atom  66H    basis set group =>   1
Atom  67O    basis set group =>   4
Atom  68H    basis set group =>   1
Atom  69H    basis set group =>   1
Atom  70O    basis set group =>   4
Atom  71H    basis set group =>   1
Atom  72H    basis set group =>   1
Atom  73O    basis set group =>   4
Atom  74H    basis set group =>   1
Atom  75H    basis set group =>   1
Atom  76O    basis set group =>   4
Atom  77H    basis set group =>   1
Atom  78H    basis set group =>   1
Atom  79O    basis set group =>   4
Atom  80H    basis set group =>   1
Atom  81H    basis set group =>   1
Atom  82O    basis set group =>   4
Atom  83H    basis set group =>   1
Atom  84H    basis set group =>   1
Atom  85O    basis set group =>   4
Atom  86H    basis set group =>   1
Atom  87H    basis set group =>   1
Atom  88O    basis set group =>   4
Atom  89H    basis set group =>   1
Atom  90H    basis set group =>   1
Atom  91O    basis set group =>   4
Atom  92H    basis set group =>   1
Atom  93H    basis set group =>   1
Atom  94O    basis set group =>   4
Atom  95H    basis set group =>   1
Atom  96H    basis set group =>   1
Atom  97O    basis set group =>   4
Atom  98H    basis set group =>   1
Atom  99H    basis set group =>   1
Atom 100O    basis set group =>   4
Atom 101H    basis set group =>   1
Atom 102H    basis set group =>   1
Atom 103O    basis set group =>   4
Atom 104H    basis set group =>   1
Atom 105H    basis set group =>   1
Atom 106O    basis set group =>   4
Atom 107H    basis set group =>   1
Atom 108H    basis set group =>   1
Atom 109O    basis set group =>   4
Atom 110H    basis set group =>   1
Atom 111H    basis set group =>   1
Atom 112O    basis set group =>   4
Atom 113H    basis set group =>   1
Atom 114H    basis set group =>   1
Atom 115O    basis set group =>   4
Atom 116H    basis set group =>   1
Atom 117H    basis set group =>   1
Atom 118O    basis set group =>   4
Atom 119H    basis set group =>   1
Atom 120H    basis set group =>   1
Atom 121O    basis set group =>   4
Atom 122H    basis set group =>   1
Atom 123H    basis set group =>   1
Atom 124O    basis set group =>   4
Atom 125H    basis set group =>   1
Atom 126H    basis set group =>   1
Atom 127O    basis set group =>   4
Atom 128H    basis set group =>   1
Atom 129H    basis set group =>   1
Atom 130O    basis set group =>   4
Atom 131H    basis set group =>   1
Atom 132H    basis set group =>   1
Atom 133O    basis set group =>   4
Atom 134H    basis set group =>   1
Atom 135H    basis set group =>   1
Atom 136O    basis set group =>   4
Atom 137H    basis set group =>   1
Atom 138H    basis set group =>   1
Atom 139O    basis set group =>   4
Atom 140H    basis set group =>   1
Atom 141H    basis set group =>   1
Atom 142O    basis set group =>   4
Atom 143H    basis set group =>   1
Atom 144H    basis set group =>   1
Atom 145O    basis set group =>   4
Atom 146H    basis set group =>   1
Atom 147H    basis set group =>   1
Atom 148O    basis set group =>   4
Atom 149H    basis set group =>   1
Atom 150H    basis set group =>   1
Atom 151O    basis set group =>   4
Atom 152H    basis set group =>   1
Atom 153H    basis set group =>   1
Atom 154O    basis set group =>   4
Atom 155H    basis set group =>   1
Atom 156H    basis set group =>   1
Atom 157O    basis set group =>   4
Atom 158H    basis set group =>   1
Atom 159H    basis set group =>   1
Atom 160O    basis set group =>   4
[...]
118 O      8.7377     8.0000    -0.7377     1.7938     1.7938    -0.0000
119 H      0.6381     1.0000     0.3619     0.8964     0.8964    -0.0000
120 H      0.6221     1.0000     0.3779     0.9087     0.9087    -0.0000
121 O      8.7483     8.0000    -0.7483     1.7554     1.7554    -0.0000
122 H      0.6397     1.0000     0.3603     0.9286     0.9286    -0.0000
123 H      0.6264     1.0000     0.3736     0.9101     0.9101    -0.0000
124 O      8.7285     8.0000    -0.7285     1.8074     1.8074     0.0000
125 H      0.6194     1.0000     0.3806     0.8941     0.8941    -0.0000
126 H      0.6313     1.0000     0.3687     0.8859     0.8859    -0.0000
127 O      8.7543     8.0000    -0.7543     1.7913     1.7913    -0.0000
128 H      0.6133     1.0000     0.3867     0.8818     0.8818     0.0000
129 H      0.6462     1.0000     0.3538     0.9382     0.9382    -0.0000
130 O      8.7369     8.0000    -0.7369     1.7776     1.7776    -0.0000
131 H      0.6240     1.0000     0.3760     0.9037     0.9037    -0.0000
132 H      0.6362     1.0000     0.3638     0.9253     0.9253    -0.0000
133 O      8.7748     8.0000    -0.7748     1.7351     1.7351    -0.0000
134 H      0.6273     1.0000     0.3727     0.8972     0.8972    -0.0000
135 H      0.6111     1.0000     0.3889     0.9123     0.9123     0.0000
136 O      8.7389     8.0000    -0.7389     1.7855     1.7855    -0.0000
137 H      0.6427     1.0000     0.3573     0.9265     0.9265     0.0000
138 H      0.6373     1.0000     0.3627     0.9301     0.9301    -0.0000
139 O      8.7448     8.0000    -0.7448     1.7663     1.7663     0.0000
140 H      0.6234     1.0000     0.3766     0.8985     0.8985     0.0000
141 H      0.6353     1.0000     0.3647     0.9335     0.9335     0.0000
142 O      8.7420     8.0000    -0.7420     1.7751     1.7751    -0.0000
143 H      0.6296     1.0000     0.3704     0.9266     0.9266    -0.0000
144 H      0.6376     1.0000     0.3624     0.9243     0.9243    -0.0000
145 O      8.7077     8.0000    -0.7077     1.7821     1.7821    -0.0000
146 H      0.6558     1.0000     0.3442     0.9548     0.9548    -0.0000
147 H      0.6685     1.0000     0.3315     0.9512     0.9512     0.0000
148 O      8.7386     8.0000    -0.7386     1.7752     1.7752    -0.0000
149 H      0.6363     1.0000     0.3637     0.8880     0.8880     0.0000
150 H      0.6253     1.0000     0.3747     0.9206     0.9206    -0.0000
151 O      8.7238     8.0000    -0.7238     1.8048     1.8048    -0.0000
152 H      0.6314     1.0000     0.3686     0.9153     0.9153    -0.0000
153 H      0.6327     1.0000     0.3673     0.9074     0.9074    -0.0000
154 O      8.7869     8.0000    -0.7869     1.7583     1.7583     0.0000
155 H      0.5929     1.0000     0.4071     0.8641     0.8641     0.0000
156 H      0.6086     1.0000     0.3914     0.9013     0.9013    -0.0000
157 O      8.7523     8.0000    -0.7523     1.7912     1.7912    -0.0000
158 H      0.6339     1.0000     0.3661     0.9282     0.9282    -0.0000
159 H      0.6005     1.0000     0.3995     0.8494     0.8494    -0.0000
160 O      8.7169     8.0000    -0.7169     1.8405     1.8405    -0.0000
161 H      0.6389     1.0000     0.3611     0.9094     0.9094    -0.0000
162 H      0.6203     1.0000     0.3797     0.8854     0.8854    -0.0000

  Mayer bond orders larger than 0.100000
B(  0-H ,  1-C ) :   0.9609 B(  1-C ,  3-H ) :   0.9833 B(  1-C ,  4-N ) :   0.9140 
B(  1-C ,  6-C ) :   0.9393 B(  2-H ,  4-N ) :   0.8654 B(  4-N ,  9-H ) :   0.8423 
B(  4-N , 11-H ) :   0.8333 B(  5-H ,  6-C ) :   0.9486 B(  6-C ,  8-C ) :   0.9296 
B(  6-C , 12-H ) :   0.9652 B(  7-O ,  8-C ) :   1.3601 B(  7-O ,105-H ) :   0.1002 
B(  7-O ,113-H ) :   0.1515 B(  8-C , 10-O ) :   1.4939 B(  9-H , 97-O ) :   0.1043 
B( 13-O , 14-H ) :   0.8040 B( 13-O , 15-H ) :   0.8733 B( 13-O , 54-H ) :   0.1158 
B( 16-O , 17-H ) :   0.8584 B( 16-O , 18-H ) :   0.8722 B( 19-O , 20-H ) :   0.7938 
B( 19-O , 21-H ) :   0.8084 B( 22-O , 23-H ) :   0.8247 B( 22-O , 24-H ) :   0.8764 
B( 25-O , 26-H ) :   0.7644 B( 25-O , 27-H ) :   0.8677 B( 25-O ,141-H ) :   0.1112 
B( 26-H ,121-O ) :   0.1392 B( 28-O , 29-H ) :   0.8126 B( 28-O , 30-H ) :   0.8430 
B( 31-O , 32-H ) :   0.7988 B( 31-O , 33-H ) :   0.7932 B( 31-O ,156-H ) :   0.1109 
B( 34-O , 35-H ) :   0.8240 B( 34-O , 36-H ) :   0.7932 B( 34-O , 68-H ) :   0.1043 
B( 37-O , 38-H ) :   0.7951 B( 37-O , 39-H ) :   0.8119 B( 40-O , 41-H ) :   0.8073 
B( 40-O , 42-H ) :   0.8398 B( 40-O ,120-H ) :   0.1417 B( 41-H ,100-O ) :   0.1103 
B( 43-O , 44-H ) :   0.8698 B( 43-O , 45-H ) :   0.8027 B( 46-O , 47-H ) :   0.8126 
B( 46-O , 48-H ) :   0.8382 B( 46-O ,102-H ) :   0.1020 B( 47-H ,142-O ) :   0.1100 
B( 49-O , 50-H ) :   0.7994 B( 49-O , 51-H ) :   0.8426 B( 49-O ,108-H ) :   0.1396 
B( 50-H ,139-O ) :   0.1050 B( 52-O , 53-H ) :   0.7866 B( 52-O , 54-H ) :   0.7725 
B( 55-O , 56-H ) :   0.8193 B( 55-O , 57-H ) :   0.8046 B( 56-H , 97-O ) :   0.1010 
B( 58-O , 59-H ) :   0.8699 B( 58-O , 60-H ) :   0.8146 B( 61-O , 62-H ) :   0.8117 
B( 61-O , 63-H ) :   0.8405 B( 64-O , 65-H ) :   0.8766 B( 64-O , 66-H ) :   0.8104 
B( 67-O , 68-H ) :   0.7784 B( 67-O , 69-H ) :   0.8672 B( 70-O , 71-H ) :   0.8326 
B( 70-O , 72-H ) :   0.8200 B( 73-O , 74-H ) :   0.8228 B( 73-O , 75-H ) :   0.7839 
B( 76-O , 77-H ) :   0.8173 B( 76-O , 78-H ) :   0.8244 B( 79-O , 80-H ) :   0.8690 
B( 79-O , 81-H ) :   0.8463 B( 82-O , 83-H ) :   0.8470 B( 82-O , 84-H ) :   0.8267 
B( 85-O , 86-H ) :   0.8615 B( 85-O , 87-H ) :   0.8048 B( 87-H ,109-O ) :   0.1103 
B( 88-O , 89-H ) :   0.8719 B( 88-O , 90-H ) :   0.8179 B( 91-O , 92-H ) :   0.8632 
B( 91-O , 93-H ) :   0.7961 B( 91-O ,134-H ) :   0.1022 B( 93-H ,106-O ) :   0.1050 
B( 94-O , 95-H ) :   0.7901 B( 94-O , 96-H ) :   0.8071 B( 94-O ,147-H ) :   0.1161 
B( 95-H ,127-O ) :   0.1184 B( 96-H ,136-O ) :   0.1085 B( 97-O , 98-H ) :   0.7907 
B( 97-O , 99-H ) :   0.8218 B(100-O ,101-H ) :   0.8195 B(100-O ,102-H ) :   0.7959 
B(103-O ,104-H ) :   0.8216 B(103-O ,105-H ) :   0.7864 B(106-O ,107-H ) :   0.8082 
B(106-O ,108-H ) :   0.7710 B(109-O ,110-H ) :   0.8679 B(109-O ,111-H ) :   0.7602 
B(111-H ,130-O ) :   0.1375 B(112-O ,113-H ) :   0.7511 B(112-O ,114-H ) :   0.8681 
B(112-O ,132-H ) :   0.1017 B(115-O ,116-H ) :   0.8403 B(115-O ,117-H ) :   0.8196 
B(115-O ,146-H ) :   0.1321 B(118-O ,119-H ) :   0.8676 B(118-O ,120-H ) :   0.7597 
B(118-O ,143-H ) :   0.1139 B(121-O ,122-H ) :   0.8176 B(121-O ,123-H ) :   0.8174 
B(124-O ,125-H ) :   0.8000 B(124-O ,126-H ) :   0.8683 B(127-O ,128-H ) :   0.7600 
B(127-O ,129-H ) :   0.8424 B(128-H ,154-O ) :   0.1236 B(130-O ,131-H ) :   0.8305 
B(130-O ,132-H ) :   0.8148 B(133-O ,134-H ) :   0.8058 B(133-O ,135-H ) :   0.7604 
B(135-H ,145-O ) :   0.1379 B(136-O ,137-H ) :   0.8359 B(136-O ,138-H ) :   0.8256 
B(139-O ,140-H ) :   0.7931 B(139-O ,141-H ) :   0.8078 B(142-O ,143-H ) :   0.7950 
B(142-O ,144-H ) :   0.8006 B(145-O ,146-H ) :   0.8110 B(145-O ,147-H ) :   0.8293 
B(148-O ,149-H ) :   0.8713 B(148-O ,150-H ) :   0.7693 B(150-H ,151-O ) :   0.1385 
B(151-O ,152-H ) :   0.8218 B(151-O ,153-H ) :   0.8442 B(154-O ,155-H ) :   0.7925 
B(154-O ,156-H ) :   0.7705 B(157-O ,158-H ) :   0.8185 B(157-O ,159-H ) :   0.8174 
B(160-O ,161-H ) :   0.8400 B(160-O ,162-H ) :   0.8303 

-------
TIMINGS
-------

Total SCF time: 0 days 0 hours 5 min 7 sec 

Total time                  ....     307.785 sec
Sum of individual times     ....     306.857 sec  ( 99.7%)

SCF preparation             ....       7.816 sec  (  2.5%)
Fock matrix formation       ....     259.338 sec  ( 84.3%)
  Startup                   ....       1.376 sec  (  0.5% of F)
  Split-RI-J                ....      28.378 sec  ( 10.9% of F)
  Chain of spheres X        ....     159.448 sec  ( 61.5% of F)
  XC integration            ....      18.776 sec  (  7.2% of F)
    XC Preparation          ....       0.000 sec  (  0.0% of XC)
    Basis function eval.    ....       4.077 sec  ( 21.7% of XC)
    Density eval.           ....       6.202 sec  ( 33.0% of XC)
    XC-Functional eval.     ....       0.197 sec  (  1.0% of XC)
    XC-Potential eval.      ....       3.636 sec  ( 19.4% of XC)
  CPCM terms                ....      45.885 sec  ( 17.7% of F)
Diagonalization             ....       0.000 sec  (  0.0%)
Density matrix formation    ....       6.043 sec  (  2.0%)
Total Energy calculation    ....       3.179 sec  (  1.0%)
Population analysis         ....       1.502 sec  (  0.5%)
Orbital Transformation      ....       3.753 sec  (  1.2%)
Orbital Orthonormalization  ....       0.000 sec  (  0.0%)
DIIS solution               ....      15.196 sec  (  4.9%)
SOSCF solution              ....      10.030 sec  (  3.3%)
Finished LeanSCF after 309.7 sec

Maximum memory used throughout the entire LEANSCF-calculation: 703.8 MB


-------------------------------------------------------------------------------
                          DFT DISPERSION CORRECTION                            
                                                                               
                                DFTD4 V3.4.0                                   
-------------------------------------------------------------------------------
The B3LYP functional is recognized
Active option DFTDOPT                   ...         5   

-------------------------   ----------------
Dispersion correction           -0.233077810
-------------------------   ----------------


-------------------------   --------------------
FINAL SINGLE POINT ENERGY     -4146.164329758460
-------------------------   --------------------

--------------------------------------------------------------------------
WARNING: There was an error initializing an OpenFabrics device.

  Local host:   ga02
  Local device: mlx5_0
--------------------------------------------------------------------------


           ************************************************************
           *        Program running with 28 parallel MPI-processes    *
           *              working on a common directory               *
           ************************************************************

------------------------------------------------------------------------------
                              ORCA PROPERTY CALCULATIONS
------------------------------------------------------------------------------

GBWName                                 ... input.gbw
Number of atoms                         ...    163
Number of basis functions               ...   2378
Max core memory                         ...   5000 MB

Electric properties:
Dipole moment                           ... YES
Quadrupole moment                       ...  NO
Static polarizability (Dipole/Dipole)   ...  NO
Static polarizability (Dipole/Quad.)    ...  NO
Static polarizability (Quad./Quad.)     ...  NO
Static polarizability (Velocity)        ...  NO

Atomic electric properties:
Dipole moment                           ...  NO
Quadrupole moment                       ...  NO
Static polarizability                   ...  NO

Choice of electric origin               ... Center of mass
Position of electric origin             ...    -0.192779     0.079388     0.324098

General magnetic properties:
Magnetizability                         ...  NO

EPR properties:
g-Tensor (aka g-matrix)                 ...  NO
Zero-Field splitting spin-orbit         ...  NO
Zero-field splitting spin-spin          ...  NO
Hyperfine couplings                     ...  NO (   0 nuclei)
Quadrupole couplings                    ...  NO (   0 nuclei)
Contact density                         ...  NO (   0 nuclei)

NMR properties:
Chemical shifts                         ...  NO (   0 nuclei)
Spin-rotation constants                 ...  NO (   0 nuclei)
Spin-spin couplings                     ...  NO (   0 nuclei,    0 pairs)

Choice of magnetic origin               ... GIAO
Position of magnetic origin             ...     0.000000     0.000000     0.000000

Properties with geometric perturbations:
SCF Hessian                             ...  NO
IR spectrum                             ...  NO
VCD spectrum                            ...  NO
X-ray spectroscopy properties:
SCF XES/XAS/RIXS spectra                ...  NO


-------------
DIPOLE MOMENT
-------------

Method             : SCF
Type of density    : Electron Density
Multiplicity       :   1
Irrep              :   0
Energy             : -4145.9312519489167244 Eh
Relativity type    : 
Basis              : AO
                                X                 Y                 Z
Electronic contribution:      0.403952676       3.859850162       7.438950316
Nuclear contribution   :     -0.404105813      -1.886719707      -4.932462026
                        -----------------------------------------
Total Dipole Moment    :     -0.000153136       1.973130455       2.506488290
                        -----------------------------------------
Magnitude (a.u.)       :      3.189941593
Magnitude (Debye)      :      8.108187160



--------------------
Rotational spectrum 
--------------------
 
Rotational constants in cm-1:             0.001281             0.000849             0.000748 
Rotational constants in MHz :            38.411692            25.465344            22.437855 

Dipole components along the rotational axes: 
x,y,z [a.u.] :     2.297306    -1.912490    -1.113775 
x,y,z [Debye]:     5.839288    -4.861163    -2.830991 

 

Dipole moment calculation done in   0.3 sec 

Maximum memory used throughout the entire PROP-calculation: 419.1 MB
[ga02:1331936] 27 more processes have sent help message help-mpi-btl-openib.txt / error in device init
[ga02:1331936] Set MCA parameter "orte_base_help_aggregate" to 0 to see all help / error messages
--------------------------------------------------------------------------
WARNING: There was an error initializing an OpenFabrics device.

  Local host:   ga02
  Local device: mlx5_0
--------------------------------------------------------------------------
[ga02:1332052] 27 more processes have sent help message help-mpi-btl-openib.txt / error in device init
[ga02:1332052] Set MCA parameter "orte_base_help_aggregate" to 0 to see all help / error messages

--------------------------------
SUGGESTED CITATIONS FOR THIS RUN
--------------------------------

Below you find a list of papers that are relevant to this ORCA run
We neither can nor want to force you to cite these papers, but we appreciate if you do
You receive ORCA, which is the product of decades of hard work by many enthusiastic individuals, for free
The only thing we kindly ask in return is that you cite our papers,
We deeply appreciate it, if you show your appreciation for ORCA by not just citing the generic ORCA reference.

Please note that relegating all ORCA citations to the supporting information does *not* help us.
SI sections are not indexed - citations you put there will not count into any citation statistics
But we need these citations in order to attract the funding resources that allow us to do what we are doing

Therefore, if you are a happy ORCA user, please consider citing a few of the papers listed below in the main body of your paper

In addition to the list printed below, the program has created the file input.bibtex that contains the list in bibtex format
You can import this file easily into all common literature databanks and citation aid programs


List of essential papers. We consider these as the minimum necessary citations

  1. Neese,F.
     Software update: the ORCA program system, version 5.0
     WIRES Comput. Molec. Sci., 2022 12(1)e1606
     doi.org/10.1002/wcms.1606

List of papers to cite with high priority. The work reported in these papers was absolutely
necessary for this run to complete.
Our perspective: the developers of density functionals and basis sets usually get cited in chemistry papers
Good! But without the algorithms to do something with them, the functionals or basis sets would not do anything.
Hence, in our opinion, the algorithm design and method developments papers are equally worthy of getting cited

  1. Neese,F.
     An improvement of the resolution of the identity approximation for the formation of the Coulomb matrix
     J. Comp. Chem., 2003 24(14)1740-1747
     doi.org/10.1002/jcc.10318
  2. Neese,F.; Wennmohs,F.; Hansen,A.; Becker,U.
     Efficient, approximate and parallel Hartree-Fock and hybrid DFT calculations. A 'chain-of-spheres' algorithm for the Hartree-Fock exchange
     Chem. Phys., 2009 356(1-3)98-109
     doi.org/10.1016/j.chemphys.2008.10.036
  3. Garcia-Rates,M.; Neese,F.
     Effect of the Solute Cavity on the Solvation Energy and its Derivatives within the Framework of the Gaussian Charge Scheme
     J. Comput. Chem., 2020 41 922-939
     doi.org/10.1002/jcc.26139
  4. Helmich-Paris,B.; de Souza,B.; Neese,F.; Izsák,R.
     An improved chain of spheres for exchange algorithm
     J. Chem. Phys., 2021 155 104109
     doi.org/doi: 10.1063/5.0058766.
  5. Neese,F.
     The SHARK Integral Generation and Digestion System
     J. Comp. Chem., 2022  1-16
     doi.org/10.1002/jcc.26942
  6. Caldeweyher,E.; Bannwarth,C.; Grimme,S.
     Extension of the D3 dispersion coefficient model
     J. Chem. Phys., 2017 147 034112
     doi.org/10.1063/1.4993215
  7. Caldeweyher,E.; Ehlert,S.; Hansen,A.; Neugebauer,H.; Spicher,S.; Bannwarth,C.; Grimme,S.
     A generally applicable atomic-charge dependent London dispersion correction
     J. Chem. Phys., 2019 150 154122
     doi.org/10.1063/1.5090222
  8. Caldeweyher,E.; Mewes,J.; Ehlert,S.; Grimme,S.
     Extension and evaluation of the D4 London-dispersion model for periodic systems
     Phys. Chem. Chem. Phys., 2020 22(16)8499-8512
     doi.org/10.1039/D0CP00502A
  9. Wittmann,L.; Gordiy,I.; Friede,M.; Helmich-Paris,B.; Grimme,S.; Hansen,A.; Bursch,M.
     Extension of the D3 and D4 London Dispersion Corrections to the full Actinides Series
     Phys. Chem. Chem. Phys., 2024 26(32)21379-21394
     doi.org/https://doi.org/10.1039/D4CP01514B 

List of suggested additional citations. These are papers that are important in the 'surrounding' of 
of this run, or papers that preceded the highly important papers. If you like your results we are grateful for a citation.

  1. Izsak,R.; Neese,F.
     An overlap fitted chain of spheres exchange method
     J. Chem. Phys., 2011 135 144105
     doi.org/10.1063/1.3646921
  2. Izsak,R.; Hansen,A.; Neese,F.
     The resolution of identity and chain of spheres approximations for the LPNO-CCSD singles Fock term
     Molec. Phys., 2012 110 2413-2417
     doi.org/10.1080/00268976.2012.687466
  3. Neese,F.
     The ORCA program system
     WIRES Comput. Molec. Sci., 2012 2(1)73-78
     doi.org/10.1002/wcms.81
  4. Izsak,R.; Neese,F.; Klopper,W.
     Robust fitting techniques in the chain of spheres approximation to the Fock exchange: The role of the complementary space
     J. Chem. Phys., 2013 139 
     doi.org/10.1063/1.4819264
  5. Neese,F.
     Software update: the ORCA program system, version 4.0
     WIRES Comput. Molec. Sci., 2018 8(1)1-6
     doi.org/10.1002/wcms.1327
  6. Neese,F.; Wennmohs,F.; Becker,U.; Riplinger,C.
     The ORCA quantum chemistry program package
     J. Chem. Phys., 2020 152 Art. No. L224108
     doi.org/10.1063/5.0004608

List of optional additional citations

  1. Neese,F.
     Approximate second-order SCF convergence for spin unrestricted wavefunctions
     Chem. Phys. Lett., 2000 325(1-3)93-98
     doi.org/10.1016/s0009-2614(00)00662-x

Timings for individual modules:

Sum of individual times          ...      334.744 sec (=   5.579 min)
Startup calculation              ...       15.099 sec (=   0.252 min)   4.5 %
SCF iterations                   ...      317.459 sec (=   5.291 min)  94.8 %
Property calculations            ...        2.186 sec (=   0.036 min)   0.7 %
                             ****ORCA TERMINATED NORMALLY****
TOTAL RUN TIME: 0 days 0 hours 5 minutes 36 seconds 846 msec
