58
 energy: -95.427078436331 gnorm: 0.191666875248 xtb: 6.7.1 (edcfbbe)
N           -0.75654161170000        0.94567878660000       -0.47560781950000
C            0.39285035970000        1.79472497720000       -0.81937644250000
C            0.30013631030000        2.32398677870000       -2.24895663050000
C            0.71469789220000        1.31760380890000       -3.33676283290000
C           -0.37966452260000        0.35433374420000       -3.78175810480000
O           -0.69572184770000        0.30661057500000       -4.98788708180000
O           -0.92037911020000       -0.38643485730000       -2.91351316760000
H           -0.62815924570000        0.54934650230000        0.49079029750000
H           -1.64133110130000        1.48989613520000       -0.51539763440000
H            0.41841393390000        2.63089569950000       -0.11970520160000
H            1.30686955810000        1.21214136480000       -0.69219551820000
H            0.96691570040000        3.18158541610000       -2.33589897500000
H           -0.71484517560000        2.67826252680000       -2.44064310040000
H            1.55322617630000        0.71494498350000       -2.97871683890000
H            1.03797540810000        1.84930454340000       -4.23377776340000
H           -0.83120301360000        0.18906563610000       -1.17101932230000
O           -0.21360548300000       -0.04849895500000        1.98393723410000
H            0.54082131380000       -0.56085936380000        1.63413042050000
H           -0.91712800480000       -0.69796650280000        2.19120394850000
O           -3.53837543810000       -0.36295572910000       -2.14463133030000
H           -4.09273032270000       -0.48905078440000       -2.92085699740000
H           -2.62586410060000       -0.33735284830000       -2.49205197580000
O           -3.36975926210000       -0.44385584050000       -5.18031952310000
H           -3.71949626380000       -0.22045395630000       -6.04642496620000
H           -2.44003928700000       -0.13807812860000       -5.17642855410000
O           -3.25939051040000        2.07580860950000       -0.88258106460000
H           -3.54790685940000        1.25050124650000       -1.31848603590000
H           -3.86873246040000        2.23482743140000       -0.15671022150000
H           -0.15335583320000       -1.67556727490000       -1.99164351540000
H            0.62872372660000       -2.99579952660000       -2.08355753260000
O            0.14009614560000       -2.43405085810000       -1.45592377400000
H            1.13446342940000       -1.77116087560000       -0.16925797990000
H            2.31126414120000       -2.01181101730000        0.81475349350000
O            1.69162788450000       -1.34335957340000        0.51536976040000
O            1.47209695610000       -3.60991300090000       -3.57487589370000
H            1.52482941720000       -4.54965115920000       -3.77055107180000
H            1.05569576750000       -3.19774554020000       -4.35798078940000
O           -2.29143585550000       -1.77722674530000        2.24572210640000
H           -3.16907239490000       -1.51006578500000        2.53061532240000
H           -2.38675550290000       -2.08419585780000        1.31714939910000
H           -1.62573505830000       -2.57010448730000       -0.75712702760000
O           -2.50807592120000       -2.41495684540000       -0.38162792640000
H           -2.94491595030000       -1.77079723760000       -0.96277031400000
H           -0.83784349020000       -2.76898336180000       -5.16121878900000
O           -0.00861395240000       -2.49941152430000       -5.62177555010000
H           -0.07679564960000       -1.53770550100000       -5.69047728090000
O           -2.18157125490000       -2.69389666490000       -4.02625645530000
H           -2.87112924370000       -2.21338142280000       -4.50986785750000
H           -1.73449005240000       -1.99887254880000       -3.50845326170000
O           -0.03331647190000        2.76734476320000        2.26181631010000
H           -0.00626395160000        1.79697834030000        2.31220621080000
H           -0.56175120640000        3.05756046380000        3.00930263210000
H           -2.70381915960000       -0.24049807700000        1.06314548190000
H           -2.34537263200000        0.60565025860000        2.31602833000000
O           -2.00889820990000        0.33020465720000        1.45941733670000
H           -0.35705903600000       -0.38460166170000       -7.91195511970000
H           -0.17774450210000        0.24588209700000       -6.50319682320000
O            0.29692932970000        0.03715914630000       -7.31190909790000
58
 energy: -95.482456441973 gnorm: 0.066044373532 xtb: 6.7.1 (edcfbbe)
N           -0.74252576103905        0.94925762305009       -0.48689386703677
C            0.40019234572253        1.79794904198404       -0.82446408685520
C            0.30222258385584        2.32701641537150       -2.25182467797583
C            0.71482591663617        1.31831696336652       -3.33743376344921
C           -0.38027179833089        0.35481817153575       -3.77276724819603
O           -0.71668203337219        0.31648247927399       -4.97539328066334
O           -0.92015388082448       -0.38689363583155       -2.91097358321966
H           -0.62344293771908        0.55633522124649        0.48598649528222
H           -1.63088149146879        1.48854729524847       -0.51812872352263
H            0.41943288865918        2.63113075317659       -0.12113007028136
H            1.31203864591529        1.21426735143817       -0.69346001969633
H            0.96778127944385        3.18474783308636       -2.33912944943899
H           -0.71435972761048        2.67900364612031       -2.44024727150325
H            1.55329815008589        0.71575015901310       -2.97977450797941
H            1.03765520615629        1.84928182044156       -4.23499021450710
H           -0.82365171068939        0.18994134264687       -1.17378980091690
O           -0.10193937489548       -0.07455847943898        2.02732965572015
H            0.61806858774359       -0.59013775119486        1.64244448931512
H           -0.85326431029021       -0.69903879064294        2.18257291525995
O           -3.54033977430763       -0.36398504516678       -2.14490313887209
H           -4.09291098138297       -0.48673821842581       -2.92268864183615
H           -2.62717359781546       -0.33511016703519       -2.48980599516354
O           -3.37111070315185       -0.44698427777281       -5.18235228574731
H           -3.72190164806757       -0.21976231564352       -6.04670391825244
H           -2.44343527408536       -0.13809844354556       -5.17514853898895
O           -3.26289612429880        2.07858774127267       -0.88572548902359
H           -3.54718370191506        1.24935669446736       -1.31652988407038
H           -3.86772117219618        2.23494101652623       -0.15594291152760
H           -0.15343892626902       -1.67538292770791       -1.98957557806774
H            0.62685061724410       -2.99628299339965       -2.08350187111956
O            0.13560179642738       -2.43681320317067       -1.45631819188166
H            1.13395364493067       -1.77317112174012       -0.16994872420939
H            2.31498440724785       -2.01917324162687        0.81020463362111
O            1.70670591172572       -1.34565043220424        0.50189713049299
O            1.47081686605097       -3.61085308793238       -3.57266117790767
H            1.52588726137753       -4.55017640163005       -3.76935888221198
H            1.05793296727615       -3.19788689432059       -4.35741466374005
O           -2.29548913144884       -1.85888109578128        2.27704869663793
H           -3.16574484197632       -1.54664358444899        2.54735555834433
H           -2.38044097420747       -2.11507549697973        1.32984304775763
H           -1.62920904649628       -2.56785891625503       -0.75441219570831
O           -2.51110896869495       -2.40901977827710       -0.37963110965834
H           -2.94586945254211       -1.76740186129368       -0.96497270464109
H           -0.83933001943208       -2.76853745429502       -5.15897619110343
O           -0.00772380351535       -2.50801369084395       -5.61892769135486
H           -0.06322800332388       -1.54552003904797       -5.68918894711726
O           -2.18205874309955       -2.69371715548647       -4.02637830090845
H           -2.87104962526779       -2.21345531137797       -4.51084165279140
H           -1.73455598714704       -1.99906240803392       -3.50850380192566
O           -0.03084973672021        2.76738072455259        2.26349550220605
H           -0.00665397764312        1.79520931487188        2.30697312903201
H           -0.56021228756894        3.05562732512876        3.01083453168984
H           -2.79208887274952       -0.19000628258574        1.04571733783005
H           -2.43184689327639        0.62846265331918        2.32966703175432
O           -2.15934906599186        0.43904382378312        1.42666524077861
H           -0.35331540322515       -0.38517970372253       -7.91501963564628
H           -0.16190554698368        0.25650507855366       -6.51531764828209
O            0.30181073544182        0.03814469648424       -7.34142993752315
58
 energy: -95.497442001721 gnorm: 0.040995094494 xtb: 6.7.1 (edcfbbe)
N           -0.72516711354602        0.95127781841161       -0.49318363542394
C            0.41377720236876        1.80271525799562       -0.82870871892447
C            0.30989090394953        2.33121507878985       -2.25590260316909
C            0.71515688519102        1.31920874891261       -3.34162665829918
C           -0.39024520367633        0.36519350937757       -3.76769418501827
O           -0.74243624592501        0.33218775688277       -4.96914830560800
O           -0.91842669114724       -0.38741250876777       -2.90993014664423
H           -0.62487832820656        0.56549802821527        0.48057427243783
H           -1.61634443268549        1.48632407311950       -0.52072364411770
H            0.42893628555386        2.63582752649858       -0.12525976488989
H            1.32884031086467        1.22372930421167       -0.69858917261081
H            0.97297238360118        3.19007446226445       -2.34939369131834
H           -0.70862225521370        2.68100833091767       -2.43875497633997
H            1.55315188938838        0.71514204289285       -2.98508012851474
H            1.03649722092566        1.84708507432872       -4.24120033424278
H           -0.80727218136072        0.18827711054663       -1.17515698617228
O           -0.08880335217753       -0.07662237590791        2.04722701912266
H            0.62409761934376       -0.58229240967042        1.62130544271729
H           -0.83538089538629       -0.69883231442355        2.17838068609501
O           -3.54295841159251       -0.36792550303690       -2.14317020126254
H           -4.09276716488870       -0.48390441773119       -2.92400115269497
H           -2.62881999955200       -0.33295709752055       -2.48452450699711
O           -3.37809332177417       -0.45575826491685       -5.18439091152793
H           -3.73060418757098       -0.21615562078039       -6.04459580367978
H           -2.45370626954484       -0.13576069258187       -5.16840921723714
O           -3.26412519116118        2.08567973229530       -0.90127295714277
H           -3.54398525386179        1.24598263193562       -1.31432367020963
H           -3.85271592012020        2.23750936117635       -0.15700634167015
H           -0.15348506950143       -1.67593746611220       -1.98557616639480
H            0.62315519386476       -2.99858457271556       -2.08223132855160
O            0.12954488908520       -2.44134297396257       -1.45487366962930
H            1.13901590054279       -1.77917935765199       -0.17782308193799
H            2.32063967532467       -2.03034694179315        0.80262384782840
O            1.72243323274132       -1.35153401062169        0.48487420673064
O            1.46980511740462       -3.61328543322105       -3.56833365357956
H            1.52872894571919       -4.55196659948617       -3.76640816380928
H            1.06085824404779       -3.20039382729097       -4.35542943737849
O           -2.28381128481156       -1.90979565103393        2.29595494314306
H           -3.15768414603601       -1.62106329838941        2.57350980555079
H           -2.36570687502737       -2.16340660673243        1.34943071433738
H           -1.63492871779399       -2.56547016640429       -0.74902974619304
O           -2.51355471868844       -2.39427155026053       -0.37180096395574
H           -2.94739521461935       -1.76214693406234       -0.96855958456697
H           -0.84437072681613       -2.76971554723535       -5.15309920976055
O           -0.00643169061747       -2.53112093109148       -5.61400162729960
H           -0.03410249344979       -1.56751634603180       -5.68750475533298
O           -2.18487511978586       -2.69351326253737       -4.02474915892531
H           -2.87240369085291       -2.21293339829003       -4.51093352281618
H           -1.73623858297780       -1.99956545936941       -3.50720443458561
O           -0.02563145098682        2.76710580337721        2.26403693581522
H           -0.00751623478651        1.79430262403086        2.29789979093961
H           -0.55468142916606        3.05261698895031        3.01256716954241
H           -2.84259712707944       -0.14710166034027        1.05425353299850
H           -2.49995515736269        0.63176462926358        2.36869317924661
O           -2.26036724879473        0.52033596133969        1.43829284846964
H           -0.34740500177420       -0.38519465361829       -7.92523990161381
H           -0.13056731728857        0.28255275782324       -6.53957441512348
O            0.31430431859238        0.05142821913120       -7.37974873860558
58
 energy: -95.507355896897 gnorm: 0.028717817870 xtb: 6.7.1 (edcfbbe)
N           -0.71142427907345        0.95260528271954       -0.49334760421067
C            0.42555425047039        1.80751726821067       -0.83142637372846
C            0.31662775834769        2.33461933326143       -2.25984737065791
C            0.71576721579452        1.31970236016827       -3.34688017518425
C           -0.39174515974661        0.36856807715136       -3.76753162256593
O           -0.77333548461560        0.35838453814609       -4.96336866464038
O           -0.91726595274400       -0.38607377444038       -2.90997534868491
H           -0.62725757341985        0.57742380369642        0.47872982392325
H           -1.60405610175529        1.48517321338053       -0.51831987322943
H            0.44106172760356        2.64213081885851       -0.12981469666844
H            1.34546588187451        1.23433816343083       -0.70535681202982
H            0.97908423483229        3.19342144924527       -2.35989760636964
H           -0.70262064972928        2.68504528912707       -2.43726050512164
H            1.55257409027541        0.71393740730230       -2.99092124745764
H            1.03623946376285        1.84485023618474       -4.24816798672421
H           -0.79133668993173        0.18562176632158       -1.17286436981383
O           -0.07003402648338       -0.08286551126247        2.06356511804846
H            0.63805220927778       -0.57688117168895        1.60542102892118
H           -0.80542697389950       -0.70395672296061        2.18385903496089
O           -3.54405321637684       -0.37311129277561       -2.14016973142828
H           -4.09312494484021       -0.48376160949875       -2.92247484024305
H           -2.62999968507506       -0.33309617748533       -2.48048215461333
O           -3.39013433519188       -0.46308290565151       -5.18160726003715
H           -3.74526425716897       -0.21101364429328       -6.03711771628367
H           -2.46714907288782       -0.13510424328161       -5.15921661939888
O           -3.26138428560855        2.09759829425826       -0.92886540356932
H           -3.54094461617298        1.24512313058645       -1.31635644293518
H           -3.82108532673027        2.24364934354740       -0.15943544577770
H           -0.15539441028573       -1.67944066115326       -1.98323730621643
H            0.61884798698700       -3.00298125732174       -2.08047690291385
O            0.12437023391678       -2.44624862906621       -1.45303800651686
H            1.14647120520288       -1.78645899861174       -0.18956487730478
H            2.32486942201746       -2.03747066762271        0.79491030574308
O            1.73204207220987       -1.35723100494337        0.46983196689154
O            1.47088846041436       -3.61587793075800       -3.56368665297131
H            1.53312453947071       -4.55457543496984       -3.75999762227799
H            1.05905049173699       -3.20730862951702       -4.35250174159511
O           -2.26543400455613       -1.95181923444312        2.31221048767042
H           -3.14780943951448       -1.70962244340806        2.60765623294180
H           -2.34970557731059       -2.19674055632809        1.36597893822342
H           -1.64079286151569       -2.56150834055567       -0.74479974060503
O           -2.51445711280693       -2.37584649921715       -0.36273409540451
H           -2.95047154785352       -1.75851008524042       -0.97399379961121
H           -0.84756852519088       -2.77044090448847       -5.14485021579111
O           -0.00407243674049       -2.55385046149581       -5.60869997408522
H           -0.00616315801616       -1.59146360690314       -5.69426746143969
O           -2.18663856058171       -2.69151562851877       -4.02539684546560
H           -2.87425050597845       -2.21021358365132       -4.51108676989368
H           -1.73975192023188       -1.99974477802657       -3.50386094271158
O           -0.01673165011420        2.76476754004249        2.26136067625911
H           -0.00806896047658        1.79199705488987        2.29179935624189
H           -0.54518334307075        3.05276321556430        3.00919556004646
H           -2.89348464499708       -0.13161390991251        1.07443433255117
H           -2.59315246183242        0.64405335461044        2.39302873028336
O           -2.38667742679001        0.60889021594269        1.45089743569263
H           -0.32838218298342       -0.38351119951656       -7.94281434149260
H           -0.10611732107002        0.30075485259881       -6.56883641027037
O            0.33060394007547        0.07104046886135       -7.41287432925907
58
 energy: -95.512578048437 gnorm: 0.022219899893 xtb: 6.7.1 (edcfbbe)
N           -0.70527048251255        0.95579102311126       -0.48923182134755
C            0.43310323894021        1.81077483412666       -0.83348432641263
C            0.32134000515925        2.33615893000980       -2.26346855026023
C            0.71321015324030        1.32024387934128       -3.35314246825938
C           -0.41561981285796        0.39152644673175       -3.76803711959789
O           -0.79654123753167        0.37790831412231       -4.96197038289617
O           -0.91531159332861       -0.38619412387184       -2.91272508505692
H           -0.62780865824491        0.58949446591666        0.48199477196709
H           -1.59704698077184        1.48951202268976       -0.51899603588798
H            0.45231210068176        2.64770450266881       -0.13473051967391
H            1.35510509622216        1.23961923671931       -0.71063657041967
H            0.98748308177164        3.19175823421830       -2.36753503260317
H           -0.69669608633797        2.69131348022512       -2.43785872633016
H            1.54551722197256        0.70695426694083       -2.99849365508497
H            1.03606707348390        1.84357851630739       -4.25460006034222
H           -0.78049205999979        0.18573749251457       -1.16795982217150
O           -0.05612893137701       -0.09177602340849        2.06982711974351
H            0.65358446495916       -0.57220895329387        1.59822371803643
H           -0.78049337336656       -0.71999611493558        2.19013383260358
O           -3.54352607286332       -0.37954259029919       -2.13753008132230
H           -4.09284289099908       -0.48426720180798       -2.92071058539722
H           -2.62973886910120       -0.33437265225067       -2.47789122052337
O           -3.40310523117240       -0.47303849574830       -5.17699311643031
H           -3.76423379818759       -0.20426977020274       -6.02527505221439
H           -2.48474637889724       -0.12762175743138       -5.14735371463967
O           -3.25176588541235        2.11131045331617       -0.96133878770644
H           -3.53551572445579        1.24996670821143       -1.32630098198123
H           -3.77240154117318        2.24583256386592       -0.15922018211441
H           -0.15604718093584       -1.68316272126826       -1.98435987216358
H            0.61359025376537       -3.00938281905525       -2.07894891159830
O            0.11934583663873       -2.45071109814427       -1.45281504296554
H            1.15126962349268       -1.79263239253859       -0.20093579075996
H            2.32837926442320       -2.04096329401956        0.78492746849077
O            1.73704438518229       -1.36085836050881        0.45698890683313
O            1.47373907983815       -3.62054176975586       -3.55613443819521
H            1.54093004715844       -4.55965197021814       -3.74875182969024
H            1.05642128226969       -3.21917939214216       -4.34672775927640
O           -2.24481264651412       -1.98072814145684        2.32291649769134
H           -3.14139297662362       -1.81847891855350        2.64730248793112
H           -2.33472142287355       -2.23628188665750        1.38273211477288
H           -1.64784031217696       -2.55350286910009       -0.74230302127884
O           -2.51651355819828       -2.35852246259190       -0.35401333513358
H           -2.95628856912905       -1.75002207610536       -0.97133633329116
H           -0.84839820439153       -2.77210722654951       -5.13605887173130
O            0.00007692560425       -2.57785244718520       -5.60348268675087
H            0.02148586923592       -1.61796002326597       -5.70379366323043
O           -2.18616832832560       -2.68873353903647       -4.02756691853307
H           -2.87518906586585       -2.20789731047841       -4.51219885724851
H           -1.74367649265689       -1.99821462341294       -3.50094965975053
O           -0.00972907613505        2.75917014114182        2.25215807189442
H           -0.00233663806328        1.78736436002903        2.29065150367803
H           -0.53055037895250        3.05359943942529        3.00277036703557
H           -2.94555700999966       -0.09529855156441        1.09028042750061
H           -2.67496853818878        0.66307664635715        2.40892416354467
O           -2.50182124252537        0.68228930143741        1.46380937524017
H           -0.30178413905725       -0.38028372042450       -7.95941749080139
H           -0.08271436725557        0.32464262502664       -6.59660516376789
O            0.35253525332335        0.09196239192688       -7.43630216092446
58
 energy: -95.515668193132 gnorm: 0.027957063284 xtb: 6.7.1 (edcfbbe)
N           -0.70304078326917        0.96042324185896       -0.48342589912628
C            0.43814504044362        1.81328004097696       -0.83464130057387
C            0.32357205280111        2.33756133049867       -2.26540759778163
C            0.71113501745972        1.31965089694902       -3.35584198961870
C           -0.40482710155616        0.37940367602373       -3.77638155707719
O           -0.82282089545213        0.40907144589304       -4.95990976152200
O           -0.92023964979731       -0.38045234134576       -2.91496363137570
H           -0.62614933080490        0.60121976414458        0.48849970737372
H           -1.59271598601956        1.49724838121708       -0.52364597118684
H            0.46203636265333        2.65219833467896       -0.13843357079559
H            1.35966496704317        1.24074256873064       -0.71454977316932
H            0.99274761380935        3.19112515258599       -2.36979295387229
H           -0.69315549070830        2.69652076989411       -2.43835520393662
H            1.54184991318372        0.70519113303022       -3.00172140061527
H            1.03525784648193        1.84433322826069       -4.25623342658066
H           -0.77244601620172        0.18740465740276       -1.16064201924063
O           -0.04784790326189       -0.09896012080403        2.06924537790344
H            0.66749518489512       -0.56498564165666        1.59354496590788
H           -0.75899044981014       -0.74161106499536        2.19902440552822
O           -3.54355406044770       -0.38184592696279       -2.13565082504801
H           -4.09389635651896       -0.48946952157573       -2.91761699898473
H           -2.63031927132177       -0.33338341062138       -2.47754441793052
O           -3.42289859855880       -0.47112234023691       -5.16268333492483
H           -3.79122406233370       -0.19842460951685       -6.00604520337697
H           -2.50404979525479       -0.12790604153529       -5.13941362792748
O           -3.23160798705030        2.12481786360427       -0.99422374589869
H           -3.52701552624844        1.26402013773210       -1.34767265878184
H           -3.70590471819088        2.24264893002114       -0.15767148841506
H           -0.16298326801021       -1.68776547048799       -1.98770801839269
H            0.60786697849915       -3.01364806197491       -2.07850643192987
O            0.11259822693976       -2.45364661918803       -1.45397167682066
H            1.15294631727181       -1.79620725859804       -0.21173106398754
H            2.33158837270468       -2.04361535307268        0.77153956749622
O            1.74092852074165       -1.36265399009627        0.44407622386507
O            1.47768055565761       -3.62768439024140       -3.54614191824496
H            1.55230028216564       -4.56724184944046       -3.73434299998309
H            1.05351759529040       -3.23482110909533       -4.33835154569223
O           -2.22429042486057       -2.00442817182656        2.33520177346889
H           -3.12862736152156       -1.92826353401590        2.68690907046027
H           -2.32016955526586       -2.25732120388877        1.39503336809726
H           -1.65508430221306       -2.54426356213483       -0.73894338308102
O           -2.52024455410263       -2.34603700964183       -0.34599096671063
H           -2.96385672295289       -1.74134776835639       -0.96386500821705
H           -0.84699703003624       -2.77487265506264       -5.12573497129649
O            0.00421104103159       -2.60373346958171       -5.59969133227824
H            0.04723872763648       -1.64740596712762       -5.71721409274859
O           -2.18496767517344       -2.68379708167374       -4.03024883512969
H           -2.87432982320022       -2.20246171797224       -4.51452516908264
H           -1.74547907382879       -1.99434335461538       -3.49959917762805
O            0.00266413950047        2.75208176488677        2.23987597033069
H            0.00948529423333        1.78122647937266        2.29002620240615
H           -0.51012072363712        3.05463168342542        2.99286039936477
H           -2.99913797948642       -0.06687832153246        1.10236714927460
H           -2.75984846518074        0.67301419025613        2.42612376098356
O           -2.62870765588502        0.75267525744061        1.47294383468935
H           -0.26365094237315       -0.36964150421314       -7.98481775246196
H           -0.07600461869506        0.34786141375427       -6.62607699990821
O            0.37501860969023        0.11292307954768       -7.45188695459814
58
 energy: -95.517735302198 gnorm: 0.024278752754 xtb: 6.7.1 (edcfbbe)
N           -0.70430886855679        0.96219561814203       -0.47612502661229
C            0.44006246165802        1.81181515438895       -0.83481153233215
C            0.32529282436734        2.33702015051827       -2.26557117072642
C            0.70504885464226        1.32023430328685       -3.35957321954174
C           -0.43149321346727        0.40049748523441       -3.77839932824964
O           -0.84201909465998        0.42632143346874       -4.95912905710477
O           -0.92459152916098       -0.37767701857186       -2.91767910159245
H           -0.62110746345853        0.60551161270480        0.49689607616294
H           -1.59153852130231        1.50336275142629       -0.52789979127689
H            0.47007474955113        2.65188539991971       -0.14011493308061
H            1.35933735196776        1.23543512030365       -0.71769120778095
H            1.00044486049690        3.18603418756313       -2.36971045169016
H           -0.68907706542851        2.70298837303047       -2.43748062114510
H            1.52952738740528        0.69540996492148       -3.00797683229226
H            1.03376965023400        1.84496288576890       -4.25849685402238
H           -0.77080089582186        0.18742539144446       -1.15153948984982
O           -0.04528944580583       -0.11299215899703        2.06314300797329
H            0.67895919452401       -0.56632069057363        1.59119026830404
H           -0.73771324436445       -0.77540335865297        2.21670840640178
O           -3.54414581888637       -0.38121134451159       -2.13389989147057
H           -4.09471520434817       -0.49369186578762       -2.91504932956222
H           -2.63058052981668       -0.33647910146339       -2.47596759750736
O           -3.44076214520168       -0.47538273623499       -5.15086953398264
H           -3.82022954953747       -0.19068797730717       -5.98592122537253
H           -2.52795982182587       -0.11481089113933       -5.12750070427028
O           -3.20240764494677        2.13582560546559       -1.01557321259730
H           -3.51201258186964        1.28371673584150       -1.37248088052998
H           -3.63846000076129        2.23695194512166       -0.15707491560984
H           -0.16639755809953       -1.68925821362993       -1.99301822795031
H            0.60170181221717       -3.01756605983420       -2.07805113787988