37
 energy: -59.752232452180 gnorm: 0.187558300331 xtb: 6.7.1 (edcfbbe)
N            0.06495200000000       -0.17036600000000        2.24069000000000
C           -0.42508700000000       -0.28387700000000        0.86827900000000
C            0.36773000000000        0.64114900000000       -0.07116600000000
C           -0.13442900000000        0.59759400000000       -1.52314500000000
C            0.09666800000000       -0.71348800000000       -2.23073300000000
O            0.72724600000000       -1.73996500000000       -1.62853300000000
O           -0.27063500000000       -0.83895900000000       -3.38700000000000
H            1.07233000000000       -0.44720500000000        2.28653100000000
H           -0.04872800000000        0.81071300000000        2.58374800000000
H           -1.50104700000000       -0.00273500000000        0.84068300000000
H           -0.33838800000000       -1.34087900000000        0.54567800000000
H            1.44982600000000        0.38979400000000       -0.04170700000000
H            0.24571000000000        1.68308900000000        0.29572000000000
H           -1.21792700000000        0.84024100000000       -1.53588800000000
H            0.40005500000000        1.38331800000000       -2.09874700000000
H           -0.48827700000000       -0.80842500000000        2.85559100000000
O           -0.54321200000000        1.18676400000000        7.29901300000000
H            0.37060500000000        1.13500600000000        7.67699500000000
H           -1.11172400000000        0.71575000000000        7.95897800000000
O           -0.78611800000000        2.43101700000000        3.88146900000000
H           -1.70468200000000        2.79501300000000        3.81545200000000
H           -0.20573600000000        3.15982100000000        3.54588600000000
O            0.16142400000000       -0.82862800000000       -7.46580000000000
H           -0.77673200000000       -1.09419100000000       -7.29273700000000
H            0.64126200000000       -1.05344600000000       -6.62924400000000
O            1.75671400000000       -2.92018300000000        3.53119700000000
H            1.53623800000000       -2.23739600000000        4.21369400000000
H            1.34851300000000       -2.57755200000000        2.69657800000000
O           -1.41636700000000       -2.54839700000000        4.68322200000000
H           -0.55680500000000       -2.09422700000000        4.87162100000000
H           -1.46256000000000       -2.59198500000000        3.69500200000000
O            2.47240000000000        1.60819500000000        3.67380700000000
H            2.41947600000000        2.19198700000000        2.87568600000000
H            2.84091700000000        0.75463800000000        3.33285500000000
O            0.74469900000000        1.41102500000000        5.53111700000000
H            1.00643300000000        2.28963600000000        5.15675400000000
H            1.58651700000000        0.88999600000000        5.55310900000000
37
 energy: -59.782214939155 gnorm: 0.092847649449 xtb: 6.7.1 (edcfbbe)
N            0.05916135549891       -0.16255536071624        2.25694964663384
C           -0.42797291038478       -0.27889734514555        0.87097579604646
C            0.36389629455105        0.64647348148752       -0.05355927035695
C           -0.12566896041817        0.58990303904028       -1.50158596804701
C            0.10791035544003       -0.72616338272691       -2.23017934501167
O            0.70308345973376       -1.69227701969967       -1.60953927899311
O           -0.27871543277818       -0.84333633501142       -3.40184005160225
H            1.05598499990182       -0.42616926028829        2.30215833235231
H           -0.05303052189750        0.80585584603575        2.61788793685739
H           -1.48942001349908       -0.00592648245187        0.83306328004912
H           -0.33070364835896       -1.31465645023502        0.52047295136649
H            1.42820460414677        0.37760708922182       -0.04494941133035
H            0.25282914615216        1.68109089544816        0.29612957745056
H           -1.19961349044047        0.81945435700459       -1.54796421012646
H            0.38855051535197        1.36017607538584       -2.09490070029442
H           -0.48083601973526       -0.78962239574176        2.87285017228076
O           -0.59048604666127        1.18225271756958        7.37792647425503
H            0.32348806526566        1.12702205881814        7.70635900935127
H           -1.13576275278355        0.70069302476517        8.01708183583778
O           -0.80865619334085        2.41904507220117        3.74609103232922
H           -1.70485003260262        2.80772864913149        3.82347324145222
H           -0.23185536094934        3.18808598949528        3.55086175832509
O            0.16021807736525       -0.84030084065895       -7.45851860269857
H           -0.76413720171905       -1.08919803458633       -7.29178673205051
H            0.62796022847385       -1.04625952836962       -6.63282239974003
O            1.75503832483206       -2.90799309767287        3.53124867362481
H            1.53968680885420       -2.23613351818303        4.20059621164701
H            1.35375036968310       -2.59904716901608        2.70079429764852
O           -1.42251925421198       -2.52878842561563        4.67184676404550
H           -0.57044908823116       -2.10438353931491        4.87242561251580
H           -1.45596654663313       -2.61520220143186        3.70328157170748
O            2.49115930686045        1.60283019824220        3.62267026273689
H            2.45287110522810        2.18745973791596        2.85092078056142
H            2.87973319327602        0.77188484407882        3.30759264157140
O            0.79229112246527        1.39179528079259        5.50821961425334
H            1.02895702021398        2.26864416936182        5.16832872512447
H            1.62713012135067        0.90174986086912        5.54209477022770
37
 energy: -59.794177662827 gnorm: 0.034899880511 xtb: 6.7.1 (edcfbbe)
N            0.04599029444939       -0.14701255556459        2.27722534676840
C           -0.43248473743224       -0.26654219762719        0.87731108344385
C            0.36371748392979        0.65073899213151       -0.04180269958454
C           -0.12833593980527        0.58845728477721       -1.48374001666586
C            0.10324999385955       -0.75569085093558       -2.20757741706043
O            0.70050010189568       -1.65233006686744       -1.59721138073420
O           -0.27801327326292       -0.83319640104958       -3.40032035848763
H            1.03736574815406       -0.39139429903296        2.32422224454006
H           -0.07495605997023        0.81226063510430        2.65306926651740
H           -1.48479574875828       -0.00227589821271        0.83356638267813
H           -0.31619501349327       -1.28810076946477        0.51502644147207
H            1.41338596622186        0.36063729165997       -0.04509163493331
H            0.26500102777167        1.68024718436065        0.29444312255067
H           -1.19654330705276        0.80413907991086       -1.55439157554744
H            0.37916399964063        1.34213427683254       -2.09137942536735
H           -0.48459788581176       -0.76500758968365        2.89527630459345
O           -0.64703150060161        1.19609153677236        7.46570491602236
H            0.27368559412481        1.12375115236418        7.73357375456742
H           -1.16817689939204        0.68032284295161        8.07747905620978
O           -0.80626427692225        2.44390801270458        3.68890178013638
H           -1.69663155972262        2.77175034002013        3.77025093760242
H           -0.25515262812161        3.19478950007400        3.49291245371456
O            0.16026783514674       -0.85590968696369       -7.45137617094159
H           -0.75771408204364       -1.08243601454541       -7.29370495833071
H            0.61743633590180       -1.03633193519208       -6.62930006600156
O            1.75170962405040       -2.89762837592589        3.53180023231740
H            1.54781049608873       -2.22734036174182        4.18679162657875
H            1.36174616271594       -2.62842012038916        2.69671503089740
O           -1.43720562548359       -2.50341990952413        4.65761949890061
H           -0.58487316711173       -2.11894098386593        4.87871214029765
H           -1.44915360799788       -2.65412637005995        3.70625033654922
O            2.52050988996338        1.59436682581914        3.54417778019155
H            2.50498641019108        2.19057681048903        2.79927509269298
H            2.95175979590344        0.78833811871346        3.25994862923564
O            0.83074061938407        1.36248848414346        5.51941097982539
H            1.02093428739828        2.23720569396386        5.18287878051254
H            1.66942464619171        0.90674232385228        5.53800748484015
37
 energy: -59.799049027385 gnorm: 0.092516557889 xtb: 6.7.1 (edcfbbe)
N            0.02978534770010       -0.12441797646217        2.29803358494755
C           -0.43677417627560       -0.25111936974476        0.88960634626908
C            0.36193140860030        0.65845466098117       -0.03509124905662
C           -0.13386979240625        0.59228758275617       -1.47683030274504
C            0.13395349182902       -0.76693623916343       -2.19438298296964
O            0.68551761959585       -1.66019247251212       -1.55703147448950
O           -0.28661924120209       -0.84024307335688       -3.37882671384814
H            1.02442037233753       -0.35048289889653        2.35094218972962
H           -0.10670932622098        0.83246455093942        2.68077067353732
H           -1.48982512255806        0.00506695249654        0.83851042968212
H           -0.30454323826477       -1.27082098910577        0.53121019587714
H            1.40604669279357        0.35070653467273       -0.04245549825911
H            0.27749851048993        1.68937021594100        0.29701524745073
H           -1.20446318244656        0.78839951546537       -1.55650358642155
H            0.37192399355224        1.34047594071969       -2.08923122979445
H           -0.49649094653503       -0.74355908115419        2.91810498519060
O           -0.70745592178320        1.22461875707281        7.54414023901557
H            0.22979046168931        1.12015414696407        7.75174511086233
H           -1.20079842690220        0.65073502474698        8.13612245721090
O           -0.79582998378501        2.39815640491576        3.47191039050257
H           -1.68960859204382        2.74501976676051        3.79034647772897
H           -0.26668115519530        3.26215191769035        3.50160344044980
O            0.16645500923682       -0.88406404865294       -7.45268562385599
H           -0.76144025644017       -1.07181335314393       -7.29624425017325
H            0.60931576888065       -1.01956831769599       -6.61190067686682
O            1.75143717778948       -2.89456236102452        3.53589952714438
H            1.55468163995161       -2.20430382119048        4.17072153991212
H            1.36933463933046       -2.66417956779344        2.68497557467565
O           -1.47907652222055       -2.44538303436016        4.64267685961115
H           -0.58743725174271       -2.15290865927053        4.88811015738577
H           -1.42815419725641       -2.71716187160591        3.70031913251669
O            2.50804088668571        1.57047735353128        3.46216444258221
H            2.57447935093935        2.20610694702264        2.74280415770208
H            3.05478949373850        0.80715574209631        3.20764444541341
O            0.86163618605668        1.31983782286003        5.53013654694337
H            0.99572857203221        2.21000777017514        5.19588220507551
H            1.73027171004862        0.91291152732359        5.53444223106574
37
 energy: -59.805912999867 gnorm: 0.062472582684 xtb: 6.7.1 (edcfbbe)
N            0.01727589542101       -0.10585183265484        2.31096103271470
C           -0.44019229592279       -0.23895191899072        0.89976920554132
C            0.35850932142408        0.66883887045495       -0.02949208109349
C           -0.13804257184908        0.59747335537686       -1.47367918196313
C            0.15321071718880       -0.76668529157945       -2.18788657765847
O            0.68045898840919       -1.67520904838400       -1.51878305678400
O           -0.28423270542296       -0.84818801501786       -3.36434203081858
H            1.01712130852415       -0.31809445066221        2.37152803086597
H           -0.13143009583958        0.85180778575544        2.69255920586915
H           -1.49646866026025        0.01308572106871        0.84124519623157
H           -0.30086455412043       -1.26105101137234        0.54677948075812
H            1.40150221621523        0.34943363585588       -0.03976729171193
H            0.28738345400117        1.70301674345015        0.30419711374153
H           -1.21116916147306        0.78140220466767       -1.55475769326559
H            0.36725685947380        1.34397178034166       -2.08868795819843
H           -0.50818236482839       -0.72900940130153        2.93234660205183
O           -0.75724612808462        1.25204750175984        7.60949428831758
H            0.19508136905891        1.11569023694138        7.76801561787965
H           -1.22448929283583        0.62425532950784        8.18712677698323
O           -0.79088533070175        2.44263337727270        3.51693346593879
H           -1.69378875511026        2.71203696796082        3.69607654155386
H           -0.27389197836018        3.23246779144998        3.39404546269235
O            0.17371715427666       -0.90948577944601       -7.45814790898779
H           -0.76689090058327       -1.06146889464833       -7.29956521344071
H            0.60235962354693       -1.00481416465843       -6.59571284607324
O            1.74780451164106       -2.89600188096742        3.54303710625744
H            1.56040776872905       -2.17527271346927        4.15459415614829
H            1.37877792934163       -2.68964012819397        2.67489973279240
O           -1.49859749353559       -2.42447781176079        4.62822517435941
H           -0.58849931476541       -2.18048856386988        4.89268933469342
H           -1.42082491657961       -2.74180910143697        3.69597014322125
O            2.50529830918661        1.54782003042224        3.40672782265756
H            2.62538092727778        2.21519073660036        2.70634301910463
H            3.12009792626418        0.81560320358865        3.16269516053479
O            0.89306707430254        1.28200397979506        5.55169858838362
H            0.97111699708737        2.18366042032824        5.20111943002776
H            1.79112916890194        0.91690233581306        5.52639915067761
37
 energy: -59.806304965320 gnorm: 0.078500758618 xtb: 6.7.1 (edcfbbe)
N            0.00046775882837       -0.07740554330903        2.32634284811857
C           -0.44578021780196       -0.22520781282785        0.91587934667362
C            0.35676825223279        0.67633520408150       -0.01939337963653
C           -0.14671173937940        0.59307726932960       -1.46246249086683
C            0.10123974404704       -0.79305325424063       -2.15357589880418
O            0.71685900129217       -1.67602188451561       -1.50413044744669
O           -0.24859266540914       -0.84839242438074       -3.35468688978837
H            1.00626447015354       -0.27258664017875        2.39974736881144
H           -0.16425932043632        0.88488488351946        2.69753005508328
H           -1.50548339144476        0.02343515605971        0.84789432947520
H           -0.30286959685561       -1.25364819642231        0.57735729858438
H            1.39983036703010        0.34898266222923       -0.03105915486383
H            0.29925941014956        1.71524344806454        0.31277760064216
H           -1.21802688016133        0.78124264225442       -1.53880012680486
H            0.36372596200820        1.33116746435453       -2.08790291542555
H           -0.52481291546738       -0.70557743600248        2.94831584470506
O           -0.80093378479249        1.26342866325846        7.65561142838186
H            0.14812705891193        1.13181368288222        7.79473876955767
H           -1.25644627785610        0.62639587948021        8.22623773842136
O           -0.76746094119929        2.44961243136912        3.47489005476263
H           -1.68022097439481        2.66324384091983        3.63975869535672
H           -0.27512805048881        3.24693358354097        3.34347914352329
O            0.17671908730657       -0.91148470361228       -7.45046470958096
H           -0.76757218834091       -1.05935073574005       -7.30309427349088
H            0.59814897857775       -1.00549843665296       -6.58560652424472
O            1.72401226487030       -2.90828240427827        3.55284903672896
H            1.57189167600373       -2.13883685049314        4.12958664655889
H            1.39894565802277       -2.70398751416502        2.66419559451421
O           -1.44875559497777       -2.52158610349488        4.60653207052564
H           -0.60565663409610       -2.18329727202032        4.88629695885448
H           -1.45503073299888       -2.69243279100478        3.69479547172538
O            2.63215668421548        1.56165690624192        3.36380406131553
H            2.62647272688428        2.20125314800975        2.66291132261393
H            3.09059729740254        0.79767149469528        3.08939342053620
O            0.92512415121838        1.24362519289900        5.56889315880286
H            0.95695982652288        2.14464327418782        5.19899579831112
H            1.84143253042074        0.91484517595859        5.51701774837257
37
 energy: -59.814342251020 gnorm: 0.034976199241 xtb: 6.7.1 (edcfbbe)
N           -0.01364752327124       -0.05208459744740        2.34107336894992
C           -0.45005946659710       -0.21498581777206        0.92937867884544
C            0.35759565225335        0.67892135663621       -0.00763534404044
C           -0.14535674299577        0.58721419672051       -1.44846215072475
C            0.10985872637421       -0.79887000401087       -2.13947388850233
O            0.70476761412870       -1.67909760261264       -1.48846823610985
O           -0.24465728188508       -0.85747240027314       -3.33760975313665
H            0.99307972929120       -0.23337598110968        2.42421126396115
H           -0.19219568756867        0.91300856887739        2.70370212794530
H           -1.50881478969385        0.03018256409615        0.85309354797760
H           -0.30309962387005       -1.24515282304582        0.60075710014705
H            1.39882514228136        0.35139514906004       -0.01882623848983
H            0.30125250161584        1.71847780824058        0.31765893904007
H           -1.21732173209458        0.76898401014276       -1.52738855779309
H            0.35845001924572        1.32453727502301       -2.07874596584886
H           -0.53476274201072       -0.68167051752688        2.96292298592771
O           -0.83500268997229        1.27351459538350        7.68859730196783
H            0.11144354300416        1.14408773636550        7.80920191048463
H           -1.28198871632889        0.63714042011710        8.25343092526756
O           -0.73897204524942        2.43961925467231        3.39995753682519
H           -1.66366130492053        2.62029480469731        3.61688751979106
H           -0.28015472688786        3.28325759282915        3.31628093719293
O            0.17654149849290       -0.90788764020216       -7.43944698239816
H           -0.76406411077142       -1.06130597963005       -7.30464404493423
H            0.59323864597873       -1.00875484031469       -6.57993305080651
O            1.70718149069370       -2.91284680453222        3.55489738179584
H            1.57961137092048       -2.12262624108793        4.10988138666912
H            1.41570347535876       -2.70627617076382        2.65765727593865
O           -1.49938050706501       -2.44022859590029        4.59305177036576
H           -0.59183731584098       -2.23516297814399        4.88791484494471
H           -1.42230390521524       -2.76842264626004        3.67965331929938
O            2.60265338666341        1.53057468220706        3.31200892463157
H            2.66138444564314        2.20871933253771        2.63756490611401
H            3.16654201991107        0.80680069832756        3.04505611901095
O            0.94810662020965        1.21997182185332        5.57921740707685
H            0.96042715038416        2.10705232924929        5.19199208272973
H            1.86187887978715        0.90530944359584        5.50923964988933
37
 energy: -59.809711595402 gnorm: 0.111040974384 xtb: 6.7.1 (edcfbbe)
N           -0.03259959564886       -0.01812468170631        2.36070687351584
C           -0.45385316352477       -0.20205642913476        0.94771829167114
C            0.35854358589920        0.68278265958142        0.00838993377309
C           -0.14015981588447        0.58478691319032       -1.43045849336411
C            0.16853074707751       -0.78615785525687       -2.13487882055921
O            0.66323519640343       -1.69138543106640       -1.45171038939505
O           -0.25665390892602       -0.87590471217880       -3.30709826839794
H            0.97523288473642       -0.17414821760766        2.45898905668630
H           -0.23107716614988        0.95268378801034        2.70778406624456
H           -1.51070113397241        0.03905235281541        0.85896604359853
H           -0.30222261435805       -1.23410594349778        0.63190487134404
H            1.39770989488143        0.35723280377064        0.00144427933612
H            0.29993095203262        1.72169575711780        0.32617709029485
H           -1.21672729686080        0.74669796650276       -1.51243951409671
H            0.34777956604943        1.32791148692983       -2.06219812683332
H           -0.54617197929678       -0.64883587289161        2.98426379770090
O           -0.90026861539348        1.33104091599615        7.76171167603452
H            0.06735691572743        1.14242524683407        7.79098915892109
H           -1.30534743047014        0.62200376898348        8.29560589798690
O           -0.72159186278655        2.42809707729982        3.30407409282902
H           -1.63983925402904        2.60047081607689        3.59171479341177
H           -0.28393268349400        3.30145237001146        3.27754631320443
O            0.18392647265415       -0.93197364115217       -7.43604082661966
H           -0.76265683073029       -1.05329294401695       -7.30878451026123
H            0.57972328481234       -0.99499091604984       -6.55962467010644
O            1.67354615701976       -2.91521877204265        3.55995141297500
H            1.58592749666086       -2.10213636643628        4.08318254398908
H            1.44681281666632       -2.69736361033096        2.64761288715351
O           -1.47599970522547       -2.47356977312128        4.56882547158658
H           -0.59712728460894       -2.25502819145537        4.87146277567338
H           -1.43010537805687       -2.78628665090504        3.66978257655856
O            2.50831061667978        1.45594554210394        3.22987086694572
H            2.72721363193192        2.22122818170198        2.61321108595947
H            3.31279591077664        0.82814697471673        2.98668690780078
O            0.98354609161653        1.18164993748787        5.60177656369752
H            0.95307047688897        2.04611541881724        5.17679765232439
H            1.89510402090132        0.89200203090181        5.49074163842128
37
 energy: -59.818069551519 gnorm: 0.057090036387 xtb: 6.7.1 (edcfbbe)
N           -0.03818008858875       -0.00799710472235        2.36576820957448
C           -0.45437391154277       -0.19815286369592        0.95436792354883
C            0.35809125542968        0.68496707433603        0.01341851556343
C           -0.13915005632477        0.58567589485181       -1.42560665490665
C            0.17518425383799       -0.78118950793395       -2.13019109157470
O            0.65751253032985       -1.69567553953536       -1.43889281054170
O           -0.25297341824355       -0.87940963344894       -3.29959543831952
H            0.97127889353190       -0.15232697409255        2.47021491053726
H           -0.24329791752073        0.96621959598652        2.70409330257045
H           -1.51161438094216        0.04273505312106        0.86083344947901
H           -0.30326298502030       -1.23210581112861        0.64311479465684
H            1.39818610765157        0.36095637422594        0.01041014335565
H            0.29817844668902        1.72444667016014        0.33062808314566
H           -1.21721089425657        0.74378925905387       -1.50495124874903
H            0.34533478869167        1.33137482555561       -2.05725821845956
H           -0.54881389184956       -0.64048303949155        2.99040769789118
O           -0.91574401919251        1.33088976592257        7.77483448919291
H            0.04668754584351        1.15673213807361        7.79870071377470
H           -1.31841755076867        0.62781280453927        8.30833138583357
O           -0.72191434284106        2.43469848321637        3.30091883405744
H           -1.63296376930030        2.60037795837706        3.57360530996852
H           -0.28571509425843        3.29150418600486        3.25437441417212
O            0.18721013084387       -0.93852983462449       -7.43537092537398
H           -0.76276540436905       -1.05077414447346       -7.31135304156349
H            0.57591302208629       -0.99130076676934       -6.55219757075194
O            1.66055976170902       -2.91452212915831        3.56190311090778
H            1.58824704971782       -2.09472710423012        4.07392256029654
H            1.45894403304703       -2.68997199278754        2.64379770283497
O           -1.50786587870196       -2.41101520138571        4.55632661687666
H           -0.58364984781213       -2.29316472751939        4.86871240386153
H           -1.40644401728716       -2.83523560129910        3.66427588010367
O            2.63568175143223        1.48527241778444        3.22736549100091
H            2.69487307423499        2.19157483200506        2.58851599682968
H            3.25231880356968        0.80029050780429        2.95976963449210
O            0.99928993788230        1.16140261721470        5.60525575379801
H            0.94794437487114        2.02262021119110        5.17198578109470
H            1.91418270742084        0.88608330687211        5.48421889082706
37
 energy: -59.814567418267 gnorm: 0.081849733708 xtb: 6.7.1 (edcfbbe)
N           -0.03961675556460       -0.00604432341615        2.36811958785117
C           -0.45529706166993       -0.19736247250034        0.95999841218042
C            0.35631247518857        0.68827811529145        0.01861100411872
C           -0.14669940085250        0.58322456006880       -1.42025768704629
C            0.06593005636325       -0.81621295193532       -2.08690924987035
O            0.72273038613156       -1.67441520521517       -1.45008995761566
O           -0.19850502607294       -0.86168705406251       -3.31275961871599
H            0.97285774659649       -0.14234560825817        2.47543648442317
H           -0.24955004127250        0.96974859985577        2.69845807524547
H           -1.51482272034403        0.04388122502546        0.86445620505654
H           -0.30581564605082       -1.23375064442159        0.65004040946819
H            1.39872971886541        0.36148303896985        0.01735829761962
H            0.29967615279496        1.73138127167027        0.33643374239268
H           -1.21856561457605        0.76205867748465       -1.49173694993774
H            0.35045000153549        1.31917059739326       -2.06042309258208
H           -0.54882816533817       -0.64130156789358        2.99439289641673
O           -0.90384078977624        1.26116510898428        7.74046470341698
H            0.01342559777010        1.20980550615506        7.85570923762213
H           -1.34724669218634        0.67265591472654        8.31031587809323
O           -0.71727742807883        2.46259245149436        3.32629517549803
H           -1.64092009418308        2.58592480252075        3.56298382856167
H           -0.29739124623344        3.31262770709544        3.23518507915622
O            0.18347172616997       -0.90996109854755       -7.42115795741930
H           -0.75919999149323       -1.05964694968697       -7.31439610559537
H            0.58010249586800       -1.01016455014997       -6.55833633837949
O            1.64684596128669       -2.91262128022945        3.56279470046826
H            1.59547319072355       -2.07959023382132        4.06867248811050
H            1.46225529353445       -2.68460772063282        2.63915560463166
O           -1.48464325931871       -2.45565418634277        4.54466730368609
H           -0.58352532813159       -2.29843442503210        4.86434052074056
H           -1.41836686040596       -2.80787468334431        3.65366522794358
O            2.63954307330939        1.46204566763453        3.21587208696059
H            2.70808106285796        2.18812039065227        2.58977588750039
H            3.26571244273702        0.79130964447018        2.93832400580764
O            1.01107388588971        1.12968452516680        5.59048974280464
H            0.93595790492479        2.00000022706165        5.16364314422118
H            1.94274394900152        0.87935892376895        5.47506222717247
37
 energy: -59.822359833227 gnorm: 0.022433932790 xtb: 6.7.1 (edcfbbe)
N           -0.04415322452492        0.00335272772752        2.37487786043499
C           -0.45583338861998       -0.19460980993492        0.96675238134546
C            0.35614457663294        0.68964182713530        0.02580835602485
C           -0.14349029671846        0.58509334917172       -1.41249588290498