
                                 *****************
                                 * O   R   C   A *
                                 *****************

                                            #,                                       
                                            ###                                      
                                            ####                                     
                                            #####                                    
                                            ######                                   
                                           ########,                                 
                                     ,,################,,,,,                         
                               ,,#################################,,                 
                          ,,##########################################,,             
                       ,#########################################, ''#####,          
                    ,#############################################,,   '####,        
                  ,##################################################,,,,####,       
                ,###########''''           ''''###############################       
              ,#####''   ,,,,##########,,,,          '''####'''          '####       
            ,##' ,,,,###########################,,,                        '##       
           ' ,,###''''                  '''############,,,                           
         ,,##''                                '''############,,,,        ,,,,,,###''
      ,#''                                            '''#######################'''  
     '                                                          ''''####''''         
             ,#######,   #######,   ,#######,      ##                                
            ,#'     '#,  ##    ##  ,#'     '#,    #''#        ,####,   ,####,        
            ##       ##  ##   ,#'  ##            #'  '#       #'       #'  '#        
            ##       ##  #######   ##           ,######,      #####,   #    #        
            '#,     ,#'  ##    ##  '#,     ,#' ,#      #,     #,   #   #,  ,#        
             '#######'   ##     ##  '#######'  #'      '#     '####' # '####'        



                #########################################################
                #                        -***-                          #
                #          Department of theory and spectroscopy        #
                #                                                       #
                #                      Frank Neese                      #
                #                                                       #
                #     Directorship, Architecture, Infrastructure        #
                #                    SHARK, DRIVERS                     #
                #        Core code/Algorithms in most modules           #
                #                                                       #
                #        Max Planck Institute fuer Kohlenforschung      #
                #                Kaiser Wilhelm Platz 1                 #
                #                 D-45470 Muelheim/Ruhr                 #
                #                      Germany                          #
                #                                                       #
                #                  All rights reserved                  #
                #                        -***-                          #
                #########################################################


                         Program Version 6.0.1  -  RELEASE   -


 With contributions from (in alphabetic order):
[Max-Planck-Institut fuer Kohlenforschung]                               
  Daniel Aravena         : Magnetic Suceptibility                        
  Michael Atanasov       : Ab Initio Ligand Field Theory (pilot matlab implementation)
  Alexander A. Auer      : GIAO ZORA, VPT2 properties, NMR spectrum      
  Ute Becker             : All parallelization in ORCA, NUMFREQ, NUMCALC 
  Giovanni Bistoni       : ED, misc. LED, open-shell LED, HFLD           
  Martin Brehm           : Molecular dynamics                            
  Dmytro Bykov           : pre 5.0 version of the SCF Hessian            
  Marcos Casanova-Páez   : Triplet and SCS-CIS(D). UHF-(DLPNO)-IP/EA/STEOM-CCSD. UHF-CVS-IP/STEOM-CCSD   
  Vijay G. Chilkuri      : MRCI spin determinant printing, contributions to CSF-ICE 
  Pauline Colinet        : FMM embedding                                 
  Dipayan Datta          : RHF DLPNO-CCSD density                        
  Achintya Kumar Dutta   : EOM-CC, STEOM-CC                              
  Nicolas Foglia         : Exact transition moments, OPA infrastructure, MCD improvements    
  Dmitry Ganyushin       : Spin-Orbit,Spin-Spin,Magnetic field MRCI      
  Miquel Garcia-Rates    : C-PCM and meta-GGA Hessian, CCSD/C-PCM, Gaussian charge scheme 
  Tiago L. C. Gouveia    : GS-ROHF, GS-ROCIS                             
  Yang Guo               : DLPNO-NEVPT2, F12-NEVPT2, CIM, IAO-localization        
  Andreas Hansen         : Spin unrestricted coupled pair/coupled cluster methods 
  Ingolf Harden          : AUTO-CI MPn and infrastructure                
  Benjamin Helmich-Paris : MC-RPA, TRAH-(SCF,CASSCF), AVAS, COSX integrals, SCF dyn. polar. 
  Lee Huntington         : MR-EOM, pCC                                   
  Robert Izsak           : Overlap fitted RIJCOSX, COSX-SCS-MP3, EOM     
  Riya Kayal             : Wick's Theorem for AUTO-CI, AUTO-CI UHF-CCSDT 
  Emily Kempfer          : AUTO-CI, RHF CISDT and CCSDT                  
  Christian Kollmar      : KDIIS, OOCD, Brueckner-CCSD(T), CCSD density, CASPT2, CASPT2-K, improved NEVPT2 
  Axel Koslowski         : Symmetry handling                             
  Simone Kossmann        : meta-GGA functionals, TD-DFT gradient, OOMP2, (MP2 Hessian; deprecated post 5.0) 
  Lucas Lang             : DCDCAS                                        
  Marvin Lechner         : AUTO-CI (C++ implementation), FIC-MRCC        
  Spencer Leger          : CASSCF response                               
  Dagmar Lenk            : GEPOL surface, SMD, ORCA-2-JSON               
  Dimitrios Liakos       : Extrapolation schemes; Compound Job, initial MDCI parallelization 
  Dimitrios Manganas     : Further ROCIS development; embedding schemes. LFT, Crystal Embedding 
  Dimitrios Pantazis     : SARC Basis sets                               
  Anastasios Papadopoulos: AUTO-CI, single reference methods and gradients 
  Taras Petrenko         : pre 6.0 DFT Hessian and TD-DFT gradient, (ASA, deprecated), ECA, 1-Electron XAS/XES, NRVS 
  Peter Pinski           : DLPNO-MP2, DLPNO-MP2 Gradient                 
  Christoph Reimann      : Effective Core Potentials                     
  Marius Retegan         : Local ZFS, SOC                                
  Christoph Riplinger    : Optimizer, TS searches, QM/MM, DLPNO-CCSD(T), (RO)-DLPNO pert. Triples 
  Michael Roemelt        : Original ROCIS implementation                 
  Masaaki Saitow         : Open-shell DLPNO-CCSD energy and density      
  Barbara Sandhoefer     : DKH picture change effects                    
  Kantharuban Sivalingam : CASSCF convergence/infrastructure, NEVPT2 and variants, FIC-MRCI 
  Bernardo de Souza      : ESD, SOC TD-DFT                               
  Georgi L. Stoychev     : AutoAux, RI-MP2 NMR, DLPNO-MP2 response, X2C  
  Van Anh Tran           : RI-MP2 g-tensors                              
  Willem Van den Heuvel  : Paramagnetic NMR                              
  Zikuan Wang            : NOTCH, Electric field optimization            
  Frank Wennmohs         : Technical directorship and infrastructure     
  Hang Xu                : AUTO-CI-Response properties                   
                                                                         
[FACCTs GmbH]                                                            
  Markus Bursch, Miquel Garcia-Rates, Christoph Riplinger, Bernardo de Souza, Georgi L. Stoychev 
                                                                 
  APM, Basis sets (HGBS, AHGBS, def-TZVP (Ac-Lr), def2-XVPD (La-Lu)), CI-OPT, improved COSX, DLPNO-Multilevel,           
  DOCKER, DRACO, updates on ESD, GOAT, IRC, LR-CPCM, MBIS, meta-GGA TD-DFT gradient, ML-optimized integration grids, 
  MM, NACMEs, nearIR, NEB, NEB-TS, NL-DFT gradient (VV10), 2- and 3-layer-ONIOM, interface openCOSMO-RS, QMMM,   
  Crystal-QMMM, SF, symmetry and pop. for TD-DFT, r2SCAN hybrids, SOLVATOR                                   
                                                                         
[Other institutions]                                                     
  V. Asgeirsson          : NEB                                           
  Christoph Bannwarth    : sTDA-DFT, sTD-DFT, PBEh-3c, B97-3c, D3        
  Sebastian Ehlert       : rSCAN, r2SCAN, r2SCAN-3c, D4, dhf basis sets  
  Marvin Friede          : D4 for Fr, Ra, Ac-Lr                          
  Lars Goerigk           : TD-DFT with DH, B97 family of functionals     
  Stefan Grimme          : VdW corrections, initial TS optimization, DFT functionals, gCP, sTDA/sTD-DF 
  Waldemar Hujo          : DFT-NL                                        
  H. Jonsson             : NEB                                           
  Holger Kruse           : gCP                                           
  Marcel Mueller         : wB97X-3c, vDZP basis set                      
  Hagen Neugebauer       : wr2SCAN                                       
  Tobias Risthaus        : range-separated hybrid DFT                    
  Lukas Wittmann         : regularized MP2, r2SCAN double-hybrids, wr2SCAN        
                                                                         
We gratefully acknowledge several colleagues who have allowed us to      
interface, adapt or use parts of their codes:                            
  Ed Valeev, F. Pavosevic, A. Kumar             : LibInt (2-el integral package), F12 methods 
  Garnet Chan, S. Sharma, J. Yang, R. Olivares  : DMRG                   
  Ulf Ekstrom                                   : XCFun DFT Library      
  Mihaly Kallay                                 : mrcc  (arbitrary order and MRCC methods)
  Frank Weinhold                                : gennbo (NPA and NBO analysis)           
  Simon Mueller                                 : openCOSMO-RS                            
  Christopher J. Cramer and Donald G. Truhlar   : smd solvation model                     
  S Lehtola, MJT Oliveira, MAL Marques          : LibXC Library                           
  Liviu Ungur et al                             : ANISO software                          


 Your calculation uses the libint2 library for the computation of 2-el integrals
 For citations please refer to: http://libint.valeyev.net

 Your ORCA version has been built with support for libXC version: 6.2.2
 For citations please refer to: https://libxc.gitlab.io

 This ORCA versions uses:
   CBLAS   interface :  Fast vector & matrix operations
   LAPACKE interface :  Fast linear algebra routines
   SCALAPACK package :  Parallel linear algebra routines
   Shared memory     :  Shared parallel matrices
   BLAS/LAPACK       :  OpenBLAS 0.3.27  USE64BITINT DYNAMIC_ARCH NO_AFFINITY SkylakeX SINGLE_THREADED
        Core in use  :  SkylakeX
   Copyright (c) 2011-2014, The OpenBLAS Project


NOTE: MaxCore=5000 MB was set to SCF,MP2,MDCI,CIPSI,MRCI and CIS
      => If you want to overwrite this, your respective input block should be placed after the MaxCore statement
Your calculation utilizes the atom-pairwise dispersion correction
based on EEQ partial charges (D4)


Warning: RI is on but no J-basis has been assigned. Assigning Def2/J (nothing to worry about!)
================================================================================

----- Orbital basis set information -----
Your calculation utilizes the basis: def2-TZVP
   F. Weigend and R. Ahlrichs, Phys. Chem. Chem. Phys. 7, 3297 (2005).

----- AuxJ basis set information -----
Your calculation utilizes the auxiliary basis: def2/J
   F. Weigend, Phys. Chem. Chem. Phys. 8, 1057 (2006).

================================================================================
                                        WARNINGS
                       Please study these warnings very carefully!
================================================================================

WARNING: Old DensityContainer found on disk!
         Will remove this file - 
         If you want to keep old densities, please start your calculation with a different basename. 


WARNING: Geometry Optimization
  ===> : Switching off AutoStart
         For restart on a previous wavefunction, please use MOREAD

================================================================================
                                       INPUT FILE
================================================================================
NAME = 04_Aminobutyric-acid_zwitterion.inp
|  1> ! Opt B3LYP D4 def2-TZVP TightSCF TightOpt CPCM(water)
|  2> 
|  3> %maxcore 5000
|  4> 
|  5> %pal
|  6> nprocs 10
|  7> end
|  8> 
|  9> %geom
| 10> 	MaxIter 1000
| 11> end
| 12> 
| 13> * xyz 0 1
| 14>   N           1.24639319742918      1.36672395901065      0.41846495078260
| 15>   C           0.23669139249569      2.03800657263425     -0.45685998587321
| 16>   C           0.20855253068358      1.43421724710031     -1.85314871538778
| 17>   C           1.58638213268353      1.22599061806134     -2.52050273095758
| 18>   C           2.50739343721273      2.41595384449826     -2.31671938777330
| 19>   O           2.47855100735004      3.37004770620475     -3.12495517839697
| 20>   O           3.23422974259903      2.40325547685139     -1.27046332269018
| 21>   H           1.15804846955862      1.66764223135400      1.38632243957866
| 22>   H           1.17779292431577      0.33296962370364      0.38744641245498
| 23>   H          -0.73618545255489      1.96532379776861      0.02178146946375
| 24>   H           0.50931958003860      3.09278375122583     -0.48612343440075
| 25>   H          -0.40331809831172      2.10060153063551     -2.46250335400748
| 26>   H          -0.29919425536533      0.47069712037304     -1.82148887790807
| 27>   H           2.06372765333862      0.33750753118365     -2.10510045805391
| 28>   H           1.42932621511657      1.05417674985907     -3.58213594471297
| 29>   H           2.18061473820939      1.63485340141970      0.06187861625689
| 30>   O          -0.94918693075855     -0.56799316062891      1.17415349863367
| 31>   H          -1.84260726505670     -0.21934525574233      1.27580167050079
| 32>   H          -1.05127908798555     -1.39974748761201      0.69191752768511
| 33>   O           2.90163901610327     -1.37491225451435      2.78119765516541
| 34>   H           3.45779282106217     -0.65917399926894      3.11344621084273
| 35>   H           2.02742311688447     -1.25540784188236      3.21280604196838
| 36>   O           5.08076198164388      0.41100893085838     -0.52823783171980
| 37>   H           5.89769032865933      0.94762509939300     -0.61574919082996
| 38>   H           4.36323870336080      1.02161363359087     -0.78116176667813
| 39>   O           7.12370324903381      2.32684454029365     -0.64317532867086
| 40>   H           7.60511724779842      2.42183919551686     -1.47083221260693
| 41>   H           6.47781492926247      3.07966976770701     -0.62798050462502
| 42>   O           0.75023712355356      3.60455945483061     -5.19260078945698
| 43>   H           0.80962780842761      2.89180023351799     -5.83909755457952
| 44>   H           1.41844375548340      3.41095877910587     -4.49367216664633
| 45>   O           0.30233612181916     -1.23646246092194      3.59850503675862
| 46>   H          -0.03693949788328     -0.71414470928615      4.33494731168053
| 47>   H          -0.17561208480637     -0.93368447145340      2.79848623150326
| 48>   O           1.88150193405718     -1.41960018747551      0.18765610548747
| 49>   H           2.58160049616014     -1.55865610873677     -0.48309953480258
| 50>   H           2.34349121824074     -1.42111223948409      1.05340876121783
| 51>   O           2.85041156535560     -0.01296316114381     -5.96549934726570
| 52>   H           2.50378730737025     -0.60837531950339     -5.29106629299543
| 53>   H           2.34941086685322      0.80302733958552     -5.84876708989414
| 54>   O          -1.06838171200253      0.79837263804651     -5.36332082776709
| 55>   H          -0.22471701253797      0.33102078400183     -5.39646547240909
| 56>   H          -0.86889267812338      1.61440796429064     -4.88654969692182
| 57>   O           3.77743111269442      3.56077911916775      2.09399532323495
| 58>   H           4.22049205799293      3.82409199061165      1.26594266654818
| 59>   H           3.68874336647989      2.60334532526230      2.03849661890783
| 60>   O           5.02211673795949      4.15439757321888     -0.42731950397205
| 61>   H           4.32015919138728      3.60654440786487     -0.87475985001105
| 62>   H           5.06548850085335      4.99227222295089     -0.89287245490737
| 63>   O          -0.94896128682208      4.86137728454152     -3.26866053740726
| 64>   H          -0.51639441206740      4.39168152204842     -4.00611848063085
| 65>   H          -0.20163190048143      5.14346700144601     -2.70397061584333
| 66>   O           3.99433944217003     -1.80839600325743     -1.64564986480905
| 67>   H           4.52456488319417     -1.03402552796182     -1.34741020264625
| 68>   H           3.79307236926530     -1.64493613457853     -2.57351016693288
| 69>   O           1.44802113731358      5.64839100733781     -1.91637081350830
| 70>   H           1.99556432344526      4.89482695777959     -2.21975201845721
| 71>   H           1.52342593984122      5.65851238859968     -0.95330304151376
| 72> *
| 73> 
| 74>                          ****END OF INPUT****
================================================================================

                       *****************************
                       * Geometry Optimization Run *
                       *****************************

Geometry optimization settings:
Update method            Update   .... BFGS
Choice of coordinates    CoordSys .... (2022) Redundant Internals
Initial Hessian          InHess   .... Almloef's Model
Max. no of cycles        MaxIter  .... 1000

Convergence Tolerances:
Energy Change            TolE     ....  1.0000e-06 Eh
Max. Gradient            TolMAXG  ....  1.0000e-04 Eh/bohr
RMS Gradient             TolRMSG  ....  3.0000e-05 Eh/bohr
Max. Displacement        TolMAXD  ....  1.0000e-03 bohr
RMS Displacement         TolRMSD  ....  6.0000e-04 bohr
Strict Convergence                .... False

------------------------------------------------------------------------------
                        ORCA OPTIMIZATION COORDINATE SETUP
------------------------------------------------------------------------------

The optimization will be done in redundant internal coordinates (2022)
Making redundant internal coordinates   ...  (2022 redundants) done
Evaluating the initial hessian          ...  (Almloef) done
Evaluating the coordinates              ...  done
Calculating the B-matrix                .... done
Calculating the G-matrix                .... done
Diagonalizing the G-matrix              .... done
Small eigenvalue found = 7.854e-03
Small eigenvalue found = 1.730e-02
Small eigenvalue found = 2.050e-02
Small eigenvalue found = 2.708e-02
Small eigenvalue found = 2.970e-02
The first mode is                       ....  585
The number of degrees of freedom        ....  168

    -----------------------------------------------------------------
                    Redundant Internal Coordinates


    -----------------------------------------------------------------
         Definition                    Initial Value    Approx d2E/dq
    -----------------------------------------------------------------
      1. B(C   1,N   0)                  1.4954         0.379899   
      2. B(C   2,C   1)                  1.5215         0.385418   
      3. B(C   3,C   2)                  1.5450         0.353500   
      4. B(C   4,C   3)                  1.5185         0.389714   
      5. B(O   5,C   4)                  1.2507         0.933345   
      6. B(O   6,C   4)                  1.2740         0.856897   
      7. B(H   7,N   0)                  1.0174         0.421102   
      8. B(H   8,N   0)                  1.0365         0.392580   
      9. B(H   9,C   1)                  1.0867         0.364521   
     10. B(H  10,C   1)                  1.0898         0.360320   
     11. B(H  11,C   2)                  1.0908         0.359090   
     12. B(H  12,C   2)                  1.0896         0.360659   
     13. B(H  13,C   3)                  1.0908         0.359058   
     14. B(H  14,C   3)                  1.0869         0.364286   
     15. B(H  15,N   0)                  1.0353         0.394324   
     16. B(H  15,O   6)                  1.8643         0.018758   
     17. B(O  16,H   8)                  2.4402         0.002261   
     18. B(H  17,O  16)                  0.9644         0.511599   
     19. B(H  18,O  16)                  0.9668         0.507044   
     20. B(H  20,O  19)                  0.9654         0.509762   
     21. B(H  21,O  19)                  0.9823         0.479142   
     22. B(H  23,O  22)                  0.9813         0.480788   
     23. B(H  24,O   6)                  1.8501         0.019761   
     24. B(H  24,O  22)                  0.9755         0.491132   
     25. B(O  25,H  23)                  1.8456         0.020096   
     26. B(H  26,O  25)                  0.9622         0.515800   
     27. B(H  27,H  23)                  2.2096         0.001128   
     28. B(H  27,O  25)                  0.9920         0.462216   
     29. B(H  29,O  28)                  0.9641         0.512162   
     30. B(H  30,O  28)                  0.9861         0.472339   
     31. B(H  30,O   5)                  1.7317         0.030530   
     32. B(O  31,H  21)                  1.7678         0.026743   
     33. B(H  32,O  31)                  0.9645         0.511421   
     34. B(H  33,O  16)                  1.8359         0.020820   
     35. B(H  33,H  21)                  2.2646         0.000921   
     36. B(H  33,O  31)                  0.9799         0.483360   
     37. B(H  33,H  18)                  2.3284         0.000729   
     38. B(H  33,H  17)                  2.3681         0.000630   
     39. B(O  34,H   8)                  1.8991         0.016507   
     40. B(H  35,O  34)                  0.9795         0.484041   
     41. B(H  36,O  34)                  0.9813         0.480809   
     42. B(H  36,H   8)                  2.2089         0.001131   
     43. B(H  36,H  21)                  2.1887         0.001218   
     44. B(H  36,O  19)                  1.8163         0.022377   
     45. B(O  37,H  14)                  2.9730         0.000319   
     46. B(H  38,O  37)                  0.9641         0.512149   
     47. B(H  38,H  14)                  2.6151         0.000254   
     48. B(H  39,O  37)                  0.9646         0.511228   
     49. B(H  39,H  29)                  2.5950         0.000274   
     50. B(H  39,H  14)                  2.4591         0.000451   
     51. B(H  39,H  30)                  3.0829         0.000046   
     52. B(O  40,H  29)                  2.8523         0.000498   
     53. B(H  41,O  37)                  3.1462         0.000169   
     54. B(H  41,H  38)                  2.8876         0.000093   
     55. B(H  41,H  39)                  2.6558         0.000219   
     56. B(H  41,H  29)                  2.7970         0.000130   
     57. B(H  41,H  14)                  2.5594         0.000312   
     58. B(H  41,O  40)                  0.9650         0.510433   
     59. B(H  42,H  29)                  2.3144         0.000767   
     60. B(H  42,H  30)                  2.9349         0.000079   
     61. B(H  42,O  28)                  2.5838         0.001335   
     62. B(H  42,H  11)                  2.5158         0.000366   
     63. B(H  42,H  14)                  2.7013         0.000185   
     64. B(H  42,O  40)                  0.9659         0.508752   
     65. B(H  44,O  43)                  0.9754         0.491447   
     66. B(H  45,O  43)                  0.9631         0.514006   
     67. B(O  46,H  27)                  1.8205         0.022031   
     68. B(O  46,H  44)                  1.9023         0.016314   
     69. B(H  47,H  27)                  2.2347         0.001028   
     70. B(H  47,O   6)                  1.6685         0.038519   
     71. B(H  47,O  46)                  0.9965         0.454643   
     72. B(H  47,H  44)                  2.1540         0.001383   
     73. B(H  48,O  46)                  0.9595         0.520898   
     74. B(H  50,H  42)                  2.9347         0.000079   
     75. B(H  50,O  49)                  0.9755         0.491202   
     76. B(H  50,H  30)                  2.2233         0.001072   
     77. B(H  50,O  28)                  1.9057         0.016113   
     78. B(H  51,O  49)                  0.9782         0.486260   
     79. B(O  52,H  35)                  1.8465         0.020024   
     80. B(H  53,H  35)                  2.1903         0.001211   
     81. B(H  53,H  24)                  2.1383         0.001465   
     82. B(H  53,O  22)                  1.7517         0.028368   
     83. B(H  53,O  52)                  0.9848         0.474763   
     84. B(H  54,H  38)                  3.1815         0.000032   
     85. B(H  54,O  52)                  0.9634         0.513490   
     86. B(O  55,H  51)                  1.8965         0.016668   
     87. B(H  56,O   5)                  1.8378         0.020675   
     88. B(H  56,O  55)                  0.9796         0.483755   
     89. B(H  56,H  51)                  2.2636         0.000925   
     90. B(H  57,O  55)                  0.9661         0.508493   
     91. A(H   8,N   0,H  15)          107.9221         0.294229   
     92. A(C   1,N   0,H  15)          106.9426         0.325348   
     93. A(C   1,N   0,H   7)          111.4341         0.328889   
     94. A(C   1,N   0,H   8)          112.6747         0.325111   
     95. A(H   7,N   0,H   8)          108.5246         0.297303   
     96. A(H   7,N   0,H  15)          109.2333         0.297512   
     97. A(N   0,C   1,H  10)          106.3356         0.323303   
     98. A(N   0,C   1,C   2)          111.8090         0.364066   
     99. A(N   0,C   1,H   9)          108.4599         0.323919   
    100. A(H   9,C   1,H  10)          107.4888         0.291426   
    101. A(C   2,C   1,H  10)          111.3496         0.326020   
    102. A(C   2,C   1,H   9)          111.1686         0.326642   
    103. A(C   1,C   2,H  11)          106.2965         0.325836   
    104. A(C   1,C   2,C   3)          115.6821         0.361864   
    105. A(C   3,C   2,H  11)          109.9552         0.321248   
    106. A(H  11,C   2,H  12)          107.1622         0.290782   
    107. A(C   3,C   2,H  12)          107.9956         0.321477   
    108. A(C   1,C   2,H  12)          109.4435         0.326070   
    109. A(C   2,C   3,C   4)          112.1673         0.362549   
    110. A(C   2,C   3,H  13)          109.6053         0.321243   
    111. A(C   4,C   3,H  14)          110.0364         0.327205   
    112. A(H  13,C   3,H  14)          107.8462         0.291235   
    113. A(C   2,C   3,H  14)          108.3216         0.322004   
    114. A(C   4,C   3,H  13)          108.7702         0.326427   
    115. A(C   3,C   4,O   6)          116.6432         0.420499   
    116. A(C   3,C   4,O   5)          119.8067         0.426974   
    117. A(O   5,C   4,O   6)          123.4658         0.489630   
    118. A(C   4,O   5,H  30)          122.8799         0.251337   
    119. A(H  30,O   5,H  56)          102.0527         0.148072   
    120. A(C   4,O   5,H  56)          108.7030         0.237629   
    121. A(C   4,O   6,H  47)          123.9800         0.256829   
    122. A(H  24,O   6,H  47)           94.5126         0.150629   
    123. A(C   4,O   6,H  24)          124.9439         0.233298   
    124. A(O  34,H   8,H  36)           26.2776         0.110540   
    125. A(N   0,H   8,H  36)          138.4222         0.133131   
    126. A(N   0,H   8,O  34)          154.0299         0.189070   
    127. A(C   2,H  11,H  42)          121.6025         0.122904   
    128. A(C   3,H  14,H  41)          146.1489         0.121802   
    129. A(C   3,H  14,H  39)          149.5889         0.124655   
    130. A(O  37,H  14,H  38)           18.4758         0.095292   
    131. A(O  37,H  14,H  39)           17.3647         0.096163   
    132. A(C   3,H  14,H  38)          132.7998         0.120317   
    133. A(O  37,H  14,H  42)           95.3938         0.094856   
    134. A(H  39,H  14,H  41)           63.8671         0.094764   
    135. A(C   3,H  14,O  37)          140.4202         0.129762   
    136. A(O  37,H  14,H  41)           68.8506         0.095590   
    137. A(C   3,H  14,H  42)          124.1824         0.118151   
    138. A(H  39,H  14,H  42)           83.9393         0.094123   
    139. A(H  38,H  14,H  42)           99.5465         0.093499   
    140. A(H  38,H  14,H  41)           67.8309         0.094063   
    141. A(H  41,H  14,H  42)           33.5372         0.093713   
    142. A(H  38,H  14,H  39)           34.8173         0.094503   
    143. A(H  18,O  16,H  33)          108.3262         0.200757   
    144. A(H  17,O  16,H  33)          111.6599         0.200983   
    145. A(H  17,O  16,H  18)          105.4116         0.319665   
    146. A(O  16,H  17,H  33)           46.0992         0.130048   
    147. A(O  16,H  18,H  33)           48.4594         0.131337   
    148. A(H  20,O  19,H  21)          105.7417         0.316543   
    149. A(H  21,O  19,H  36)           98.4872         0.201149   
    150. A(H  20,O  19,H  36)          121.5527         0.202733   
    151. A(H  33,H  21,H  36)           88.3229         0.098223   
    152. A(O  31,H  21,H  36)          110.9158         0.113432   
    153. A(O  31,H  21,H  33)           24.3680         0.111937   
    154. A(O  19,H  21,O  31)          164.9482         0.205766   
    155. A(O  19,H  21,H  36)           55.1616         0.135949   
    156. A(O  19,H  21,H  33)          143.3886         0.133076   
    157. A(H  23,O  22,H  24)          104.2950         0.314809   
    158. A(H  24,O  22,H  53)           99.2972         0.207999   
    159. A(H  23,O  22,H  53)          132.3545         0.207427   
    160. A(O  25,H  23,H  27)           26.4168         0.111508   
    161. A(O  22,H  23,O  25)          164.3653         0.198538   
    162. A(O  22,H  23,H  27)          138.3052         0.135176   
    163. A(O   6,H  24,H  53)          133.9408         0.112791   
    164. A(O  22,H  24,H  53)           53.9449         0.138232   
    165. A(O   6,H  24,O  22)          170.0087         0.198649   
    166. A(H  23,O  25,H  26)          114.7675         0.200295   
    167. A(H  23,O  25,H  27)           97.7226         0.197566   
    168. A(H  26,O  25,H  27)          105.3079         0.315301   
    169. A(H  23,H  27,O  25)           55.8606         0.134766   
    170. A(O  46,H  27,H  47)           25.9687         0.111506   
    171. A(O  25,H  27,H  47)          143.6916         0.133820   
    172. A(O  25,H  27,O  46)          165.9928         0.199848   
    173. A(H  23,H  27,H  47)           88.5451         0.098292   
    174. A(H  23,H  27,O  46)          111.0433         0.111981   
    175. A(H  30,O  28,H  50)           95.1745         0.192779   
    176. A(H  29,O  28,H  50)          139.7995         0.194698   
    177. A(H  42,O  28,H  50)           80.0892         0.116491   
    178. A(H  30,O  28,H  42)          100.9206         0.148053   
    179. A(H  29,O  28,H  42)           63.1661         0.149145   
    180. A(H  29,O  28,H  30)          106.7610         0.316049   
    181. A(H  39,H  29,H  42)           89.2901         0.095312   
    182. A(H  39,H  29,H  41)           58.8742         0.093225   
    183. A(O  40,H  29,H  41)           19.6395         0.094979   
    184. A(O  40,H  29,H  42)           17.9646         0.097932   
    185. A(O  28,H  29,O  40)          112.9659         0.137110   
    186. A(H  41,H  29,H  42)           33.0033         0.094336   
    187. A(O  28,H  29,H  41)          123.2265         0.117741   
    188. A(O  28,H  29,H  39)          129.3550         0.122998   
    189. A(H  39,H  29,O  40)           78.4945         0.096073   
    190. A(O  28,H  29,H  42)           95.0126         0.131931   
    191. A(O   5,H  30,H  50)          111.7055         0.113461   
    192. A(O   5,H  30,H  39)           98.1963         0.100970   
    193. A(O  28,H  30,H  50)           58.6105         0.134469   
    194. A(H  39,H  30,H  50)          137.0824         0.093538   
    195. A(H  39,H  30,H  42)           70.0432         0.091511   
    196. A(O   5,H  30,O  28)          168.4116         0.208930   
    197. A(H  42,H  30,H  50)           67.7370         0.094132   
    198. A(O   5,H  30,H  42)          124.6409         0.102537   
    199. A(O  28,H  30,H  42)           59.8157         0.114162   
    200. A(O  28,H  30,H  39)           93.3917         0.111249   
    201. A(H  21,O  31,H  33)          107.5275         0.205998   
    202. A(H  21,O  31,H  32)          121.0417         0.207502   
    203. A(H  32,O  31,H  33)          106.5282         0.317163   
    204. A(O  16,H  33,H  17)           22.2409         0.108888   
    205. A(O  16,H  33,H  18)           23.2144         0.109554   
    206. A(H  18,H  33,H  21)          120.1940         0.097211   
    207. A(H  18,H  33,O  31)          149.3442         0.130881   
    208. A(O  16,H  33,O  31)          171.6633         0.199553   
    209. A(H  21,H  33,O  31)           48.1045         0.133164   
    210. A(H  17,H  33,O  31)          164.0629         0.129524   
    211. A(H  17,H  33,H  21)          147.7039         0.096945   
    212. A(H  17,H  33,H  18)           38.1779         0.096534   
    213. A(O  16,H  33,H  21)          126.8743         0.110674   
    214. A(H   8,O  34,H  36)           94.7643         0.193769   
    215. A(H   8,O  34,H  35)          117.8987         0.193928   
    216. A(H  35,O  34,H  36)          105.5122         0.314069   
    217. A(O  52,H  35,H  53)           26.5270         0.111853   
    218. A(O  34,H  35,H  53)          150.4909         0.135994   
    219. A(O  19,H  36,H  21)           26.3512         0.112466   
    220. A(H   8,H  36,H  21)           99.2723         0.098660   
    221. A(H  21,H  36,O  34)          143.3536         0.135986   
    222. A(H   8,H  36,O  19)          115.3899         0.112076   
    223. A(O  19,H  36,O  34)          169.7014         0.201238   
    224. A(H   8,H  36,O  34)           58.9581         0.135203   
    225. A(H  14,O  37,H  41)           49.3498         0.096091   
    226. A(H  38,O  37,H  41)           65.7698         0.126680   
    227. A(H  14,O  37,H  39)           49.5398         0.132499   
    228. A(H  14,O  37,H  38)           59.2713         0.132516   
    229. A(H  39,O  37,H  41)           51.5357         0.126664   
    230. A(H  38,O  37,H  39)          104.5389         0.320151   
    231. A(H  41,H  38,H  54)          121.3381         0.091406   
    232. A(H  14,H  38,H  54)           79.3649         0.092018   
    233. A(O  37,H  38,H  54)          130.7714         0.109877   
    234. A(H  14,H  38,H  41)           55.1669         0.092854   
    235. A(H  14,H  38,O  37)          102.2529         0.122433   
    236. A(O  37,H  38,H  41)           96.5040         0.115655   
    237. A(H  30,H  39,H  41)           77.4553         0.092167   
    238. A(H  29,H  39,H  30)           30.4882         0.092332   
    239. A(H  14,H  39,H  30)           52.8052         0.092730   
    240. A(H  30,H  39,O  37)          157.7643         0.111651   
    241. A(H  29,H  39,H  41)           64.3616         0.093752   
    242. A(H  14,H  39,H  41)           59.9031         0.094320   
    243. A(O  37,H  39,H  41)          111.9421         0.121308   
    244. A(H  14,H  39,H  29)           72.0823         0.094596   
    245. A(H  29,H  39,O  37)          171.7073         0.122984   
    246. A(H  14,H  39,O  37)          113.0956         0.127049   
    247. A(H  29,O  40,H  42)           47.6473         0.137037   
    248. A(H  29,O  40,H  41)           76.9441         0.137073   
    249. A(H  41,O  40,H  42)          104.2135         0.319721   
    250. A(O  37,H  41,H  38)           17.7261         0.093343   
    251. A(O  37,H  41,H  39)           16.5221         0.094266   
    252. A(H  29,H  41,O  37)           73.1438         0.093683   
    253. A(H  14,H  41,O  37)           61.7996         0.094706   
    254. A(O  37,H  41,O  40)          156.0145         0.126651   
    255. A(H  38,H  41,H  39)           31.5927         0.092726   
    256. A(H  29,H  41,H  38)           87.3745         0.092313   
    257. A(H  14,H  41,H  38)           57.0023         0.093037   
    258. A(H  38,H  41,O  40)          169.2218         0.115635   
    259. A(H  29,H  41,H  39)           56.7642         0.093017   
    260. A(H  14,H  41,H  39)           56.2298         0.093895   
    261. A(H  39,H  41,O  40)          140.0957         0.121296   
    262. A(H  14,H  41,H  29)           67.3260         0.093352   
    263. A(H  29,H  41,O  40)           83.4164         0.117719   
    264. A(H  14,H  41,O  40)          113.8160         0.123992   
    265. A(H  14,H  42,H  30)           53.0772         0.092449   
    266. A(O  28,H  42,H  30)           19.2638         0.095665   
    267. A(H  11,H  42,H  30)           66.9517         0.093024   
    268. A(H  29,H  42,H  30)           32.0079         0.093758   
    269. A(H  30,H  42,O  40)          138.0873         0.114588   
    270. A(H  14,H  42,H  50)           87.0887         0.092449   
    271. A(O  28,H  42,H  50)           39.7670         0.095666   
    272. A(H  30,H  42,H  50)           44.5163         0.091841   
    273. A(H  11,H  42,H  50)           60.3842         0.093025   
    274. A(H  29,H  42,H  50)           60.9250         0.093759   
    275. A(O  40,H  42,H  50)          166.5013         0.114593   
    276. A(H  14,H  42,O  28)           71.5668         0.097094   
    277. A(H  11,H  42,H  14)           54.3637         0.093887   
    278. A(H  14,H  42,H  29)           72.3130         0.094778   
    279. A(H  14,H  42,O  40)          103.8182         0.120074   
    280. A(H  11,H  42,O  28)           81.3329         0.098445   
    281. A(O  28,H  42,H  29)           21.8212         0.100166   
    282. A(O  28,H  42,O  40)          136.1927         0.149054   
    283. A(H  11,H  42,H  29)           98.9565         0.095742   
    284. A(H  11,H  42,O  40)          132.6157         0.125258   
    285. A(H  29,H  42,O  40)          114.3881         0.131867   
    286. A(H  44,O  43,H  45)          105.1459         0.318283   
    287. A(O  46,H  44,H  47)           27.5567         0.111485   
    288. A(O  43,H  44,H  47)          146.8748         0.137599   
    289. A(O  43,H  44,O  46)          173.7069         0.194008   
    290. A(H  27,O  46,H  48)          115.2063         0.202888   
    291. A(H  27,O  46,H  47)          100.9063         0.199435   
    292. A(H  47,O  46,H  48)          107.1008         0.314959   
    293. A(H  27,O  46,H  44)          109.4236         0.141002   
    294. A(H  44,O  46,H  48)          127.0525         0.195401   
    295. A(H  44,O  46,H  47)           90.4222         0.192174   
    296. A(O   6,H  47,H  27)          118.9843         0.114539   
    297. A(H  27,H  47,O  46)           53.1250         0.133652   
    298. A(O   6,H  47,O  46)          164.0361         0.214321   
    299. A(H  27,H  47,H  44)           87.6353         0.098731   
    300. A(O   6,H  47,H  44)          106.1661         0.116312   
    301. A(H  44,H  47,O  46)           62.0212         0.136751   
    302. A(H  50,O  49,H  51)          103.6788         0.315396   
    303. A(O  28,H  50,H  30)           26.2149         0.110167   
    304. A(H  30,H  50,O  49)          139.8249         0.134874   
    305. A(O  28,H  50,O  49)          164.6422         0.193703   
    306. A(H  30,H  50,H  42)           67.7467         0.094133   
    307. A(O  28,H  50,H  42)           60.1438         0.100716   
    308. A(H  42,H  50,O  49)          128.9913         0.114390   
    309. A(O  49,H  51,H  56)          146.4439         0.133261   
    310. A(O  49,H  51,O  55)          168.8231         0.194267   
    311. A(O  55,H  51,H  56)           25.3216         0.109627   
    312. A(H  53,O  52,H  54)          105.7088         0.316446   
    313. A(H  35,O  52,H  54)          115.0603         0.200091   
    314. A(H  35,O  52,H  53)           96.5987         0.198137   
    315. A(H  24,H  53,H  35)           93.3733         0.099230   
    316. A(O  22,H  53,H  35)          107.1405         0.113728   
    317. A(H  35,H  53,O  52)           56.8742         0.135789   
    318. A(O  22,H  53,H  24)           26.7580         0.114820   
    319. A(H  24,H  53,O  52)          142.7064         0.137856   
    320. A(O  22,H  53,O  52)          164.0032         0.207090   
    321. A(H  38,H  54,O  52)          164.2814         0.109889   
    322. A(H  51,O  55,H  57)          118.9922         0.195338   
    323. A(H  51,O  55,H  56)           98.7873         0.194144   
    324. A(H  56,O  55,H  57)          105.8522         0.316909   
    325. A(H  51,H  56,O  55)           55.8911         0.133209   
    326. A(O   5,H  56,O  55)          159.6544         0.199398   
    327. A(O   5,H  56,H  51)          103.9374         0.110658   
    328. D(H   9,C   1,N   0,H   7)    -47.8358         0.013217   
    329. D(H   9,C   1,N   0,H   8)     74.4354         0.013217   
    330. D(C   2,C   1,N   0,H  15)     69.9227         0.013217   
    331. D(H   9,C   1,N   0,H  15)   -167.1463         0.013217   
    332. D(C   2,C   1,N   0,H   7)   -170.7668         0.013217   
    333. D(C   2,C   1,N   0,H   8)    -48.4956         0.013217   
    334. D(C   3,C   2,C   1,H   9)   -168.3631         0.011822   
    335. D(H  11,C   2,C   1,N   0)   -169.3378         0.011822   
    336. D(H  11,C   2,C   1,H  10)    -50.5426         0.011822   
    337. D(C   3,C   2,C   1,H  10)     71.8104         0.011822   
    338. D(C   3,C   2,C   1,N   0)    -46.9847         0.011822   
    339. D(H  11,C   2,C   1,H   9)     69.2839         0.011822   
    340. D(C   4,C   3,C   2,H  12)   -166.1476         0.010052   
    341. D(H  13,C   3,C   2,C   1)     77.7758         0.010052   
    342. D(C   4,C   3,C   2,C   1)    -43.1521         0.010052   
    343. D(H  13,C   3,C   2,H  11)   -161.8360         0.010052   
    344. D(C   4,C   3,C   2,H  11)     77.2361         0.010052   
    345. D(H  13,C   3,C   2,H  12)    -45.2196         0.010052   
    346. D(O   5,C   4,C   3,H  14)     32.9251         0.011300   
    347. D(O   5,C   4,C   3,H  13)    150.8601         0.011300   
    348. D(O   6,C   4,C   3,H  13)    -32.3640         0.011300   
    349. D(O   6,C   4,C   3,C   2)     89.0444         0.011300   
    350. D(O   5,C   4,C   3,C   2)    -87.7316         0.011300   
    351. D(H  30,O   5,C   4,O   6)   -176.3972         0.077407   
    352. D(H  56,O   5,C   4,C   3)    118.9215         0.077407   
    353. D(H  30,O   5,C   4,C   3)      0.1482         0.077407   
    354. D(H  56,O   5,C   4,O   6)    -57.6238         0.077407   
    355. D(H  47,O   6,C   4,C   3)    179.3618         0.069423   
    356. D(H  47,O   6,C   4,O   5)     -3.9918         0.069423   
    357. D(H  24,O   6,C   4,C   3)     53.4380         0.069423   
    358. D(H  24,O   6,C   4,O   5)   -129.9156         0.069423   
    359. D(O  34,H   8,N   0,C   1)    129.3678         0.220879   
    360. D(O  34,H   8,N   0,H  15)     11.5247         0.220879   
    361. D(H  36,H   8,N   0,H  15)     51.0554         0.220879   
    362. D(H  36,H   8,N   0,H   7)    -67.2064         0.220879   
    363. D(H  36,H   8,N   0,C   1)    168.8985         0.220879   
    364. D(O  34,H   8,N   0,H   7)   -106.7371         0.220879   
    365. D(H  42,H  11,C   2,C   3)     55.2747         0.120642   
    366. D(H  42,H  11,C   2,C   1)   -178.8157         0.120642   
    367. D(H  42,H  11,C   2,H  12)    -61.8627         0.120642   
    368. D(H  39,H  14,C   3,C   4)     47.9240         0.166660   
    369. D(H  42,H  14,C   3,H  13)    134.6044         0.166660   
    370. D(H  39,H  14,C   3,C   2)    170.8687         0.166660   
    371. D(H  42,H  14,C   3,C   4)   -106.8909         0.166660   
    372. D(H  41,H  14,C   3,C   2)    -21.1697         0.166660   
    373. D(H  41,H  14,C   3,C   4)   -144.1144         0.166660   
    374. D(H  41,H  14,C   3,H  13)     97.3809         0.166660   
    375. D(H  42,H  14,C   3,C   2)     16.0538         0.166660   
    376. D(H  33,H  17,O  16,H  18)    117.4135         0.367765   
    377. D(H  33,H  18,O  16,H  17)   -119.6451         0.359366   
    378. D(H  33,H  21,O  19,H  36)     -4.7387         0.339080   
    379. D(H  33,H  21,O  19,H  20)    121.5430         0.339080   
    380. D(O  31,H  21,O  19,H  36)     24.0340         0.339080   
    381. D(O  31,H  21,O  19,H  20)    150.3157         0.339080   
    382. D(H  36,H  21,O  19,H  20)    126.2816         0.339080   
    383. D(O  25,H  23,O  22,H  24)     32.2852         0.313427   
    384. D(H  27,H  23,O  22,H  24)     22.2316         0.313427   
    385. D(H  27,H  23,O  22,H  53)    139.4831         0.313427   
    386. D(O  25,H  23,O  22,H  53)    149.5367         0.313427   
    387. D(O  22,H  24,O   6,H  47)    -15.9716         0.001750   
    388. D(O  22,H  24,O   6,C   4)    121.6830         0.001750   
    389. D(H  53,H  24,O   6,H  47)   -155.3529         0.001750   
    390. D(H  53,H  24,O   6,C   4)    -17.6983         0.001750   
    391. D(O   6,H  24,O  22,H  53)   -144.5607         0.331029   
    392. D(O   6,H  24,O  22,H  23)     -6.2976         0.331029   
    393. D(H  53,H  24,O  22,H  23)    138.2631         0.331029   
    394. D(H  26,O  25,H  23,O  22)   -125.9826         0.001737   
    395. D(H  27,O  25,H  23,O  22)    -15.1293         0.001737   
    396. D(H  26,O  25,H  23,H  27)   -110.8534         0.001737   
    397. D(H  23,H  27,O  25,H  26)    118.3881         0.309287   
    398. D(O  46,H  27,O  25,H  26)    140.6146         0.309287   
    399. D(H  47,H  27,O  25,H  26)    105.4417         0.309287   
    400. D(O  46,H  27,O  25,H  23)     22.2266         0.309287   
    401. D(O  46,H  27,H  23,O  22)     -0.4405         0.001514   
    402. D(H  47,H  27,H  23,O  25)    172.3742         0.001514   
    403. D(O  46,H  27,H  23,O  25)   -174.3702         0.001514   
    404. D(H  47,H  27,O  25,H  23)    -12.9463         0.309287   
    405. D(O  25,H  27,H  23,O  22)    173.9297         0.001514   
    406. D(H  47,H  27,H  23,O  22)    -13.6961         0.001514   
    407. D(O  40,H  29,O  28,H  30)     94.6393         0.464312   
    408. D(O  40,H  29,O  28,H  50)    -25.5140         0.464312   
    409. D(H  41,H  29,O  28,H  42)    -18.3887         0.464312   
    410. D(H  41,H  29,O  28,H  30)     75.5891         0.464312   
    411. D(H  41,H  29,O  28,H  50)    -44.5642         0.464312   
    412. D(H  42,H  29,O  28,H  50)    -26.1755         0.464312   
    413. D(H  42,H  29,O  28,H  30)     93.9779         0.464312   
    414. D(H  42,H  30,O  28,H  50)     80.8782         0.377003   
    415. D(H  50,H  30,O  28,H  29)   -145.9161         0.377003   
    416. D(O   5,H  30,O  28,H  50)    -35.0398         0.377003   
    417. D(H  42,H  30,O   5,C   4)     13.7780         0.002166   
    418. D(H  42,H  30,O   5,H  56)   -108.1234         0.002166   
    419. D(H  42,H  30,O  28,H  29)    -65.0379         0.377003   
    420. D(H  50,H  30,O   5,H  56)    -30.8681         0.002166   
    421. D(O   5,H  30,O  28,H  42)   -115.9180         0.377003   
    422. D(H  50,H  30,O   5,C   4)     91.0333         0.002166   
    423. D(O  28,H  30,O   5,H  56)      0.9699         0.002166   
    424. D(O   5,H  30,O  28,H  29)    179.0441         0.377003   
    425. D(O  28,H  30,O   5,C   4)    122.8713         0.002166   
    426. D(H  50,H  30,O  28,H  42)    -80.8782         0.377003   
    427. D(H  32,O  31,H  21,H  36)   -145.6846         0.001968   
    428. D(H  33,O  31,H  21,H  36)    -23.1177         0.001968   
    429. D(H  32,O  31,H  21,O  19)   -166.6535         0.001968   
    430. D(H  32,O  31,H  21,H  33)   -122.5669         0.001968   
    431. D(H  33,O  31,H  21,O  19)    -44.0866         0.001968   
    432. D(H  18,H  33,O  31,H  32)   -149.7296         0.374095   
    433. D(H  21,H  33,O  31,H  32)    131.1321         0.374095   
    434. D(H  18,H  33,H  21,O  19)     17.7692         0.001511   
    435. D(O  16,H  33,H  21,H  36)    -12.9031         0.001511   
    436. D(O  31,H  33,H  21,O  19)    162.3646         0.001511   
    437. D(O  16,H  33,H  21,O  19)     -9.0135         0.001511   
    438. D(H  17,H  33,H  18,O  16)     33.5074         0.001506   
    439. D(H  21,H  33,H  18,O  16)   -113.8670         0.001506   
    440. D(O  31,H  33,H  18,O  16)   -171.6224         0.001506   
    441. D(O  16,H  33,H  21,O  31)   -171.3781         0.001511   
    442. D(H  18,H  33,H  17,O  16)    -35.0928         0.001504   
    443. D(H  21,H  33,H  17,O  16)     25.6200         0.001504   
    444. D(O  31,H  33,H  21,H  36)    158.4750         0.001511   
    445. D(H  18,H  33,H  21,H  36)     13.8797         0.001511   
    446. D(O  31,H  33,H  17,O  16)   -163.0393         0.001504   
    447. D(H  17,H  33,O  16,H  18)   -115.6429         0.001822   
    448. D(O  16,H  33,O  31,H  21)     55.8040         0.374095   
    449. D(H  18,H  33,O  16,H  17)    115.6429         0.001822   
    450. D(H  21,H  33,O  16,H  18)     81.1434         0.001822   
    451. D(O  16,H  33,O  31,H  32)   -173.0640         0.374095   
    452. D(H  21,H  33,O  16,H  17)   -163.2137         0.001822   
    453. D(O  31,H  33,O  16,H  17)    146.4645         0.001822   
    454. D(O  31,H  33,O  16,H  18)     30.8216         0.001822   
    455. D(H  17,H  33,O  31,H  32)    -42.6640         0.374095   
    456. D(H  18,H  33,O  31,H  21)     79.1383         0.374095   
    457. D(H  36,O  34,H   8,N   0)     72.5728         0.001673   
    458. D(H  35,O  34,H   8,H  36)   -110.3523         0.001673   
    459. D(H  35,O  34,H   8,N   0)    -37.7794         0.001673   
    460. D(H  53,H  35,O  34,H   8)     53.6470         0.318894   
    461. D(H  53,H  35,O  34,H  36)    -50.5043         0.318894   
    462. D(H  21,H  36,H   8,O  34)   -148.2748         0.001515   
    463. D(H   8,H  36,O  19,H  20)    -58.2301         0.001823   
    464. D(O  19,H  36,O  34,H  35)    179.8264         0.342113   
    465. D(H   8,H  36,H  21,O  19)   -130.4804         0.001517   
    466. D(O  34,H  36,H  21,H  33)     -2.3161         0.001517   
    467. D(O  34,H  36,H  21,O  31)      7.0105         0.001517   
    468. D(O  34,H  36,H  21,O  19)   -179.4909         0.001517   
    469. D(H  21,H  36,O  19,H  20)   -114.4266         0.001823   
    470. D(H   8,H  36,O  19,H  21)     56.1965         0.001823   
    471. D(O  19,H  36,O  34,H   8)     59.1349         0.342113   
    472. D(H   8,H  36,O  34,H  35)    120.6915         0.342113   
    473. D(O  34,H  36,O  19,H  21)      1.6999         0.001823   
    474. D(H  21,H  36,O  34,H  35)   -178.9095         0.342113   
    475. D(O  34,H  36,O  19,H  20)   -112.7267         0.001823   
    476. D(H   8,H  36,H  21,H  33)     46.6944         0.001517   
    477. D(H  21,H  36,H   8,N   0)     70.7431         0.001515   
    478. D(O  19,H  36,H   8,O  34)   -170.2199         0.001515   
    479. D(O  19,H  36,H   8,N   0)     48.7980         0.001515   
    480. D(H  21,H  36,O  34,H   8)     60.3990         0.342113   
    481. D(O  34,H  36,H   8,N   0)   -140.9820         0.001515   
    482. D(H   8,H  36,H  21,O  31)     56.0211         0.001517   
    483. D(H  39,O  37,H  14,H  38)    152.9757         0.001500   
    484. D(H  39,O  37,H  14,H  42)     48.9072         0.001500   
    485. D(H  39,O  37,H  14,H  41)     69.8035         0.001500   
    486. D(H  39,O  37,H  14,C   3)   -131.8228         0.001500   
    487. D(H  38,O  37,H  14,C   3)     75.2015         0.001500   
    488. D(H  38,O  37,H  14,H  41)    -83.1722         0.001500   
    489. D(H  38,O  37,H  14,H  42)   -104.0685         0.001500   
    490. D(H  38,O  37,H  14,H  39)   -152.9757         0.001500   
    491. D(H  54,H  38,O  37,H  14)    -86.4395         0.434233   
    492. D(H  54,H  38,O  37,H  39)   -107.3645         0.434233   
    493. D(H  41,H  38,O  37,H  14)     55.6997         0.434233   
    494. D(H  14,H  38,O  37,H  41)    -55.6997         0.434233   
    495. D(H  14,H  38,O  37,H  39)    -20.9250         0.434233   
    496. D(H  41,H  38,O  37,H  39)     34.7747         0.434233   
    497. D(H  41,H  38,H  14,O  37)    -89.4323         0.001501   
    498. D(H  41,H  38,H  14,H  39)    -75.6928         0.001501   
    499. D(H  41,H  38,H  14,H  42)    -11.1182         0.001501   
    500. D(H  41,H  38,H  14,C   3)    147.6622         0.001501   
    501. D(O  37,H  38,H  14,H  39)     13.7394         0.001501   
    502. D(O  37,H  38,H  14,H  41)     89.4323         0.001501   
    503. D(O  37,H  38,H  14,H  42)     78.3141         0.001501   
    504. D(O  37,H  38,H  14,C   3)   -122.9056         0.001501   
    505. D(H  41,H  39,O  37,H  14)    -65.4216         0.462127   
    506. D(H  41,H  39,O  37,H  38)    -41.6248         0.462127   
    507. D(H  29,H  39,O  37,H  14)   -127.3633         0.462127   
    508. D(H  29,H  39,O  37,H  38)   -103.5665         0.462127   
    509. D(H  14,H  39,O  37,H  41)     65.4216         0.462127   
    510. D(H  14,H  39,H  30,O  28)   -121.4981         0.001500   
    511. D(H  14,H  39,H  30,O   5)     58.5932         0.001500   
    512. D(H  14,H  39,O  37,H  38)     23.7968         0.462127   
    513. D(O  37,H  39,H  30,O   5)      2.3050         0.001500   
    514. D(H  14,H  39,H  30,H  50)    -76.1261         0.001500   
    515. D(O  37,H  39,H  30,O  28)   -177.7862         0.001500   
    516. D(H  14,H  39,H  29,O  40)    -65.5101         0.001501   
    517. D(H  14,H  39,H  29,H  41)    -64.5705         0.001501   
    518. D(H  14,H  39,H  29,H  42)    -51.0464         0.001501   
    519. D(H  14,H  39,H  29,O  28)     44.8568         0.001501   
    520. D(O  37,H  39,H  29,H  42)     78.7461         0.001501   
    521. D(H  29,H  39,H  14,H  38)    158.4731         0.001503   
    522. D(H  29,H  39,H  14,O  37)    173.0803         0.001503   
    523. D(O  37,H  39,H  30,H  50)   -132.4142         0.001500   
    524. D(O  37,H  39,H  30,H  42)   -121.6598         0.001500   
    525. D(H  14,H  39,H  30,H  42)    -65.3717         0.001500   
    526. D(H  29,H  39,H  14,H  42)     42.0643         0.001503   
    527. D(O  37,H  39,H  29,H  41)     65.2219         0.001501   
    528. D(H  29,H  39,H  14,H  41)     70.2326         0.001503   
    529. D(H  29,H  39,H  14,C   3)   -117.2028         0.001503   
    530. D(O  37,H  39,H  29,O  40)     64.2824         0.001501   
    531. D(O  37,H  39,H  14,H  38)    -14.6072         0.001503   
    532. D(O  37,H  39,H  14,H  42)   -131.0160         0.001503   
    533. D(H  29,H  39,O  37,H  41)    -61.9417         0.462127   
    534. D(O  37,H  39,H  29,O  28)    174.6492         0.001501   
    535. D(O  37,H  39,H  14,H  41)   -102.8477         0.001503   
    536. D(O  37,H  39,H  14,C   3)     69.7169         0.001503   
    537. D(H  42,O  40,H  29,H  39)    125.9297         0.001500   
    538. D(H  42,O  40,H  29,H  41)    123.5362         0.001500   
    539. D(H  41,O  40,H  29,H  39)      2.3935         0.001500   
    540. D(H  41,O  40,H  29,H  42)   -123.5362         0.001500   
    541. D(H  41,O  40,H  29,O  28)   -125.6731         0.001500   
    542. D(H  42,O  40,H  29,O  28)     -2.1369         0.001500   
    543. D(O  40,H  41,H  39,H  30)     33.5036         0.001501   
    544. D(O  40,H  41,H  39,H  29)      4.2454         0.001501   
    545. D(O  40,H  41,H  39,H  14)     87.5698         0.001501   
    546. D(H  29,H  41,H  38,H  54)    111.1197         0.001500   
    547. D(H  29,H  41,H  38,H  14)     64.5111         0.001500   
    548. D(H  29,H  41,H  38,O  37)    -35.9108         0.001500   
    549. D(H  14,H  41,H  38,O  37)   -100.4219         0.001500   
    550. D(O  40,H  41,H  38,H  54)     79.8370         0.001500   
    551. D(O  40,H  41,H  38,H  14)     33.2285         0.001500   
    552. D(O  40,H  41,H  38,O  37)    -67.1934         0.001500   
    553. D(H  29,H  41,O  37,H  14)     72.8676         0.001500   
    554. D(H  29,H  41,O  37,H  39)      7.0876         0.001500   
    555. D(H  29,H  41,O  37,H  38)    142.2504         0.001500   
    556. D(H  14,H  41,O  37,H  38)     69.3827         0.001500   
    557. D(O  40,H  41,O  37,H  14)     85.5253         0.001500   
    558. D(O  40,H  41,O  37,H  39)     19.7453         0.001500   
    559. D(O  40,H  41,O  37,H  38)    154.9081         0.001500   
    560. D(H  39,H  41,H  29,H  42)   -154.5765         0.001500   
    561. D(H  39,H  41,H  29,O  28)   -119.3404         0.001500   
    562. D(H  14,H  41,H  29,H  39)     63.4819         0.001500   
    563. D(H  14,H  41,H  29,O  40)   -119.2582         0.001500   
    564. D(H  14,H  41,H  29,H  42)    -91.0946         0.001500   
    565. D(H  14,H  41,O  37,H  39)    -65.7800         0.001500   
    566. D(H  14,H  41,H  29,O  28)    -55.8585         0.001500   
    567. D(O  40,H  41,H  29,H  39)   -177.2599         0.001500   
    568. D(O  40,H  41,H  29,H  42)     28.1636         0.001500   
    569. D(O  40,H  41,H  29,O  28)     63.3997         0.001500   
    570. D(H  29,H  41,H  14,O  37)    -82.3817         0.001502   
    571. D(H  29,H  41,H  14,H  38)   -102.2449         0.001502   
    572. D(H  29,H  41,H  14,H  39)    -64.2022         0.001502   
    573. D(H  14,H  41,H  38,H  54)     46.6086         0.001500   
    574. D(H  29,H  41,H  14,H  42)     57.6221         0.001502   
    575. D(H  29,H  41,H  14,C   3)    122.5513         0.001502   
    576. D(O  40,H  41,H  14,O  37)   -153.7053         0.001502   
    577. D(O  40,H  41,H  39,O  37)   -167.6385         0.001501   
    578. D(O  40,H  41,H  14,H  38)   -173.5685         0.001502   
    579. D(O  40,H  41,H  14,H  39)   -135.5258         0.001502   
    580. D(O  40,H  41,H  14,H  42)    -13.7015         0.001502   
    581. D(H  14,H  41,H  39,O  37)    104.7917         0.001501   
    582. D(O  40,H  41,H  14,C   3)     51.2277         0.001502   
    583. D(H  38,H  41,O  40,H  29)     31.4772         0.460270   
    584. D(H  38,H  41,O  40,H  42)     -7.9759         0.460270   
    585. D(H  39,H  41,O  40,H  29)     -3.5736         0.460270   
    586. D(H  39,H  41,O  40,H  42)    -43.0267         0.460270   
    587. D(H  29,H  41,O  40,H  42)    -39.4531         0.460270   
    588. D(H  14,H  41,O  40,H  29)     61.6337         0.460270   
    589. D(H  14,H  41,O  40,H  42)     22.1806         0.460270   
    590. D(H  29,H  41,H  39,H  14)     83.3244         0.001501   
    591. D(H  29,H  41,H  39,O  37)   -171.8839         0.001501   
    592. D(H  14,H  41,H  39,H  30)    -54.0662         0.001501   
    593. D(H  14,H  41,H  39,H  29)    -83.3244         0.001501   
    594. D(H  50,H  42,O  40,H  41)    123.4868         0.484515   
    595. D(H  14,H  42,O  40,H  41)    -19.6935         0.484515   
    596. D(O  28,H  42,O  40,H  29)      1.0604         0.484515   
    597. D(O  28,H  42,O  40,H  41)     57.9512         0.484515   
    598. D(H  11,H  42,O  40,H  41)    -73.6058         0.484515   
    599. D(H  29,H  42,O  40,H  41)     56.8909         0.484515   
    600. D(H  11,H  42,H  30,O   5)     31.1743         0.001500   
    601. D(H  29,H  42,H  30,H  39)    -63.4814         0.001500   
    602. D(H  29,H  42,H  30,H  50)    108.6271         0.001500   
    603. D(H  29,H  42,H  30,O   5)   -149.6669         0.001500   
    604. D(H  29,H  42,H  30,O  28)     43.0189         0.001500   
    605. D(O  40,H  42,H  30,H  39)    -11.5090         0.001500   
    606. D(O  40,H  42,H  30,H  50)    160.5994         0.001500   
    607. D(O  40,H  42,H  30,O   5)    -97.6945         0.001500   
    608. D(O  28,H  42,H  29,H  39)    129.4586         0.001509   
    609. D(O  28,H  42,H  29,O  40)   -178.0250         0.001509   
    610. D(O  28,H  42,H  29,H  41)    151.0219         0.001509   
    611. D(H  11,H  42,H  29,O  40)    145.4916         0.001509   
    612. D(H  11,H  42,H  29,H  41)    114.5385         0.001509   
    613. D(H  11,H  42,H  29,O  28)    -36.4834         0.001509   
    614. D(O  40,H  42,H  29,H  41)    -30.9531         0.001509   
    615. D(O  40,H  42,H  29,O  28)    178.0250         0.001509   
    616. D(H  14,H  42,O  28,H  29)     88.3304         0.001502   
    617. D(H  11,H  42,O  28,H  50)    -53.2508         0.001502   
    618. D(H  11,H  42,O  28,H  30)     40.1622         0.001502   
    619. D(H  11,H  42,O  28,H  29)    143.5498         0.001502   
    620. D(H  29,H  42,O  28,H  50)    163.1994         0.001502   
    621. D(O  40,H  42,H  29,H  39)    -52.5164         0.001509   
    622. D(H  29,H  42,O  28,H  30)   -103.3876         0.001502   
    623. D(O  40,H  42,O  28,H  50)    160.6006         0.001502   
    624. D(O  40,H  42,O  28,H  30)   -105.9864         0.001502   
    625. D(H  11,H  42,H  29,H  39)     92.9752         0.001509   
    626. D(O  40,H  42,O  28,H  29)     -2.5988         0.001502   
    627. D(H  11,H  42,H  14,C   3)      3.4337         0.001501   
    628. D(H  29,H  42,H  14,O  37)    -61.6820         0.001501   
    629. D(O  40,H  42,H  30,O  28)     94.9913         0.001500   
    630. D(H  29,H  42,H  14,H  38)    -79.8447         0.001501   
    631. D(H  29,H  42,H  14,H  39)    -48.6090         0.001501   
    632. D(H  29,H  42,H  14,H  41)    -98.7031         0.001501   
    633. D(H  29,H  42,H  14,C   3)    118.8803         0.001501   
    634. D(O  40,H  42,H  14,O  37)     49.9032         0.001501   
    635. D(O  40,H  42,H  14,H  38)     31.7405         0.001501   
    636. D(O  40,H  42,H  14,H  39)     62.9762         0.001501   
    637. D(H  11,H  42,H  30,O  28)   -136.1399         0.001500   
    638. D(O  40,H  42,H  14,H  41)     12.8821         0.001501   
    639. D(O  40,H  42,H  14,C   3)   -129.5345         0.001501   
    640. D(H  30,H  42,H  11,C   2)    -94.9163         0.001502   
    641. D(H  11,H  42,O  40,H  29)   -130.4967         0.484515   
    642. D(H  50,H  42,H  11,C   2)   -144.4124         0.001502   
    643. D(H  14,H  42,H  11,C   2)    -34.8017         0.001502   
    644. D(O  28,H  42,H  11,C   2)   -108.2864         0.001502   
    645. D(H  14,H  42,O  40,H  29)    -76.5844         0.484515   
    646. D(H  29,H  42,H  11,C   2)    -95.3677         0.001502   
    647. D(O  40,H  42,H  11,C   2)     40.1140         0.001502   
    648. D(H  47,H  44,O  43,H  45)     45.1185         0.298995   
    649. D(O  46,H  44,O  43,H  45)     19.7439         0.298995   
    650. D(H  27,O  46,H  44,H  47)   -101.7257         0.001669   
    651. D(H  27,O  46,H  44,O  43)    -71.3146         0.001669   
    652. D(H  48,O  46,H  44,H  47)    111.9639         0.001669   
    653. D(H  48,O  46,H  44,O  43)    142.3750         0.001669   
    654. D(H  47,O  46,H  44,O  43)     30.4111         0.001669   
    655. D(H  44,O  46,H  27,O  25)     43.1867         0.001838   
    656. D(H  48,O  46,H  27,H  23)   -146.5064         0.001838   
    657. D(H  48,O  46,H  27,H  47)   -114.9403         0.001838   
    658. D(H  48,O  46,H  27,O  25)   -166.1067         0.001838   
    659. D(H  47,O  46,H  27,H  23)    -31.5660         0.001838   
    660. D(H  47,O  46,H  27,O  25)    -51.1663         0.001838   
    661. D(H  44,H  47,O  46,H  48)   -129.2498         0.319870   
    662. D(H  27,H  47,O  46,H  44)   -109.8827         0.319870   
    663. D(H  27,H  47,O  46,H  48)    120.8675         0.319870   
    664. D(O   6,H  47,O  46,H  44)    -44.7045         0.319870   
    665. D(O   6,H  47,O  46,H  27)     65.1783         0.319870   
    666. D(H  27,H  47,H  44,O  46)     48.8425         0.001521   
    667. D(H  27,H  47,H  44,O  43)   -125.3299         0.001521   
    668. D(O   6,H  47,H  44,O  46)    168.3790         0.001521   
    669. D(O   6,H  47,H  44,O  43)     -5.7933         0.001521   
    670. D(O  46,H  47,H  44,O  43)   -174.1723         0.001521   
    671. D(H  44,H  47,H  27,O  25)    105.2120         0.001513   
    672. D(O   6,H  47,H  27,H  23)    -12.6763         0.001513   
    673. D(O   6,H  47,H  27,O  46)   -163.4193         0.001513   
    674. D(O   6,H  47,H  27,O  25)     -1.9865         0.001513   
    675. D(O  46,H  47,H  27,H  23)    150.7431         0.001513   
    676. D(O  46,H  47,H  27,O  25)    161.4328         0.001513   
    677. D(O   6,H  47,O  46,H  48)   -173.9543         0.319870   
    678. D(H  44,H  47,O   6,H  24)    -79.0985         0.002587   
    679. D(H  44,H  47,O   6,C   4)    142.6504         0.002587   
    680. D(H  27,H  47,O   6,H  24)     17.3017         0.002587   
    681. D(H  27,H  47,O   6,C   4)   -120.9494         0.002587   
    682. D(O  46,H  47,O   6,H  24)    -38.7972         0.002587   
    683. D(O  46,H  47,O   6,C   4)   -177.0483         0.002587   
    684. D(H  42,H  50,O  49,H  51)    121.0074         0.331151   
    685. D(H  30,H  50,O  49,H  51)     19.2635         0.331151   
    686. D(O  28,H  50,H  42,H  11)    114.3359         0.001500   
    687. D(O  28,H  50,H  42,H  29)     -7.0613         0.001500   
    688. D(O  28,H  50,H  42,O  40)    -80.0706         0.001500   
    689. D(O  49,H  50,H  42,H  14)   -100.6931         0.001500   
    690. D(O  49,H  50,H  42,O  28)   -164.9813         0.001500   
    691. D(O  49,H  50,H  42,H  11)    -50.6454         0.001500   
    692. D(O  49,H  50,H  42,H  29)   -172.0426         0.001500   
    693. D(O  49,H  50,H  42,O  40)    114.9481         0.001500   
    694. D(O  28,H  50,H  30,H  39)    -56.3292         0.001515   
    695. D(O  28,H  50,H  30,H  42)    -67.2541         0.001515   
    696. D(O  28,H  50,H  30,O   5)    172.8692         0.001515   
    697. D(O  49,H  50,H  30,H  39)    135.6182         0.001515   
    698. D(O  49,H  50,H  30,H  42)    124.6933         0.001515   
    699. D(O  49,H  50,H  30,O   5)      4.8166         0.001515   
    700. D(O  49,H  50,H  30,O  28)   -168.0526         0.001515   
    701. D(O  49,H  50,H  42,H  30)   -136.9646         0.001500   
    702. D(H  42,H  50,O  28,H  29)     23.5522         0.001678   
    703. D(H  30,H  50,O  28,H  42)    100.2115         0.001678   
    704. D(H  30,H  50,O  28,H  29)    123.7637         0.001678   
    705. D(O  28,H  50,O  49,H  51)     -0.9354         0.331151   
    706. D(O  49,H  50,O  28,H  42)    130.4933         0.001678   
    707. D(O  49,H  50,O  28,H  30)     30.2818         0.001678   
    708. D(O  49,H  50,O  28,H  29)    154.0455         0.001678   
    709. D(H  56,H  51,O  49,H  50)    -15.0446         0.290959   
    710. D(O  55,H  51,O  49,H  50)     21.2275         0.290959   
    711. D(H  54,O  52,H  35,H  53)   -110.7916         0.001736   
    712. D(H  54,O  52,O  34,H   8)    -64.2157         0.001501   
    713. D(H  54,O  52,O  34,H  36)   -166.7898         0.001501   
    714. D(H  53,O  52,O  34,H   8)     46.4473         0.001501   
    715. D(H  53,O  52,O  34,H  36)    -56.1268         0.001501   
    716. D(H  35,H  53,O  52,H  54)    118.3904         0.331199   
    717. D(H  24,H  53,O  52,H  54)     76.1907         0.331199   
    718. D(O  22,H  53,O  52,H  35)     -2.3438         0.331199   
    719. D(O  22,H  53,O  52,H  54)    116.0466         0.331199   
    720. D(H  24,H  53,H  35,O  52)    155.9396         0.001516   
    721. D(H  24,H  53,H  35,O  34)    -30.6624         0.001516   
    722. D(O  22,H  53,H  35,O  52)    179.3242         0.001516   
    723. D(O  22,H  53,H  35,O  34)     -7.2778         0.001516   
    724. D(O  52,H  53,H  35,O  34)    173.3980         0.001516   
    725. D(H  35,H  53,H  24,O   6)    -65.4269         0.001523   
    726. D(H  35,H  53,H  24,O  22)    122.6044         0.001523   
    727. D(O  22,H  53,H  24,O   6)    171.9688         0.001523   
    728. D(O  52,H  53,H  24,O   6)    -31.1272         0.001523   
    729. D(O  52,H  53,H  24,O  22)    156.9040         0.001523   
    730. D(H  35,H  53,O  22,H  24)    -61.6470         0.002029   
    731. D(H  35,H  53,O  22,H  23)    179.1558         0.002029   
    732. D(H  24,H  53,O  22,H  23)   -119.1972         0.002029   
    733. D(H  24,H  53,O  52,H  35)    -42.1997         0.331199   
    734. D(O  52,H  53,O  22,H  24)    -59.5931         0.002029   
    735. D(O  52,H  53,O  22,H  23)   -178.7902         0.002029   
    736. D(H  38,H  54,O  52,H  35)     24.0734         0.334787   
    737. D(H  38,H  54,O  52,H  53)    -81.1920         0.334787   
    738. D(O  52,H  54,H  38,H  41)    -23.0683         0.001500   
    739. D(O  52,H  54,H  38,H  14)     14.2971         0.001500   
    740. D(O  52,H  54,H  38,O  37)    111.3744         0.001500   
    741. D(H  57,O  55,H  51,H  56)   -113.6819         0.001662   
    742. D(H  57,O  55,H  51,O  49)   -163.5538         0.001662   
    743. D(H  56,O  55,H  51,O  49)    -49.8718         0.001662   
    744. D(H  51,H  56,O  55,H  57)    123.6234         0.318412   
    745. D(O   5,H  56,O  55,H  51)      8.2102         0.318412   
    746. D(O   5,H  56,O  55,H  57)    131.8336         0.318412   
    747. D(O   5,H  56,H  51,O  55)   -177.0677         0.001509   
    748. D(O   5,H  56,H  51,O  49)    -12.6207         0.001509   
    749. D(O  55,H  56,H  51,O  49)    164.4469         0.001509   
    750. D(H  51,H  56,O   5,H  30)     30.6970         0.001752   
    751. D(H  51,H  56,O   5,C   4)   -100.4771         0.001752   
    752. D(O  55,H  56,O   5,H  30)     23.6996         0.001752   
    753. D(O  55,H  56,O   5,C   4)   -107.4745         0.001752   
    -----------------------------------------------------------------

Number of atoms                         .... 58
Number of degrees of freedom            .... 753


         *************************************************************
         *                GEOMETRY OPTIMIZATION CYCLE   1            *
         *************************************************************
---------------------------------
CARTESIAN COORDINATES (ANGSTROEM)
---------------------------------
  N      1.246393    1.366724    0.418465
  C      0.236691    2.038007   -0.456860
  C      0.208553    1.434217   -1.853149
  C      1.586382    1.225991   -2.520503
  C      2.507393    2.415954   -2.316719
  O      2.478551    3.370048   -3.124955
  O      3.234230    2.403255   -1.270463
  H      1.158048    1.667642    1.386322
  H      1.177793    0.332970    0.387446
  H     -0.736185    1.965324    0.021781
  H      0.509320    3.092784   -0.486123
  H     -0.403318    2.100602   -2.462503
  H     -0.299194    0.470697   -1.821489
  H      2.063728    0.337508   -2.105100
  H      1.429326    1.054177   -3.582136
  H      2.180615    1.634853    0.061879
  O     -0.949187   -0.567993    1.174153
  H     -1.842607   -0.219345    1.275802
  H     -1.051279   -1.399747    0.691918
  O      2.901639   -1.374912    2.781198
  H      3.457793   -0.659174    3.113446
  H      2.027423   -1.255408    3.212806
  O      5.080762    0.411009   -0.528238
  H      5.897690    0.947625   -0.615749
  H      4.363239    1.021614   -0.781162
  O      7.123703    2.326845   -0.643175
  H      7.605117    2.421839   -1.470832
  H      6.477815    3.079670   -0.627981
  O      0.750237    3.604559   -5.192601
  H      0.809628    2.891800   -5.839098
  H      1.418444    3.410959   -4.493672
  O      0.302336   -1.236462    3.598505
  H     -0.036939   -0.714145    4.334947
  H     -0.175612   -0.933684    2.798486
  O      1.881502   -1.419600    0.187656
  H      2.581600   -1.558656   -0.483100
  H      2.343491   -1.421112    1.053409
  O      2.850412   -0.012963   -5.965499
  H      2.503787   -0.608375   -5.291066
  H      2.349411    0.803027   -5.848767
  O     -1.068382    0.798373   -5.363321
  H     -0.224717    0.331021   -5.396465
  H     -0.868893    1.614408   -4.886550
  O      3.777431    3.560779    2.093995
  H      4.220492    3.824092    1.265943
  H      3.688743    2.603345    2.038497
  O      5.022117    4.154398   -0.427320
  H      4.320159    3.606544   -0.874760
  H      5.065489    4.992272   -0.892872
  O     -0.948961    4.861377   -3.268661
  H     -0.516394    4.391682   -4.006118
  H     -0.201632    5.143467   -2.703971
  O      3.994339   -1.808396   -1.645650
  H      4.524565   -1.034026   -1.347410
  H      3.793072   -1.644936   -2.573510
  O      1.448021    5.648391   -1.916371
  H      1.995564    4.894827   -2.219752
  H      1.523426    5.658512   -0.953303

----------------------------
CARTESIAN COORDINATES (A.U.)
----------------------------
  NO LB      ZA    FRAG     MASS         X           Y           Z
   0 N     7.0000    0    14.007    2.355342    2.582734    0.790784
   1 C     6.0000    0    12.011    0.447282    3.851274   -0.863340
   2 C     6.0000    0    12.011    0.394107    2.710278   -3.501944
   3 C     6.0000    0    12.011    2.997828    2.316787   -4.763060
   4 C     6.0000    0    12.011    4.738287    4.565491   -4.377965
   5 O     8.0000    0    15.999    4.683783    6.368467   -5.905309
   6 O     8.0000    0    15.999    6.111808    4.541495   -2.400828
   7 H     1.0000    0     1.008    2.188394    3.151387    2.619770
   8 H     1.0000    0     1.008    2.225706    0.629221    0.732168
   9 H     1.0000    0     1.008   -1.391189    3.713924    0.041161
  10 H     1.0000    0     1.008    0.962475    5.844514   -0.918640
  11 H     1.0000    0     1.008   -0.762161    3.969562   -4.653457
  12 H     1.0000    0     1.008   -0.565395    0.889489   -3.442115
  13 H     1.0000    0     1.008    3.899880    0.637797   -3.978063
  14 H     1.0000    0     1.008    2.701035    1.992105   -6.769256
  15 H     1.0000    0     1.008    4.120765    3.089425    0.116934
  16 O     8.0000    0    15.999   -1.793703   -1.073352    2.218829
  17 H     1.0000    0     1.008   -3.482023   -0.414502    2.410916
  18 H     1.0000    0     1.008   -1.986630   -2.645139    1.307535
  19 O     8.0000    0    15.999    5.483303   -2.598208    5.255702
  20 H     1.0000    0     1.008    6.534281   -1.245658    5.883561
  21 H     1.0000    0     1.008    3.831274   -2.372377    6.071324
  22 O     8.0000    0    15.999    9.601249    0.776694   -0.998225
  23 H     1.0000    0     1.008   11.145020    1.790752   -1.163597
  24 H     1.0000    0     1.008    8.245326    1.930570   -1.476182
  25 O     8.0000    0    15.999   13.461848    4.397099   -1.215425
  26 H     1.0000    0     1.008   14.371589    4.576613   -2.779470
  27 H     1.0000    0     1.008   12.241296    5.819732   -1.186711
  28 O     8.0000    0    15.999    1.417743    6.811630   -9.812593
  29 H     1.0000    0     1.008    1.529975    5.464710  -11.034295
  30 H     1.0000    0     1.008    2.680470    6.445778   -8.491810
  31 O     8.0000    0    15.999    0.571332   -2.336575    6.800189
  32 H     1.0000    0     1.008   -0.069806   -1.349538    8.191863
  33 H     1.0000    0     1.008   -0.331859   -1.764408    5.288373
  34 O     8.0000    0    15.999    3.555523   -2.682656    0.354619
  35 H     1.0000    0     1.008    4.878518   -2.945433   -0.912926
  36 H     1.0000    0     1.008    4.428557   -2.685513    1.990654
  37 O     8.0000    0    15.999    5.386497   -0.024497  -11.273160
  38 H     1.0000    0     1.008    4.731472   -1.149663   -9.998666
  39 H     1.0000    0     1.008    4.439743    1.517502  -11.052568
  40 O     8.0000    0    15.999   -2.018949    1.508706  -10.135208
  41 H     1.0000    0     1.008   -0.424654    0.625539  -10.197842
  42 H     1.0000    0     1.008   -1.641969    3.050789   -9.234241
  43 O     8.0000    0    15.999    7.138310    6.728897    3.957078
  44 H     1.0000    0     1.008    7.975574    7.226487    2.392285
  45 H     1.0000    0     1.008    6.970715    4.919610    3.852200
  46 O     8.0000    0    15.999    9.490425    7.850674   -0.807517
  47 H     1.0000    0     1.008    8.163918    6.815381   -1.653057
  48 H     1.0000    0     1.008    9.572386    9.434027   -1.687284
  49 O     8.0000    0    15.999   -1.793277    9.186672   -6.176873
  50 H     1.0000    0     1.008   -0.975844    8.299075   -7.570467
  51 H     1.0000    0     1.008   -0.381029    9.719744   -5.109764
  52 O     8.0000    0    15.999    7.548208   -3.417373   -3.109828
  53 H     1.0000    0     1.008    8.550189   -1.954025   -2.546236
  54 H     1.0000    0     1.008    7.167868   -3.108479   -4.863229
  55 O     8.0000    0    15.999    2.736363   10.673912   -3.621416
  56 H     1.0000    0     1.008    3.771070    9.249882   -4.194723
  57 H     1.0000    0     1.008    2.878858   10.693039   -1.801482

--------------------------------
INTERNAL COORDINATES (ANGSTROEM)
--------------------------------
 N      0   0   0     0.000000000000     0.00000000     0.00000000
 C      1   0   0     1.495430314983     0.00000000     0.00000000
 C      2   1   0     1.521504374408   111.80895818     0.00000000
 C      3   2   1     1.545035314575   115.68207116   313.01526973
 C      4   3   2     1.518486731685   112.16731765   316.84787997
 O      5   4   3     1.250748606216   119.80667585   272.26844496
 O      5   4   3     1.274010995671   116.64315592    89.04442132
 H      1   2   3     1.017400961367   111.43414785   189.23318523
 H      1   2   3     1.036492244523   112.67472232   311.50437278
 H      2   1   3     1.086678325985   108.45990877   122.93104406
 H      2   1   3     1.089833645352   106.33564873   238.27108721
 H      3   2   1     1.090764298819   106.29645435   190.66222745
 H      3   2   1     1.089577981909   109.44354952    75.24379117
 H      4   3   2     1.090788700936   109.60531777    77.77581431
 H      4   3   2     1.086854013701   108.32157293   195.20441022
 H      1   2   3     1.035285998705   106.94259201    69.92267607
 O      9   1   2     2.440222383736   114.59989795   298.05294785
 H     17   9   1     0.964410496709   135.07053753    21.58215558
 H     17   9   1     0.966845179281   104.41030157   151.83023422
 O      9   1   2     3.408599546749   116.43862589   192.75814478
[...]
 H     38  15   4     1.824818991208    49.67173995   227.90873226
 O     30  29   6     5.336071120636   111.60582405    95.37158632
 H     41  30  29     1.824299850993    77.66022161   237.23094073
 H     41  30  29     1.825982707882    47.91456040     0.37972039
 O     16   1   2     6.029562979992   123.53021823   119.03264069
 H     44  16   1     1.844861322323    86.14871915   204.46578351
 H     44  16   1     1.822809498584    49.75030704    91.41490831
 O     28  26  24     3.453262166550   164.59224376    22.73697866
 H     47  28  26     1.878235085827   102.81090735   303.53962571
 H     47  28  26     1.823836030929   118.29211085   185.71690554
 O     29   6   5     5.413955648732    84.21542395    81.17702381
 H     50  29   6     1.838345513394    11.76154401   209.56259620
 H     50  29   6     1.842055725316    92.30488860    28.03554920
 O     36  35   9     3.516899618211   163.31901589    75.30233787
 H     53  36  35     1.867865207301    99.83509494   329.84518536
 H     53  36  35     1.823630693702   115.22107069   217.86604913
 O     52  50  29     3.625636617196   168.19786085    19.61419930
 H     56  52  50     1.853979783345    92.63588563   309.59087097
 H     56  52  50     1.822985260265   119.31281264   200.03786282

--------------------------------------------------------------------------
WARNING: There was an error initializing an OpenFabrics device.

  Local host:   ga03
  Local device: mlx5_0
--------------------------------------------------------------------------


           ************************************************************
           *        Program running with 10 parallel MPI-processes    *
           *              working on a common directory               *
           ************************************************************
------------------------------------------------------------------------------
                   ___                                                        
                  /   \      - P O W E R E D   B Y -                         
                 /     \                                                     
                 |  |  |   _    _      __       _____    __    __             
                 |  |  |  | |  | |    /  \     |  _  \  |  |  /  |          
                  \  \/   | |  | |   /    \    | | | |  |  | /  /          
                 / \  \   | |__| |  /  /\  \   | |_| |  |  |/  /          
                |  |  |   |  __  | /  /__\  \  |    /   |      \           
                |  |  |   | |  | | |   __   |  |    \   |  |\   \          
                \     /   | |  | | |  |  |  |  | |\  \  |  | \   \       
                 \___/    |_|  |_| |__|  |__|  |_| \__\ |__|  \__/        
                                                                              
                      - O R C A' S   B I G   F R I E N D -                    
                                      &                                       
                       - I N T E G R A L  F E E D E R -                       
                                                                              
 v1 FN, 2020, v2 2021, v3 2022-2024                                           
------------------------------------------------------------------------------


----------------------
SHARK INTEGRAL PACKAGE
----------------------

Number of atoms                             ...     58
Number of basis functions                   ...    873
Number of shells                            ...    379
Maximum angular momentum                    ...      3
Integral batch strategy                     ... SHARK/LIBINT Hybrid
RI-J (if used) integral strategy            ... SPLIT-RIJ (Revised 2003 algorithm where possible)
Printlevel                                  ...      1
Contraction scheme used                     ... SEGMENTED contraction
Prescreening option                         ... SCHWARTZ
   Thresh                                   ... 2.500e-11
   Tcut                                     ... 2.500e-12
   Tpresel                                  ... 2.500e-12 
Coulomb Range Separation                    ... NOT USED
Exchange Range Separation                   ... NOT USED
Multipole approximations                    ... NOT USED
Finite Nucleus Model                        ... NOT USED
CABS basis                                  ... NOT available
Auxiliary Coulomb fitting basis             ... AVAILABLE
   # of basis functions in Aux-J            ...   1436
   # of shells in Aux-J                     ...    500
   Maximum angular momentum in Aux-J        ...      4
Auxiliary J/K fitting basis                 ... NOT available
Auxiliary Correlation fitting basis         ... NOT available
Auxiliary 'external' fitting basis          ... NOT available

Checking pre-screening integrals            ... done (  0.0 sec) Dimension = 379
Check shell pair data                       ... done (  0.0 sec)
Shell pair information
Shell pair cut-off parameter TPreSel        ...   2.5e-12
Total number of shell pairs                 ...     72010
Shell pairs after pre-screening             ...     42360
Total number of primitive shell pairs       ...    206976
Primitive shell pairs kept                  ...     77913
          la=0 lb=0:  14655 shell pairs
          la=1 lb=0:  13215 shell pairs
          la=1 lb=1:   3096 shell pairs
          la=2 lb=0:   4898 shell pairs
          la=2 lb=1:   2263 shell pairs
          la=2 lb=2:    412 shell pairs
          la=3 lb=0:   2315 shell pairs
          la=3 lb=1:   1053 shell pairs
          la=3 lb=2:    365 shell pairs
          la=3 lb=3:     88 shell pairs

Calculating one electron integrals          ... done (  0.1 sec)
Calculating RI/J V-Matrix + Cholesky decomp.... done (  0.1 sec)
Calculating Nuclear repulsion               ... done (  0.0 sec) ENN=   2239.351550501374 Eh

Diagonalization of the overlap matrix:
Smallest eigenvalue                        ... 8.293e-05
Time for diagonalization                   ...    0.112 sec
Threshold for overlap eigenvalues          ... 1.000e-07
Number of eigenvalues below threshold      ... 0
Time for construction of square roots      ...    0.054 sec
Total time needed                          ...    0.172 sec

-------------------
DFT GRID GENERATION
-------------------

General Integration Accuracy     IntAcc      ... 4.388
Radial Grid Type                 RadialGrid  ... OptM3 with GC (2021)
Angular Grid (max. ang.)         AngularGrid ... 4 (Lebedev-302)
Angular grid pruning method      GridPruning ... 4 (adaptive)
Weight generation scheme         WeightScheme... mBecke (2022)
Basis function cutoff            BFCut       ... 1.0000e-11
Integration weight cutoff        WCut        ... 1.0000e-14
Partially contracted basis set               ... off
Rotationally invariant grid construction     ... off
Angular grids for H and He will be reduced by one unit

Total number of grid points                  ...   244838
Total number of batches                      ...     3854
Average number of points per batch           ...       63
Average number of grid points per atom       ...     4221

--------------------
COSX GRID GENERATION
--------------------

GRIDX 1
-------
General Integration Accuracy     IntAcc      ... 3.816
Radial Grid Type                 RadialGrid  ... OptM3 with GC (2021)
Angular Grid (max. ang.)         AngularGrid ... 1 (Lebedev-50)
Angular grid pruning method      GridPruning ... 4 (adaptive)
Weight generation scheme         WeightScheme... mBecke (2022)
Basis function cutoff            BFCut       ... 1.0000e-11
Integration weight cutoff        WCut        ... 1.0000e-14
Partially contracted basis set               ... on
Rotationally invariant grid construction     ... off
Angular grids for H and He will be reduced by one unit

Total number of grid points                  ...    31172
Total number of batches                      ...      265
Average number of points per batch           ...      117
Average number of grid points per atom       ...      537
UseSFitting                                  ... on

GRIDX 2
-------
General Integration Accuracy     IntAcc      ... 4.020
Radial Grid Type                 RadialGrid  ... OptM3 with GC (2021)
Angular Grid (max. ang.)         AngularGrid ... 2 (Lebedev-110)
Angular grid pruning method      GridPruning ... 4 (adaptive)
Weight generation scheme         WeightScheme... mBecke (2022)
Basis function cutoff            BFCut       ... 1.0000e-11
Integration weight cutoff        WCut        ... 1.0000e-14
Partially contracted basis set               ... on
Rotationally invariant grid construction     ... off
Angular grids for H and He will be reduced by one unit

Total number of grid points                  ...    64574
Total number of batches                      ...      533
Average number of points per batch           ...      121
Average number of grid points per atom       ...     1113
UseSFitting                                  ... on

GRIDX 3
-------
General Integration Accuracy     IntAcc      ... 4.338
Radial Grid Type                 RadialGrid  ... OptM3 with GC (2021)
Angular Grid (max. ang.)         AngularGrid ... 3 (Lebedev-194)
Angular grid pruning method      GridPruning ... 4 (adaptive)
Weight generation scheme         WeightScheme... mBecke (2022)
Basis function cutoff            BFCut       ... 1.0000e-11
Integration weight cutoff        WCut        ... 1.0000e-14
Partially contracted basis set               ... on
Rotationally invariant grid construction     ... off
Angular grids for H and He will be reduced by one unit

Total number of grid points                  ...   139817
Total number of batches                      ...     1122
Average number of points per batch           ...      124
Average number of grid points per atom       ...     2411
UseSFitting                                  ... on
Initializing property integral containers    ... done (  0.0 sec)

SHARK setup successfully completed in   3.2 seconds

Maximum memory used throughout the entire STARTUP-calculation: 105.4 MB
[ga03:3371230] 9 more processes have sent help message help-mpi-btl-openib.txt / error in device init
[ga03:3371230] Set MCA parameter "orte_base_help_aggregate" to 0 to see all help / error messages
--------------------------------------------------------------------------
WARNING: There was an error initializing an OpenFabrics device.

  Local host:   ga03
  Local device: mlx5_0
--------------------------------------------------------------------------


           ************************************************************
           *        Program running with 10 parallel MPI-processes    *
           *              working on a common directory               *
           ************************************************************
Occupation numbers will be reassigned to an Aufbau configuration
             **** ENERGY FILE WAS UPDATED (04_Aminobutyric-acid_zwitterion.en.tmp) ****
Finished Guess after   1.5 sec
Maximum memory used throughout the entire GUESS-calculation: 88.3 MB
[ga03:3371363] 9 more processes have sent help message help-mpi-btl-openib.txt / error in device init
[ga03:3371363] Set MCA parameter "orte_base_help_aggregate" to 0 to see all help / error messages
--------------------------------------------------------------------------
WARNING: There was an error initializing an OpenFabrics device.

  Local host:   ga03
  Local device: mlx5_0
--------------------------------------------------------------------------


           ************************************************************
           *        Program running with 10 parallel MPI-processes    *
           *              working on a common directory               *
           ************************************************************
--------------------
CPCM SOLVATION MODEL
--------------------
CPCM parameters:
  Epsilon                                         ...      80.1510
  Refrac                                          ...       1.3328
  Rsolv                                           ...       1.3000
  Surface type                                    ... GAUSSIAN VDW
  Discretization scheme                           ... Constant charge density
    Threshold for H atoms                         ...       5.0000 (charges/Ang^2)
    Threshold for non-H atoms                     ...       5.0000 (charges/Ang^2)
  Epsilon function type                           ...         CPCM
Solvent:                                          ... WATER
Radii:
  Scheme                                          ... Element-dependent radii
  Radius for N  used is    3.5149 Bohr (=   1.8600 Ang.)
  Radius for C  used is    3.8550 Bohr (=   2.0400 Ang.)
  Radius for O  used is    3.4469 Bohr (=   1.8240 Ang.)
  Radius for H  used is    2.4944 Bohr (=   1.3200 Ang.)
Calculating surface                               ...        done! (  0.0s)
Cavity surface points                             ...         4856
Cavity Volume                                     ...    3197.1608
Cavity Surface-area                               ...    2007.7723
Calculating surface distance matrix               ...        done! (  0.1s)
Performing Cholesky decomposition & store         ...        done! (  0.6s)
Overall time for CPCM initialization              ...                 0.8s

----------------------------------------D-I-I-S--------------------------------------------
Iteration    Energy (Eh)           Delta-E    RMSDP     MaxDP     DIISErr   Damp  Time(sec)
-------------------------------------------------------------------------------------------
               ***  Starting incremental Fock matrix formation  ***
[ga03:3371407] 9 more processes have sent help message help-mpi-btl-openib.txt / error in device init
[ga03:3371407] Set MCA parameter "orte_base_help_aggregate" to 0 to see all help / error messages
    1    -1433.2301002638719183     0.00e+00  4.51e-05  3.55e-03  2.78e-02  0.700   8.4
    2    -1433.2315578412467403    -1.46e-03  4.19e-05  3.15e-03  2.12e-02  0.700   4.2
                               ***Turning on AO-DIIS***
    3    -1433.2326786559083303    -1.12e-03  3.44e-05  2.71e-03  1.56e-02  0.700   3.9
    4    -1433.2334971011241578    -8.18e-04  8.67e-05  7.07e-03  1.11e-02  0.000   3.8
                              *** Initializing SOSCF ***
---------------------------------------S-O-S-C-F--------------------------------------
Iteration    Energy (Eh)           Delta-E    RMSDP     MaxDP     MaxGrad    Time(sec)
--------------------------------------------------------------------------------------
    5    -1433.2355231674632705    -2.03e-03  4.48e-06  3.52e-04  2.46e-04     4.4
               *** Restarting incremental Fock matrix formation ***
    6    -1433.2355230056364235     1.62e-07  3.23e-06  2.30e-04  1.00e-04     9.1
    7    -1433.2355234152673802    -4.10e-07  2.28e-06  2.31e-04  4.72e-05     4.8
    8    -1433.2355233547609714     6.05e-08  1.43e-06  1.20e-04  6.80e-05     4.6
    9    -1433.2355234992551232    -1.44e-07  2.96e-07  2.56e-05  5.52e-06     4.0
   10    -1433.2355234784249660     2.08e-08  1.83e-07  1.45e-05  5.96e-06     3.1
   11    -1433.2355235007607916    -2.23e-08  9.11e-08  1.35e-05  5.34e-07     2.8
                  *** Gradient check signals convergence ***

               *****************************************************
               *                     SUCCESS                       *
               *           SCF CONVERGED AFTER  11 CYCLES          *
               *****************************************************

Recomputing exchange energy using gridx3       ... done (   11.267 sec)
Old exchange energy                            :    -34.415895637 Eh
New exchange energy                            :    -34.415987078 Eh
Exchange energy change after final integration :     -0.000091441 Eh
Total energy after final integration           :  -1433.235614942 Eh
             **** ENERGY FILE WAS UPDATED (04_Aminobutyric-acid_zwitterion.en.tmp) ****

----------------
TOTAL SCF ENERGY
----------------

Total Energy       :      -1433.23561494219280 Eh          -39000.32382 eV

Components:
Nuclear Repulsion  :       2239.35155050137428 Eh           60935.85361 eV
Electronic Energy  :      -3672.45078138015697 Eh          -99932.46623 eV
One Electron Energy:      -6427.89075807685458 Eh         -174911.79987 eV
Two Electron Energy:       2755.43997669669761 Eh           74979.33364 eV
CPCM Dielectric    :         -0.13629262197801 Eh              -3.70871 eV

Virial components:
Potential Energy   :      -2860.70807109893667 Eh          -77843.82412 eV
Kinetic Energy     :       1427.47245615674387 Eh           38843.50030 eV
Virial Ratio       :          2.00403731697981

DFT components:
N(Alpha)           :       97.999994059697 electrons
N(Beta)            :       97.999994059697 electrons
N(Total)           :      195.999988119394 electrons
E(X)               :     -137.053950294236 Eh       
E(C)               :       -7.947429567700 Eh       
E(XC)              :     -145.001379861936 Eh       

CPCM Solvation Model Properties:
Surface-charge          :         -0.02860967997637
Corrected charge        :         -0.00000000000000
Outlying charge corr.   :          0.00003863330470 Eh               0.00105 eV
Free-energy (cav+disp)  :  This term is not implemented in the current solvation scheme

---------------
SCF CONVERGENCE
---------------

  Last Energy change         ...    2.2336e-08  Tolerance :   1.0000e-08
  Last MAX-Density change    ...    1.3526e-05  Tolerance :   1.0000e-07
  Last RMS-Density change    ...    9.1128e-08  Tolerance :   5.0000e-09
  Last DIIS Error            ...    2.4618e-04  Tolerance :   5.0000e-07
  Last Orbital Gradient      ...    5.3445e-07  Tolerance :   1.0000e-05
  Last Orbital Rotation      ...    1.0392e-06  Tolerance :   1.0000e-05


Total SCF time: 0 days 0 hours 1 min 6 sec 
Finished LeanSCF after  66.6 sec

Maximum memory used throughout the entire LEANSCF-calculation: 144.4 MB


-------------------------------------------------------------------------------
                          DFT DISPERSION CORRECTION                            
                                                                               
                                DFTD4 V3.4.0                                   
-------------------------------------------------------------------------------
-------------------------   ----------------
Dispersion correction           -0.062894970
-------------------------   ----------------


-------------------------   --------------------
FINAL SINGLE POINT ENERGY     -1433.298509912576
-------------------------   --------------------

--------------------------------------------------------------------------
WARNING: There was an error initializing an OpenFabrics device.

  Local host:   ga03
  Local device: mlx5_0
--------------------------------------------------------------------------


           ************************************************************
           *        Program running with 10 parallel MPI-processes    *
           *              working on a common directory               *
           ************************************************************
------------------------------------------------------------------------------
                         ORCA SCF GRADIENT CALCULATION
------------------------------------------------------------------------------

Nuc. rep. gradient        (SHARK) ... done (  0.0 sec)
HCore & Overlap gradient  (SHARK) ... done (  0.6 sec)
Split-RIJ-J gradient      (SHARK) ... done (  2.0 sec)
COSX-gradient                     ... [ga03:3372146] 9 more processes have sent help message help-mpi-btl-openib.txt / error in device init
[ga03:3372146] Set MCA parameter "orte_base_help_aggregate" to 0 to see all help / error messages
