37
 energy: -59.764123458351 gnorm: 0.168341948967 xtb: 6.7.1 (edcfbbe)
N            0.00260500000000        0.26833900000000        2.34949800000000
C            0.00561000000000       -0.53426800000000        1.12782400000000
C           -0.01360500000000        0.36044200000000       -0.11757000000000
C           -0.00658000000000       -0.48411400000000       -1.39958300000000
C            0.00530900000000        0.34606300000000       -2.65559300000000
O            0.01598000000000        1.56658800000000       -2.61114500000000
O            0.01013600000000       -0.27058000000000       -3.85192000000000
H            0.84383000000000        0.88923800000000        2.37341700000000
H           -0.86762500000000        0.84621600000000        2.39703300000000
H           -0.88589600000000       -1.19861800000000        1.12403900000000
H            0.91775600000000       -1.17084600000000        1.11100500000000
H            0.88289000000000        1.01613200000000       -0.10393900000000
H           -0.92488100000000        0.99783100000000       -0.09978000000000
H           -0.91002800000000       -1.12912700000000       -1.41351300000000
H            0.89428700000000       -1.13411000000000       -1.40682800000000
H            0.03021100000000       -0.36918600000000        3.17705500000000
O           -2.25080800000000        1.21520300000000       -5.19830400000000
H           -1.56936200000000        1.87133500000000       -5.49110800000000
H           -3.10953000000000        1.58911800000000       -5.51985900000000
O           -1.45397700000000       -3.63770900000000        0.14676200000000
H           -1.94245600000000       -4.49754700000000        0.09500000000000
H           -1.91226700000000       -3.13494000000000        0.86635000000000
O           -0.02631300000000       -3.35366100000000        4.39234600000000
H            0.06520100000000       -4.21117500000000        3.90561500000000
H            0.88316200000000       -2.96216100000000        4.37836400000000
O            0.10122100000000       -4.00408200000000       -2.07801500000000
H           -0.55182300000000       -4.67173400000000       -2.40723400000000
H           -0.13188500000000       -3.17071000000000       -2.55943600000000
O           -2.41873100000000        3.12828900000000       -3.02018400000000
H           -2.77500700000000        2.20610400000000       -3.07722100000000
H           -1.69942300000000        3.15885700000000       -3.70009200000000
O           -2.05500400000000       -3.28054100000000       -3.84939700000000
H           -2.64246800000000       -2.53732900000000       -3.56107200000000
H           -2.42369300000000       -4.07906000000000       -3.39437000000000
O           -2.75741500000000        0.00869000000000       -3.01919800000000
H           -3.51456500000000       -0.62322000000000       -2.92961600000000
H           -2.17622300000000       -0.39694000000000       -3.71078500000000
37
 energy: -59.786866333509 gnorm: 0.084293847865 xtb: 6.7.1 (edcfbbe)
N            0.00091035470139        0.26700846151947        2.35613755547968
C            0.00828987704196       -0.53838959970449        1.12312176614207
C           -0.00971047608898        0.35625953186129       -0.11543597562262
C           -0.00130657363689       -0.48377455305913       -1.39211779985066
C            0.01446039477528        0.35073631806452       -2.66276912013040
O            0.05392001931398        1.58604666647083       -2.61584824375677
O            0.02300867425602       -0.29273407109734       -3.78976704115639
H            0.82722626080032        0.88566672563561        2.38053181670722
H           -0.85310803867447        0.84590688116279        2.39749210317719
H           -0.86671359436273       -1.19582277676325        1.11004943834480
H            0.90250571322135       -1.17106269394956        1.09995654343876
H            0.86683185124353        1.01544263895756       -0.12465957636305
H           -0.90360328841776        0.99271686202245       -0.12398332967772
H           -0.88818139621847       -1.12734402520802       -1.42036512931604
H            0.87934924081670       -1.13895481343195       -1.41437803361580
H            0.02126880001952       -0.35404431744969        3.18016509792952
O           -2.26132447850512        1.22318476245723       -5.26224467553169
H           -1.57191349450784        1.85936205275263       -5.50803654711175
H           -3.10309474700085        1.61964588518511       -5.54786730713344
O           -1.48442728181852       -3.62825105924654        0.16370257915007
H           -1.92875006968269       -4.49007006265476        0.11127041873048
H           -1.94222670469640       -3.15179140227017        0.87539772226539
O           -0.02385859731022       -3.33275492688711        4.34993001702969
H            0.06172685313034       -4.20375730452703        3.92564880335941
H            0.88661658639119       -2.99020544658704        4.39501137178723
O            0.11719157447526       -4.00199164375775       -2.09141888560459
H           -0.51613492342626       -4.66497774640179       -2.41117145833946
H           -0.12191524224361       -3.18982274211859       -2.56903523566964
O           -2.48346795132322        3.14633746380888       -3.06278304594843
H           -2.73156363520899        2.19562403681689       -3.05328629400362
H           -1.68298514235040        3.15193479043850       -3.62933409479153
O           -2.06802477056846       -3.29115493771171       -3.84497489647372
H           -2.62527450460838       -2.54626143492768       -3.56801608699228
H           -2.45275632830513       -4.07046869637674       -3.40807643375007
O           -2.78151917983362       -0.02847295921788       -2.96130885112199
H           -3.53999177014183       -0.64121779609830       -2.95312005505848
H           -2.18282101125565       -0.34576106770748       -3.66987111652136
37
 energy: -59.794871308905 gnorm: 0.029871400369 xtb: 6.7.1 (edcfbbe)
N           -0.00112547959827        0.26435132847628        2.36208552631459
C            0.01253129502857       -0.54053645747433        1.11590190518591
C           -0.00173995293992        0.35668197710328       -0.11413688288835
C            0.01296053782637       -0.48502527521341       -1.38359418653135
C            0.06132215326076        0.35053833423677       -2.67708147526285
O            0.09148040475980        1.59782987875009       -2.60628343606655
O            0.00440507388441       -0.29815119837552       -3.74110429341718
H            0.81504175401834        0.88102552569134        2.38689081413510
H           -0.84276334236837        0.84605495685646        2.39228941226697
H           -0.85417191770160       -1.19060262854765        1.09398097408944
H            0.89868154996130       -1.16586886138438        1.09177266359689
H            0.86413708140125        1.01538077814558       -0.13900952037115
H           -0.88926146338375        0.98571669246266       -0.14421639411714
H           -0.87024348860858       -1.11807724383823       -1.43684539205003
H            0.87990683409576       -1.14352682837414       -1.41773084910924
H            0.00865972997670       -0.34659702233709        3.18277290213626
O           -2.28590412335802        1.22380209830044       -5.32588043006743
H           -1.57052790416564        1.82656444827713       -5.53003659494053
H           -3.10476923276165        1.65562894759050       -5.58816301807766
O           -1.52493575176265       -3.61442968247271        0.19470679712766
H           -1.91340198940187       -4.48933161648510        0.13128529700310
H           -1.99793327361290       -3.16596586722084        0.89697195039192
O           -0.01691382906590       -3.31575443806141        4.31711573316789
H            0.04415878394530       -4.19199913621431        3.93133675765149
H            0.89412859882199       -3.01670485424636        4.40976766529600
O            0.14580339582119       -3.99940075570433       -2.10632430067172
H           -0.46319277739557       -4.66745317220959       -2.42302869446155
H           -0.09591934895183       -3.20493180036370       -2.58653368693963
O           -2.47382561870035        3.11595794900837       -3.02948401497993
H           -2.73532573610361        2.19512514696856       -3.05810241402707
H           -1.68560104967001        3.14716976367027       -3.57059512554610
O           -2.08181115398662       -3.31158963863591       -3.84176376573757
H           -2.59447322012691       -2.54742450179709       -3.57541691389090
H           -2.49895832663333       -4.07100096886016       -3.42588967005123
O           -2.81931577423973       -0.03849883522845       -2.92045503102575
H           -3.57592956543313       -0.63472289301863       -2.97388925364161
H           -2.19653987283075       -0.28744714947480       -3.62276705449082
37
 energy: -59.796662057767 gnorm: 0.088899020467 xtb: 6.7.1 (edcfbbe)
N           -0.00403261235929        0.26310810190100        2.36511635808570
C            0.01815471022767       -0.53855440627250        1.11174364872661
C            0.00864012317312        0.36200808293344       -0.11360772994830
C            0.02338013322456       -0.48307250167568       -1.37768644589983
C            0.05776314051461        0.34738979061581       -2.69056872959511
O            0.15686046855957        1.59734944011249       -2.60519437720497
O            0.02238703361299       -0.31015466687264       -3.73388283159229
H            0.81217238042199        0.87862170336033        2.39387543080874
H           -0.84287148495902        0.84893409391539        2.38316889805826
H           -0.84965760562511       -1.18742077355816        1.08176418608458
H            0.90659040221277       -1.16076156998244        1.09094504495112
H            0.87376496811590        1.02104474460796       -0.14442993803703
H           -0.88283943830673        0.98463094700813       -0.15341956567550
H           -0.86444899826809       -1.10785685216582       -1.43882859202658
H            0.88840969649427       -1.14435726177231       -1.41966934858046
H           -0.00584641491408       -0.34796832791316        3.18538122248938
O           -2.31784922383134        1.20949901520809       -5.39227594463881
H           -1.55988860026056        1.78816358661482       -5.53873267787700
H           -3.11224054061722        1.70947291383738       -5.62973439364241
O           -1.57212286663388       -3.58622803829442        0.22159132157406
H           -1.88256622468479       -4.50048687252433        0.15139297999373
H           -2.07604798171852       -3.18083306754460        0.93229236598152
O           -0.01799704013769       -3.26995739820589        4.24824419049624
H            0.02057379691060       -4.19461106473234        3.95195253116729
H            0.92295042040916       -3.05500673471709        4.44239131205447
O            0.17875084867951       -3.99260720064275       -2.11658050792675
H           -0.40377789435888       -4.68265054315586       -2.43987292804684
H           -0.06999151297020       -3.20948480596221       -2.61167011920317
O           -2.58509563397875        3.13163532795490       -3.10021989782802
H           -2.69178222998506        2.14578024482902       -3.01137650773699
H           -1.61490480416238        3.12810995771287       -3.44079872332073
O           -2.08576416112207       -3.34185645787476       -3.83767961903155
H           -2.54700342251684       -2.53550782985483       -3.58424905396552
H           -2.56803233748145       -4.07938210466224       -3.44214197597679
O           -2.85314417566244       -0.04732921462587       -2.86584996091519
H           -3.62712155739765       -0.62423084082431       -3.01713127844564
H           -2.21673836060318       -0.21864241677808       -3.58571234335636
37
 energy: -59.801046450646 gnorm: 0.055193838889 xtb: 6.7.1 (edcfbbe)
N           -0.00327383092873        0.26201862535981        2.36585981084426
C            0.02402984870721       -0.53631901488594        1.11097321258307
C            0.01680504404473        0.36605801457696       -0.11361141204060
C            0.03051489214914       -0.47910474491284       -1.37629029895169
C            0.05004361612136        0.34716618769300       -2.69584325385572
O            0.19415366076419        1.59487541721114       -2.61368753521370
O            0.02641023412634       -0.32428831013058       -3.74627776948350
H            0.81679828971044        0.87626379202354        2.39960872432514
H           -0.84313582897823        0.85088506183119        2.37825755159150
H           -0.84531424361045       -1.18829658612666        1.07589377001751
H            0.91525900963021       -1.15977183607279        1.09214969336848
H            0.88302871923164        1.02683465625617       -0.14416508980512
H           -0.87787731216096        0.98774020406820       -0.15449596535279
H           -0.86135808741623       -1.10136368292141       -1.43532934345859
H            0.89555489384824       -1.14446920043911       -1.41702859920049
H           -0.01210767975288       -0.35302997490191        3.18626682877770
O           -2.34253777850161        1.19626588403177       -5.43844501268826
H           -1.56123921182981        1.76564980112216       -5.54765874231930
H           -3.12228886770439        1.74494136803757       -5.65478241398898
O           -1.59738857927551       -3.56802853459625        0.24222484711941
H           -1.86277239093912       -4.50483614851696        0.16343217411071
H           -2.13077316096893       -3.19114118595971        0.95690532119333
O           -0.00914206561155       -3.26857763168202        4.25325376351654
H            0.00137147402130       -4.18926866584224        3.94999949196846
H            0.92585936353717       -3.05982091743743        4.43147042152756
O            0.20312179014322       -3.98773804297251       -2.12013160915669
H           -0.35979939439736       -4.69693830632319       -2.45388678726633
H           -0.05234050358742       -3.21060194700364       -2.62933026605992
O           -2.50257973533460        3.08224503419908       -3.00573560971723
H           -2.71660877362520        2.14473459042570       -3.00873861698849
H           -1.66828548435437        3.13975931116877       -3.46915724674922
O           -2.08222412705765       -3.36214146276456       -3.83386059083363
H           -2.50790459105496       -2.52457220465872       -3.58748608021996
H           -2.61782833784327       -4.08211751030372       -3.45125098865136
O           -2.87475780065167       -0.04463959909713       -2.83766669860223
H           -3.65600860835728       -0.61046927290620       -3.03532040723942
H           -2.23677144209123       -0.18111616755011       -3.56756927310088
37
 energy: -59.801133165013 gnorm: 0.060594449321 xtb: 6.7.1 (edcfbbe)
N           -0.00862569301811        0.26189087033061        2.36376629931133
C            0.02712341935475       -0.53243530376251        1.10857357907854
C            0.02468080165657        0.37007737582626       -0.11705584622840
C            0.05092143513691       -0.47629753025149       -1.37934824921152
C            0.12644166278097        0.34722444386531       -2.69898304210367
O            0.18965127074891        1.58934815958658       -2.62420186588041
O           -0.02326720654946       -0.32799787761124       -3.76186976368237
H            0.81541879603432        0.87368299283258        2.40733372151797
H           -0.84937274084722        0.85262947116532        2.37060365366164
H           -0.84009518577135       -1.19030105976925        1.06699764108422
H            0.92099550819746       -1.15576137667436        1.09576415862787
H            0.89195148783953        1.03188835925950       -0.13724100336569
H           -0.87054264911696        0.99377733117798       -0.15790106453630
H           -0.84595144556564       -1.09604787690493       -1.44713081087287
H            0.91341936391645       -1.14599901862735       -1.39970022933973
H           -0.02602129200494       -0.35871808477215        3.18234985895892
O           -2.35065791155433        1.20961694077194       -5.43167670293573
H           -1.57070452428048        1.74751574478728       -5.58012987038164
H           -3.11568896418431        1.73052802214388       -5.69084572388665
O           -1.60376372114224       -3.57473791856835        0.28759966989089
H           -1.88759275543046       -4.48443061482013        0.17654134962360
H           -2.17209779627814       -3.19203749828181        0.97201462003363
O            0.00958340561660       -3.30042374132260        4.31039963348908
H           -0.02283316616897       -4.16585772693132        3.91851652693599
H            0.90715851929065       -3.04305908256001        4.38854143276645
O            0.22984900076017       -3.98405638047200       -2.12815533887689
H           -0.31330305013556       -4.70583354447279       -2.47601256090444
H           -0.03166511290469       -3.21109701444694       -2.64504858611428
O           -2.50989824215398        3.05914221180741       -2.98739923917184
H           -2.71543481052202        2.11773799971010       -2.98316843650794
H           -1.65863778983505        3.12847654515886       -3.41981616709974
O           -2.09097966748137       -3.37660721381457       -3.84146249066079
H           -2.48798471185169       -2.53237955777353       -3.58084445474606
H           -2.64105428440426       -4.08011586447172       -3.45982730042013
O           -2.91052608129530        0.00367436043902       -2.88772540294758
H           -3.64978646538135       -0.57265581041472       -2.98196407858399
H           -2.27207640345361       -0.19357373213868       -3.56294791652211
37
 energy: -59.806571482298 gnorm: 0.025403247872 xtb: 6.7.1 (edcfbbe)
N           -0.01145616774372        0.26031661740121        2.36200982483865
C            0.03233031189548       -0.53143813819679        1.10446138090418
C            0.03129395162550        0.37160633781143       -0.12049186910711
C            0.05560313700289       -0.47744224811084       -1.38158058129909
C            0.11491452164792        0.34642949623343       -2.70334896571679
O            0.21434205022260        1.58729320501549       -2.62488851572397
O           -0.00568496284416       -0.32123005920430       -3.75853302553934
H            0.81272245806339        0.87027142640671        2.41329025755343
H           -0.85070541683462        0.85202385745365        2.36360119070954
H           -0.83161769510269       -1.19209443587734        1.05851039766559
H            0.92751529104239       -1.15146062942288        1.09531366396799
H            0.89761494282119        1.03419027562333       -0.13897180330847
H           -0.86365440692785        0.99441603873225       -0.15927958172273
H           -0.83835444191455       -1.09923016647503       -1.44657423010235
H            0.91995931212844       -1.14365009666228       -1.40326061488992
H           -0.03642549662840       -0.36199344951516        3.17833122432043
O           -2.37393783425616        1.20247952065811       -5.44917303941884
H           -1.57434507683908        1.71463990457476       -5.58934549060266
H           -3.12039548222976        1.74820907528167       -5.71418766986601
O           -1.62764734809489       -3.56172758129334        0.32205324882419
H           -1.88408608733447       -4.47791744952443        0.19396370882343
H           -2.22588205007942       -3.19708301944261        0.99242904398748
O            0.00851449975124       -3.25128654191620        4.25160870461209
H           -0.05720742501363       -4.16007690918025        3.93195464134084
H            0.95142325820777       -3.08993611701021        4.41939285780087
O            0.25561416924187       -3.98278421494884       -2.13942123884017
H           -0.27087529039508       -4.71006063341268       -2.49772548765637
H           -0.00812986353687       -3.21362616695800       -2.65787060262006
O           -2.52624430645375        3.04035623287170       -2.97740558702431
H           -2.71563631094686        2.09432587167533       -2.96235689677942
H           -1.64077715091567        3.10987794036526       -3.36479136534603
O           -2.09277733323145       -3.38905040056490       -3.84015914760659
H           -2.46710510445610       -2.53779033467783       -3.58170397132209
H           -2.66649615189394       -4.07774691587718       -3.46992404508594
O           -2.91797102606394       -0.00303699337750       -2.84049186757314
H           -3.69217511426469       -0.55106128513195       -3.03809869675730
H           -2.28362735964682       -0.12792501332355       -3.55878985144070
37
 energy: -59.807726450852 gnorm: 0.068284638031 xtb: 6.7.1 (edcfbbe)
N           -0.01397311160901        0.25504874803886        2.35901006062578
C            0.04477733489480       -0.53191945766824        1.09749392373604
C            0.04480133420939        0.37383884113302       -0.12514657759766
C            0.06255971047239       -0.47621739516625       -1.38547668121782
C            0.07893918725322        0.34870333254223       -2.71099622495948
O            0.27226288856358        1.58898060325250       -2.62730294017387
O            0.01345389378072       -0.31125598135454       -3.75477771201046
H            0.81004949937965        0.86214111785010        2.42449886803144
H           -0.85076972715525        0.84822620356818        2.35169554458786
H           -0.81261939880860       -1.19892452361207        1.04383711579243
H            0.94341491063117       -1.14482643396333        1.09368818008992
H            0.90983618132949        1.03742177613915       -0.14515282843049
H           -0.85036322701683        0.99471637430205       -0.16198020040169
H           -0.82739813354156       -1.10030942284743       -1.44264999146459
H            0.92967345391662       -1.13837420132788       -1.41520274761237
H           -0.05183181978399       -0.37132144648520        3.17066955191335
O           -2.42699161350277        1.16685737376987       -5.51154079814644
H           -1.57182824014231        1.63875245635041       -5.58169308600454
H           -3.13022203468453        1.81528242837632       -5.75175861428918
O           -1.68867484407383       -3.51759479687889        0.37021003944527
H           -1.85015973543267       -4.47544476822862        0.23835783853512
H           -2.32832253440889       -3.20983289871656        1.03615571888351
O            0.01769188491773       -3.24519686655849        4.24628849356799
H           -0.07798768113839       -4.14615443076476        3.93041887342513
H            0.94730252320810       -3.09460845756943        4.39953859658478
O            0.30350539892255       -3.98224370008304       -2.16338741613496
H           -0.19632506360786       -4.71678752971444       -2.53792338459301
H            0.03431735875675       -3.21659386660362       -2.67943158401802
O           -2.55457177023279        3.01793176475907       -2.97569667977260
H           -2.70339747600160        2.05439931122698       -2.88793023190525
H           -1.61858848662581        3.05677822867654       -3.28122239786399
O           -2.09187869259865       -3.41793359538259       -3.83598462063448
H           -2.41019877368352       -2.53991083856594       -3.58231586675111
H           -2.72474354989355       -4.07181787857996       -3.48672781695072
O           -2.93589298747831        0.00965265476438       -2.80823264690861
H           -3.73773261763215       -0.49265338087258       -3.07959859233660
H           -2.31948104118045       -0.05202234380562       -3.56118716504172
37
 energy: -59.809340734987 gnorm: 0.070166897731 xtb: 6.7.1 (edcfbbe)
N           -0.02150003936980        0.25202969147419        2.35472115643226
C            0.05065988374969       -0.53199538880358        1.09340355715101
C            0.05271260522186        0.37515361433600       -0.12911867867677
C            0.07384466702924       -0.47393181153206       -1.39070409242503
C            0.09338776714498        0.35141615366799       -2.71267581503859
O            0.29014873463406        1.58838344822476       -2.63348678472580
O           -0.00237359084163       -0.30488556984359       -3.76185759249706
H            0.80343007445312        0.85729924009575        2.43349219255583
H           -0.85829360281010        0.84544664302118        2.34122485039538
H           -0.80119569024752       -1.20658972387844        1.03290042622668
H            0.95381873500481       -1.13909479261270        1.09504745468718
H            0.91810512564327        1.03927166855423       -0.14537935517760
H           -0.84269857842327        0.99672782473699       -0.16493371683092
H           -0.81471030009591       -1.10114200129888       -1.44641076059150
H            0.94302852055815       -1.13413603733095       -1.41581878404720
H           -0.06874313812278       -0.37843494872564        3.16337296846322
O           -2.43475844099008        1.16483553683975       -5.51203821286889
H           -1.59028375534286        1.61985154307087       -5.60244667627446
H           -3.12586986691270        1.79106671967875       -5.77841215550592
O           -1.71544246451805       -3.51221167430302        0.41612026204766
H           -1.87993514439558       -4.45209168918849        0.27492274446026
H           -2.37345094224711       -3.20386304880906        1.05369387636865
O            0.01162611454448       -3.17946738946151        4.15339598603551
H           -0.09904805695162       -4.14441170536910        3.95994060939242
H            0.98473075579198       -3.14461230370823        4.43943033711512
O            0.33294986645037       -3.98044346245326       -2.18064742107218
H           -0.14687276156182       -4.71973978294130       -2.57123188286728
H            0.06140449291313       -3.21542128024159       -2.69599669991398
O           -2.53999876217180        2.98995657487074       -2.94169983506834
H           -2.71626136094209        2.03745748198453       -2.83815075640918
H           -1.61864076978012        3.01536855191449       -3.23667712326833
O           -2.09608267859990       -3.43331012509087       -3.83824801145440
H           -2.39022147136336       -2.55379360810579       -3.58214579410336
H           -2.74547253252669       -4.06576794173051       -3.49639855406462
O           -2.95824912552288        0.04184118374086       -2.82893656220127
H           -3.74583063938590       -0.45026087972749       -3.07188363147951
H           -2.34528063001243       -0.02371371105474       -3.56782152477004
37
 energy: -59.807863321999 gnorm: 0.093449255575 xtb: 6.7.1 (edcfbbe)
N           -0.02557590392803        0.24963338527206        2.35011834015115
C            0.05434238073288       -0.53283781982617        1.09262723368244
C            0.05581202531684        0.37495207142426       -0.13115090005200
C            0.08504827711335       -0.47122697599297       -1.39593568443711
C            0.15371573146745        0.35482893872227       -2.70638142259098
O            0.26485291497271        1.58547870237399       -2.63893440773528
O           -0.04762400018439       -0.30038627288778       -3.77684768009920
H            0.80108447837879        0.85414395550194        2.43837876399189
H           -0.86424659131224        0.84267522062375        2.33554563125667
H           -0.79389067013846       -1.21494806312006        1.02859733682024
H            0.96274307341549       -1.13571181293024        1.09654794902178
H            0.92367767879267        1.03834342491071       -0.14217371430731
H           -0.83948190742602        0.99999921924240       -0.16456598267412
H           -0.80427471862441       -1.10308399874389       -1.45512114556043
H            0.95595903839414       -1.13070534033267       -1.40946669290930
H           -0.07640286856400       -0.38468527325261        3.15741733015171
O           -2.41960267640979        1.18437793146921       -5.47349119399691
H           -1.62236871874844        1.63529979312999       -5.63545407125195
H           -3.11586280639245        1.72125159885051       -5.78902783216406
O           -1.71241317971116       -3.52595138548344        0.45318282081482
H           -1.92709243319809       -4.41942777537636        0.29863016447821
H           -2.38393271051724       -3.19176911498856        1.05150906790764
O            0.02048553757604       -3.22761902942223        4.22382560340278
H           -0.10321672645178       -4.12131192505434        3.91274186020783
H            0.95861635468754       -3.11369531719310        4.40149756021534
O            0.34651215722605       -3.97893246787302       -2.18803177179955
H           -0.12074914700508       -4.72099411276157       -2.59307229804209
H            0.07635742979874       -3.21193697831279       -2.70600679458280
O           -2.51779989551998        2.96498543571901       -2.90907958304028
H           -2.75254703667668        2.03855977656069       -2.83671883588103
H           -1.60246701809265        2.98761336014488       -3.19473427409345
O           -2.09388368677298       -3.43724246585247       -3.83944592029114
H           -2.38730263778116       -2.56941008734091       -3.58391089663928
H           -2.74073636700302       -4.05648876964359       -3.49966049840361
O           -2.95043646597532        0.03336210502502       -2.79651931993045
H           -3.77383555863537       -0.42767045514621       -3.12784876842991
H           -2.34483035280106        0.02731752256516       -3.57849397319140
37
 energy: -59.811758925997 gnorm: 0.059959325533 xtb: 6.7.1 (edcfbbe)
N           -0.02582269924764        0.24623418065629        2.34906637143849
C            0.05853372642705       -0.53516593637366        1.09036901933292
C            0.05813295834396        0.37387195735761       -0.13194939719592
C            0.08328974492667       -0.47051457504309       -1.39778261908796