
                                 *****************
                                 * O   R   C   A *
                                 *****************

                                            #,                                       
                                            ###                                      
                                            ####                                     
                                            #####                                    
                                            ######                                   
                                           ########,                                 
                                     ,,################,,,,,                         
                               ,,#################################,,                 
                          ,,##########################################,,             
                       ,#########################################, ''#####,          
                    ,#############################################,,   '####,        
                  ,##################################################,,,,####,       
                ,###########''''           ''''###############################       
              ,#####''   ,,,,##########,,,,          '''####'''          '####       
            ,##' ,,,,###########################,,,                        '##       
           ' ,,###''''                  '''############,,,                           
         ,,##''                                '''############,,,,        ,,,,,,###''
      ,#''                                            '''#######################'''  
     '                                                          ''''####''''         
             ,#######,   #######,   ,#######,      ##                                
            ,#'     '#,  ##    ##  ,#'     '#,    #''#        ,####,   ,####,        
            ##       ##  ##   ,#'  ##            #'  '#       #'       #'  '#        
            ##       ##  #######   ##           ,######,      #####,   #    #        
            '#,     ,#'  ##    ##  '#,     ,#' ,#      #,     #,   #   #,  ,#        
             '#######'   ##     ##  '#######'  #'      '#     '####' # '####'        



                #########################################################
                #                        -***-                          #
                #          Department of theory and spectroscopy        #
                #                                                       #
                #                      Frank Neese                      #
                #                                                       #
                #     Directorship, Architecture, Infrastructure        #
                #                    SHARK, DRIVERS                     #
                #        Core code/Algorithms in most modules           #
                #                                                       #
                #        Max Planck Institute fuer Kohlenforschung      #
                #                Kaiser Wilhelm Platz 1                 #
                #                 D-45470 Muelheim/Ruhr                 #
                #                      Germany                          #
                #                                                       #
                #                  All rights reserved                  #
                #                        -***-                          #
                #########################################################


                         Program Version 6.0.1  -  RELEASE   -


 With contributions from (in alphabetic order):
[Max-Planck-Institut fuer Kohlenforschung]                               
  Daniel Aravena         : Magnetic Suceptibility                        
  Michael Atanasov       : Ab Initio Ligand Field Theory (pilot matlab implementation)
  Alexander A. Auer      : GIAO ZORA, VPT2 properties, NMR spectrum      
  Ute Becker             : All parallelization in ORCA, NUMFREQ, NUMCALC 
  Giovanni Bistoni       : ED, misc. LED, open-shell LED, HFLD           
  Martin Brehm           : Molecular dynamics                            
  Dmytro Bykov           : pre 5.0 version of the SCF Hessian            
  Marcos Casanova-Páez   : Triplet and SCS-CIS(D). UHF-(DLPNO)-IP/EA/STEOM-CCSD. UHF-CVS-IP/STEOM-CCSD   
  Vijay G. Chilkuri      : MRCI spin determinant printing, contributions to CSF-ICE 
  Pauline Colinet        : FMM embedding                                 
  Dipayan Datta          : RHF DLPNO-CCSD density                        
  Achintya Kumar Dutta   : EOM-CC, STEOM-CC                              
  Nicolas Foglia         : Exact transition moments, OPA infrastructure, MCD improvements    
  Dmitry Ganyushin       : Spin-Orbit,Spin-Spin,Magnetic field MRCI      
  Miquel Garcia-Rates    : C-PCM and meta-GGA Hessian, CCSD/C-PCM, Gaussian charge scheme 
  Tiago L. C. Gouveia    : GS-ROHF, GS-ROCIS                             
  Yang Guo               : DLPNO-NEVPT2, F12-NEVPT2, CIM, IAO-localization        
  Andreas Hansen         : Spin unrestricted coupled pair/coupled cluster methods 
  Ingolf Harden          : AUTO-CI MPn and infrastructure                
  Benjamin Helmich-Paris : MC-RPA, TRAH-(SCF,CASSCF), AVAS, COSX integrals, SCF dyn. polar. 
  Lee Huntington         : MR-EOM, pCC                                   
  Robert Izsak           : Overlap fitted RIJCOSX, COSX-SCS-MP3, EOM     
  Riya Kayal             : Wick's Theorem for AUTO-CI, AUTO-CI UHF-CCSDT 
  Emily Kempfer          : AUTO-CI, RHF CISDT and CCSDT                  
  Christian Kollmar      : KDIIS, OOCD, Brueckner-CCSD(T), CCSD density, CASPT2, CASPT2-K, improved NEVPT2 
  Axel Koslowski         : Symmetry handling                             
  Simone Kossmann        : meta-GGA functionals, TD-DFT gradient, OOMP2, (MP2 Hessian; deprecated post 5.0) 
  Lucas Lang             : DCDCAS                                        
  Marvin Lechner         : AUTO-CI (C++ implementation), FIC-MRCC        
  Spencer Leger          : CASSCF response                               
  Dagmar Lenk            : GEPOL surface, SMD, ORCA-2-JSON               
  Dimitrios Liakos       : Extrapolation schemes; Compound Job, initial MDCI parallelization 
  Dimitrios Manganas     : Further ROCIS development; embedding schemes. LFT, Crystal Embedding 
  Dimitrios Pantazis     : SARC Basis sets                               
  Anastasios Papadopoulos: AUTO-CI, single reference methods and gradients 
  Taras Petrenko         : pre 6.0 DFT Hessian and TD-DFT gradient, (ASA, deprecated), ECA, 1-Electron XAS/XES, NRVS 
  Peter Pinski           : DLPNO-MP2, DLPNO-MP2 Gradient                 
  Christoph Reimann      : Effective Core Potentials                     
  Marius Retegan         : Local ZFS, SOC                                
  Christoph Riplinger    : Optimizer, TS searches, QM/MM, DLPNO-CCSD(T), (RO)-DLPNO pert. Triples 
  Michael Roemelt        : Original ROCIS implementation                 
  Masaaki Saitow         : Open-shell DLPNO-CCSD energy and density      
  Barbara Sandhoefer     : DKH picture change effects                    
  Kantharuban Sivalingam : CASSCF convergence/infrastructure, NEVPT2 and variants, FIC-MRCI 
  Bernardo de Souza      : ESD, SOC TD-DFT                               
  Georgi L. Stoychev     : AutoAux, RI-MP2 NMR, DLPNO-MP2 response, X2C  
  Van Anh Tran           : RI-MP2 g-tensors                              
  Willem Van den Heuvel  : Paramagnetic NMR                              
  Zikuan Wang            : NOTCH, Electric field optimization            
  Frank Wennmohs         : Technical directorship and infrastructure     
  Hang Xu                : AUTO-CI-Response properties                   
                                                                         
[FACCTs GmbH]                                                            
  Markus Bursch, Miquel Garcia-Rates, Christoph Riplinger, Bernardo de Souza, Georgi L. Stoychev 
                                                                 
  APM, Basis sets (HGBS, AHGBS, def-TZVP (Ac-Lr), def2-XVPD (La-Lu)), CI-OPT, improved COSX, DLPNO-Multilevel,           
  DOCKER, DRACO, updates on ESD, GOAT, IRC, LR-CPCM, MBIS, meta-GGA TD-DFT gradient, ML-optimized integration grids, 
  MM, NACMEs, nearIR, NEB, NEB-TS, NL-DFT gradient (VV10), 2- and 3-layer-ONIOM, interface openCOSMO-RS, QMMM,   
  Crystal-QMMM, SF, symmetry and pop. for TD-DFT, r2SCAN hybrids, SOLVATOR                                   
                                                                         
[Other institutions]                                                     
  V. Asgeirsson          : NEB                                           
  Christoph Bannwarth    : sTDA-DFT, sTD-DFT, PBEh-3c, B97-3c, D3        
  Sebastian Ehlert       : rSCAN, r2SCAN, r2SCAN-3c, D4, dhf basis sets  
  Marvin Friede          : D4 for Fr, Ra, Ac-Lr                          
  Lars Goerigk           : TD-DFT with DH, B97 family of functionals     
  Stefan Grimme          : VdW corrections, initial TS optimization, DFT functionals, gCP, sTDA/sTD-DF 
  Waldemar Hujo          : DFT-NL                                        
  H. Jonsson             : NEB                                           
  Holger Kruse           : gCP                                           
  Marcel Mueller         : wB97X-3c, vDZP basis set                      
  Hagen Neugebauer       : wr2SCAN                                       
  Tobias Risthaus        : range-separated hybrid DFT                    
  Lukas Wittmann         : regularized MP2, r2SCAN double-hybrids, wr2SCAN        
                                                                         
We gratefully acknowledge several colleagues who have allowed us to      
interface, adapt or use parts of their codes:                            
  Ed Valeev, F. Pavosevic, A. Kumar             : LibInt (2-el integral package), F12 methods 
  Garnet Chan, S. Sharma, J. Yang, R. Olivares  : DMRG                   
  Ulf Ekstrom                                   : XCFun DFT Library      
  Mihaly Kallay                                 : mrcc  (arbitrary order and MRCC methods)
  Frank Weinhold                                : gennbo (NPA and NBO analysis)           
  Simon Mueller                                 : openCOSMO-RS                            
  Christopher J. Cramer and Donald G. Truhlar   : smd solvation model                     
  S Lehtola, MJT Oliveira, MAL Marques          : LibXC Library                           
  Liviu Ungur et al                             : ANISO software                          


 Your calculation uses the libint2 library for the computation of 2-el integrals
 For citations please refer to: http://libint.valeyev.net

 Your ORCA version has been built with support for libXC version: 6.2.2
 For citations please refer to: https://libxc.gitlab.io

 This ORCA versions uses:
   CBLAS   interface :  Fast vector & matrix operations
   LAPACKE interface :  Fast linear algebra routines
   SCALAPACK package :  Parallel linear algebra routines
   Shared memory     :  Shared parallel matrices
   BLAS/LAPACK       :  OpenBLAS 0.3.27  USE64BITINT DYNAMIC_ARCH NO_AFFINITY SkylakeX SINGLE_THREADED
        Core in use  :  SkylakeX
   Copyright (c) 2011-2014, The OpenBLAS Project


NOTE: MaxCore=5000 MB was set to SCF,MP2,MDCI,CIPSI,MRCI and CIS
      => If you want to overwrite this, your respective input block should be placed after the MaxCore statement
Your calculation utilizes the atom-pairwise dispersion correction
based on EEQ partial charges (D4)


Warning: RI is on but no J-basis has been assigned. Assigning Def2/J (nothing to worry about!)
================================================================================

----- Orbital basis set information -----
Your calculation utilizes the basis: def2-TZVP
   F. Weigend and R. Ahlrichs, Phys. Chem. Chem. Phys. 7, 3297 (2005).

----- AuxJ basis set information -----
Your calculation utilizes the auxiliary basis: def2/J
   F. Weigend, Phys. Chem. Chem. Phys. 8, 1057 (2006).

================================================================================
                                        WARNINGS
                       Please study these warnings very carefully!
================================================================================

WARNING: Old DensityContainer found on disk!
         Will remove this file - 
         If you want to keep old densities, please start your calculation with a different basename. 


WARNING: Geometry Optimization
  ===> : Switching off AutoStart
         For restart on a previous wavefunction, please use MOREAD

================================================================================
                                       INPUT FILE
================================================================================
NAME = 01_Alanine_zwitterion.inp
|  1> ! Opt B3LYP D4 def2-TZVP TightSCF TightOpt CPCM(water)
|  2> 
|  3> %maxcore 5000
|  4> 
|  5> %pal
|  6> nprocs 15
|  7> end
|  8> 
|  9> %geom
| 10> 	MaxIter 1000
| 11> end
| 12> 
| 13> * xyz 0 1
| 14>   O           2.32336150830987     -1.53758891451142     -4.32125493936491
| 15>   H           2.16002866313546     -0.66457312670774     -3.92446085714153
| 16>   H           1.94435618194264     -2.17324306139949     -3.68840513685747
| 17>   O          -1.28662936664404     -2.94199571582989     -4.14406274248115
| 18>   H          -2.12951850125419     -3.29049238493528     -3.82510723636539
| 19>   H          -1.22558335241533     -3.20738552613310     -5.06816813732545
| 20>   O          -5.21809892395852     -0.47399477982137     -0.26828802915133
| 21>   H          -5.13582232305282     -0.50121537305566     -1.23627849382343
| 22>   H          -5.31207851313985      0.45773402662720     -0.06000964622591
| 23>   O           0.50487382122845     -1.75715273006191     -0.20010935732716
| 24>   H           0.15115820985323     -0.83973874027624     -0.24484644630895
| 25>   H          -0.03721441442305     -2.22240734935441      0.44951411508720
| 26>   O           0.28683845296878      3.23536349974231     -3.56103157423341
| 27>   H          -0.07581762193797      3.35749200947531     -2.66086206290543
| 28>   H           0.78356502148862      4.03788550262194     -3.77518488756067
| 29>   O           1.80900690888350      0.95914535766508     -3.13528897515741
| 30>   H           2.13227285049410      1.07997788626991     -2.21790223370094
| 31>   H           1.31103458567971      1.77596522628044     -3.35385255413655
| 32>   O           1.65453231011438      3.93341608616662      0.25452703036717
| 33>   H           2.26469325559769      3.18615515208482      0.13588140447130
| 34>   H           0.79444846461718      3.62106773510051     -0.08762531833137
| 35>   O          -3.13308853498800     -1.63145698035535      1.14104245957058
| 36>   H          -2.65535922560868     -2.22543402962704      0.55917353800534
| 37>   H          -3.82869193089172     -1.23183263869110      0.59068351154263
| 38>   O           1.02298782664995     -3.27827517648554     -2.50731465933980
| 39>   H           0.22846755643307     -3.29078687556526     -3.07084130702521
| 40>   H           0.77848042700185     -2.74192606807009     -1.72869972988944
| 41>   H           2.89041213424019      0.46029666482969     -0.11103472849314
| 42>   O           2.50455935556042      1.29621173998630     -0.45275489729501
| 43>   H           1.54245385339070      1.21444973848053     -0.26569865760852
| 44>   H          -3.56279184545994      1.41043291149692     -4.80470601977946
| 45>   O          -4.32445388078153      1.87014006436143     -4.42907726671334
| 46>   H          -3.96954116053177      2.72512975645394     -4.15221366309208
| 47>   H          -0.82918376488022      0.51945500945841      1.53800854799592
| 48>   O          -1.32397890742840      0.19090561848891      2.30555730669881
| 49>   H          -1.97533641876497     -0.43081076705514      1.92386330999258
| 50>   H          -3.59420800546414      4.31550464274323     -1.62949448452212
| 51>   O          -2.71573279654315      4.67044756152601     -1.87370894367022
| 52>   H          -2.06243767917071      4.05622123616192     -1.51723687969279
| 53>   H           3.39749428232767     -1.37190252029409      1.30298111493015
| 54>   O           3.20413426615161     -1.27128292982683      0.36388728943784
| 55>   H           2.27681427750544     -1.57019492031187      0.25133790551501
| 56>   H          -1.67997456777118     -0.93752800954303     -1.55466283707753
| 57>   C          -1.99739451228400     -0.18616991546005     -2.27076816998046
| 58>   H          -0.98658277084684     -1.11974071318191     -3.82518383378236
| 59>   H          -2.93879277246291     -0.50872948814584     -2.71277808807114
| 60>   N          -0.98692227530796     -0.18714716393724     -3.37958346080983
| 61>   H          -2.95436252368445      1.09722611381533     -0.88609232867861
| 62>   C          -2.15658939028014      1.17582044188716     -1.62901931899876
| 63>   O          -0.19491965845818      0.87982598832317     -0.28360006874857
| 64>   C          -0.93417308598306      1.70144198851911     -0.89125131821554
| 65>   H          -0.02646865479720      0.03553392699816     -3.06802531002682
| 66>   O          -0.73089641656625      2.94502843888243     -0.90483498417878
| 67>   H          -1.22887430405793      0.49904799995743     -4.09696101050438
| 68>   H          -2.48481142993552      1.91646175781677     -2.35533427217024
| 69> *
| 70> 
| 71>                          ****END OF INPUT****
================================================================================

                       *****************************
                       * Geometry Optimization Run *
                       *****************************

Geometry optimization settings:
Update method            Update   .... BFGS
Choice of coordinates    CoordSys .... (2022) Redundant Internals
Initial Hessian          InHess   .... Almloef's Model
Max. no of cycles        MaxIter  .... 1000

Convergence Tolerances:
Energy Change            TolE     ....  1.0000e-06 Eh
Max. Gradient            TolMAXG  ....  1.0000e-04 Eh/bohr
RMS Gradient             TolRMSG  ....  3.0000e-05 Eh/bohr
Max. Displacement        TolMAXD  ....  1.0000e-03 bohr
RMS Displacement         TolRMSD  ....  6.0000e-04 bohr
Strict Convergence                .... False

------------------------------------------------------------------------------
                        ORCA OPTIMIZATION COORDINATE SETUP
------------------------------------------------------------------------------

The optimization will be done in redundant internal coordinates (2022)
Making redundant internal coordinates   ...  (2022 redundants) done
Evaluating the initial hessian          ...  (Almloef) done
Evaluating the coordinates              ...  done
Calculating the B-matrix                .... done
Calculating the G-matrix                .... done
Diagonalizing the G-matrix              .... done
Small eigenvalue found = 3.108e-03
Small eigenvalue found = 2.058e-02
The first mode is                       ....  437
The number of degrees of freedom        ....  159

    -----------------------------------------------------------------
                    Redundant Internal Coordinates


    -----------------------------------------------------------------
         Definition                    Initial Value    Approx d2E/dq
    -----------------------------------------------------------------
      1. B(H   1,O   0)                  0.9728         0.496129   
      2. B(H   2,O   0)                  0.9738         0.494334   
      3. B(H   4,O   3)                  0.9663         0.508149   
      4. B(H   5,O   3)                  0.9634         0.513512   
      5. B(H   7,O   6)                  0.9719         0.497785   
      6. B(H   8,O   6)                  0.9593         0.521221   
      7. B(H  10,O   9)                  0.9843         0.475624   
      8. B(H  11,O   9)                  0.9656         0.509418   
      9. B(H  13,O  12)                  0.9781         0.486452   
     10. B(H  14,O  12)                  0.9678         0.505265   
     11. B(O  15,H   1)                  1.8391         0.020575   
     12. B(H  16,O  15)                  0.9802         0.482852   
     13. B(H  17,O  15)                  0.9813         0.480829   
     14. B(H  17,O  12)                  1.7949         0.024205   
     15. B(H  17,H  13)                  2.2147         0.001107   
     16. B(H  19,O  18)                  0.9720         0.497544   
     17. B(H  20,O  18)                  0.9769         0.488620   
     18. B(H  22,O  21)                  0.9590         0.521945   
     19. B(H  23,O   6)                  1.8007         0.023694   
     20. B(H  23,O  21)                  0.9729         0.495961   
     21. B(H  23,H   8)                  2.3406         0.000697   
     22. B(O  24,H   2)                  1.8614         0.018957   
     23. B(H  25,O  24)                  0.9742         0.493606   
     24. B(H  25,O   3)                  1.8892         0.017121   
     25. B(H  25,H   2)                  2.1388         0.001463   
     26. B(H  26,H  11)                  2.3832         0.000596   
     27. B(H  26,H   2)                  2.3501         0.000673   
     28. B(H  26,O   9)                  1.8388         0.020601   
     29. B(H  26,O  24)                  0.9766         0.489244   
     30. B(H  27,H  16)                  2.3233         0.000743   
     31. B(O  28,H  16)                  1.8169         0.022328   
     32. B(O  28,H  27)                  0.9820         0.479510   
     33. B(O  28,H  19)                  1.9940         0.011650   
     34. B(H  29,H  16)                  2.0438         0.002074   
     35. B(H  29,O  28)                  0.9835         0.476907   
     36. B(H  29,H  19)                  2.1379         0.001468   
     37. B(O  31,H  30)                  0.9657         0.509201   
     38. B(O  31,H   7)                  4.0590         0.000006   
     39. B(H  32,O  31)                  0.9662         0.508169   
     40. B(H  33,H  10)                  2.4468         0.000472   
     41. B(O  34,H  33)                  0.9705         0.500255   
     42. B(H  35,O  34)                  0.9780         0.486682   
     43. B(H  35,H  22)                  2.3549         0.000661   
     44. B(H  35,O  21)                  1.8425         0.020324   
     45. B(H  36,H  32)                  3.0057         0.000061   
     46. B(O  37,H  36)                  0.9784         0.485901   
     47. B(H  38,O  37)                  0.9650         0.510575   
     48. B(H  39,H  27)                  2.3693         0.000627   
     49. B(O  40,H  39)                  0.9641         0.512261   
     50. B(O  40,H  27)                  1.8227         0.021854   
     51. B(H  41,H  10)                  2.3018         0.000804   
     52. B(H  41,O  40)                  0.9808         0.481733   
     53. B(H  41,H  27)                  2.1519         0.001394   
     54. B(H  41,O   9)                  1.8381         0.020656   
     55. B(H  42,H  10)                  2.2535         0.000960   
     56. B(C  43,H  42)                  1.0854         0.366232   
     57. B(H  44,O   3)                  1.8741         0.018095   
     58. B(H  45,C  43)                  1.0889         0.361592   
     59. B(H  45,H  30)                  2.9067         0.000087   
     60. B(N  46,C  43)                  1.5002         0.373334   
     61. B(N  46,H  44)                  1.0336         0.396801   
     62. B(C  48,H  47)                  1.0930         0.356207   
     63. B(C  48,C  43)                  1.5140         0.396188   
     64. B(O  49,H  10)                  1.7545         0.028083   
     65. B(O  49,H  29)                  1.7694         0.026584   
     66. B(O  49,H  33)                  1.9622         0.013090   
     67. B(C  50,O  49)                  1.2613         0.897976   
     68. B(C  50,C  48)                  1.5215         0.385462   
     69. B(H  51,H  17)                  2.2135         0.001112   
     70. B(H  51,O  15)                  2.0559         0.009281   
     71. B(H  51,N  46)                  1.0340         0.396212   
     72. B(O  52,H  38)                  1.8392         0.020568   
     73. B(O  52,H  13)                  1.9191         0.015339   
     74. B(O  52,C  50)                  1.2602         0.901614   
     75. B(O  52,H  20)                  1.8578         0.019210   
     76. B(H  53,N  46)                  1.0218         0.414381   
     77. B(H  53,H  30)                  2.6036         0.000265   
     78. B(H  54,C  48)                  1.0880         0.362713   
     79. B(H  54,O  31)                  2.7725         0.000667   
     80. B(H  54,H  30)                  2.7235         0.000171   
     81. B(H  54,H  32)                  2.4672         0.000438   
     82. B(H  54,H  38)                  2.3365         0.000707   
     83. A(H   1,O   0,H   2)          104.7970         0.316755   
     84. L(O   0,H   1,O  15,H  51, 2) 178.6720         0.199909   
     85. L(O   0,H   1,O  15,H  51, 1) 178.3584         0.199909   
     86. A(H  25,H   2,H  26)           40.0753         0.097953   
     87. A(O   0,H   2,O  24)          172.9973         0.197783   
     88. A(O   0,H   2,H  25)          147.2451         0.138283   
     89. A(O   0,H   2,H  26)          153.2510         0.130342   
     90. A(O  24,H   2,H  26)           23.3223         0.108763   
     91. A(O  24,H   2,H  25)           27.0660         0.112559   
     92. A(H   5,O   3,H  44)          114.8924         0.197574   
     93. A(H  25,O   3,H  44)           87.3898         0.139283   
     94. A(H   5,O   3,H  25)          116.3111         0.196223   
     95. A(H   4,O   3,H   5)          105.8163         0.319974   
     96. A(H   4,O   3,H  44)          115.7332         0.197316   
     97. A(H   4,O   3,H  25)          116.4543         0.195969   
     98. A(H   7,O   6,H  23)          113.4536         0.203597   
     99. A(H   8,O   6,H  23)          112.3810         0.204796   
    100. A(H   7,O   6,H   8)          104.5803         0.319675   
    101. A(O   6,H   8,H  23)           45.3478         0.131173   
    102. A(H  26,O   9,H  41)           96.6154         0.143028   
    103. A(H  11,O   9,H  41)          115.1496         0.200674   
    104. A(H  10,O   9,H  41)          105.2362         0.198953   
    105. A(H  11,O   9,H  26)          112.6293         0.200606   
    106. A(H  10,O   9,H  11)          106.1374         0.316130   
    107. A(H  10,O   9,H  26)          120.9885         0.198886   
    108. A(H  33,H  10,H  41)          112.9055         0.096215   
    109. A(O   9,H  10,O  49)          170.2085         0.206868   
    110. A(O   9,H  10,H  33)          128.9491         0.126816   
    111. A(H  33,H  10,H  42)           97.0106         0.096510   
    112. A(O   9,H  10,H  41)           50.3969         0.131664   
    113. A(H  42,H  10,O  49)           82.4962         0.112408   
    114. A(H  41,H  10,O  49)          119.8647         0.111487   
    115. A(H  41,H  10,H  42)          149.5334         0.097473   
    116. A(O   9,H  10,H  42)          106.1402         0.133412   
    117. A(H  33,H  10,O  49)           52.6002         0.108932   
    118. A(O   9,H  11,H  26)           45.4107         0.129494   
    119. A(H  13,O  12,H  14)          106.8820         0.316867   
    120. A(H  13,O  12,H  17)          101.9381         0.203552   
    121. A(H  14,O  12,H  17)          114.0097         0.204540   
    122. A(H  17,H  13,O  52)          110.2792         0.110083   
    123. A(O  12,H  13,H  17)           52.4607         0.135103   
    124. A(O  12,H  13,O  52)          160.3605         0.192316   
    125. A(H  16,O  15,H  51)          108.6156         0.181055   
    126. A(H   1,O  15,H  51)           77.7491         0.134067   
    127. A(H  16,O  15,H  17)          105.8558         0.313946   
    128. A(H   1,O  15,H  16)          116.5840         0.199230   
    129. A(H   1,O  15,H  17)          137.4061         0.199126   
    130. A(H  17,O  15,H  51)           85.8815         0.180967   
    131. A(H  27,H  16,H  29)           41.0194         0.098908   
    132. A(O  28,H  16,H  29)           28.7553         0.115458   
    133. A(O  15,H  16,O  28)          172.5497         0.201289   
    134. A(O  15,H  16,H  29)          143.7992         0.142053   
    135. A(O  15,H  16,H  27)          157.4459         0.131051   
    136. A(H  27,H  16,O  28)           23.6318         0.109971   
    137. A(O  12,H  17,O  15)          172.7763         0.203251   
    138. A(O  12,H  17,H  13)           25.6012         0.112376   
    139. A(H  13,H  17,H  51)           98.2040         0.098417   
    140. A(H  13,H  17,O  15)          147.4052         0.134982   
    141. A(O  12,H  17,H  51)          108.0239         0.112399   
    142. A(O  15,H  17,H  51)           67.8760         0.135026   
    143. A(H  19,O  18,H  20)          105.3141         0.316303   
    144. A(O  28,H  19,H  29)           27.2559         0.110117   
    145. A(O  18,H  19,H  29)          121.3252         0.138394   
    146. A(O  18,H  19,O  28)          147.1647         0.186576   
    147. A(O  18,H  20,O  52)          173.3368         0.197824   
    148. A(H  23,O  21,H  35)          114.9586         0.199594   
    149. A(H  22,O  21,H  23)          105.5080         0.319556   
    150. A(H  22,O  21,H  35)          110.3890         0.200879   
    151. A(O  21,H  22,H  35)           47.1714         0.130689   
    152. A(H   8,H  23,O  21)          155.0840         0.130702   
    153. A(O   6,H  23,O  21)          173.9418         0.203501   
    154. A(O   6,H  23,H   8)           22.2713         0.109951   
    155. A(H   2,O  24,H  26)          107.6844         0.197528   
    156. A(H   2,O  24,H  25)           92.5379         0.197746   
    157. A(H  25,O  24,H  26)          105.3114         0.315960   
    158. A(H   2,H  25,O  24)           60.3960         0.138267   
    159. A(H   2,H  25,O   3)          112.5137         0.112022   
    160. A(O   3,H  25,O  24)          168.6247         0.195268   
    161. A(H   2,H  26,H  11)          151.5431         0.096307   
    162. A(H  11,H  26,O  24)          159.0857         0.129125   
    163. A(H   2,H  26,O   9)          129.5993         0.109138   
    164. A(H   2,H  26,O  24)           48.9932         0.130246   
    165. A(O   9,H  26,O  24)          173.8099         0.199590   
    166. A(O   9,H  26,H  11)           21.9600         0.108591   
    167. A(O  28,H  27,H  41)          138.5674         0.137415   
    168. A(H  16,H  27,O  28)           47.8707         0.130985   
    169. A(H  39,H  27,H  41)           39.7221         0.097716   
    170. A(H  39,H  27,O  40)           22.0311         0.109087   
    171. A(H  16,H  27,H  39)          144.8172         0.096559   
    172. A(O  28,H  27,H  39)          161.8062         0.129410   
    173. A(O  40,H  27,H  41)           26.9768         0.113066   
    174. A(H  16,H  27,H  41)          108.1399         0.098056   
    175. A(H  16,H  27,O  40)          123.0819         0.109870   
    176. A(O  28,H  27,O  40)          165.2228         0.200570   
    177. A(H  16,O  28,H  19)          112.0216         0.137333   
    178. A(H  16,O  28,H  29)           88.5353         0.200975   
    179. A(H  27,O  28,H  29)          104.3243         0.313177   
    180. A(H  16,O  28,H  27)          108.4975         0.201113   
    181. A(H  19,O  28,H  29)           84.5471         0.185645   
    182. A(H  19,O  28,H  27)          138.7061         0.185764   
    183. A(H  16,H  29,O  49)          105.1449         0.116524   
    184. A(O  28,H  29,O  49)          166.9861         0.205486   
    185. A(H  16,H  29,O  28)           62.7094         0.141904   
    186. A(H  19,H  29,O  49)          120.5330         0.114452   
    187. A(H  16,H  29,H  19)           98.1989         0.100560   
    188. A(H  19,H  29,O  28)           68.1969         0.137923   
    189. A(H  45,H  30,H  53)           51.7419         0.092830   
    190. A(H  45,H  30,H  54)           52.4430         0.092466   
    191. A(H  53,H  30,H  54)           57.7076         0.093460   
    192. A(O  31,H  30,H  54)           82.7564         0.119512   
    193. A(O  31,H  30,H  53)          140.1683         0.122712   
    194. A(O  31,H  30,H  45)          101.7527         0.115202   
    195. A(H  32,O  31,H  54)           61.7822         0.140319   
    196. A(H  30,O  31,H  32)          104.0623         0.319535   
    197. A(H  30,O  31,H  54)           77.0296         0.140343   
    198. A(H  36,H  32,H  54)           59.1367         0.092951   
    199. A(O  31,H  32,H  36)          138.9866         0.113120   
    200. A(O  31,H  32,H  54)           98.0306         0.126742   
    201. A(H  10,H  33,O  49)           45.2593         0.105769   
    202. A(H  10,H  33,O  34)          126.3324         0.127251   
    203. A(O  34,H  33,O  49)          163.9768         0.189307   
    204. A(H  33,O  34,H  35)          104.2465         0.316378   
    205. A(H  22,H  35,O  34)          154.5492         0.130034   
    206. A(O  21,H  35,H  22)           22.4396         0.108997   
    207. A(H  32,H  36,O  37)           95.4267         0.112876   
    208. A(H  36,O  37,H  38)          106.5430         0.317348   
    209. A(O  52,H  38,H  54)           72.3635         0.109360   
    210. A(O  37,H  38,H  54)          109.1495         0.131120   
    211. A(H  27,H  39,O  40)           45.1710         0.130018   
    212. A(H  39,O  40,H  41)          105.6410         0.317074   
    213. A(H  27,O  40,H  41)           95.5603         0.200687   
    214. A(H  27,O  40,H  39)          112.7978         0.202251   
    215. A(H  10,H  41,H  27)           85.8472         0.098220   
    216. A(O   9,H  41,H  10)           24.3669         0.109977   
    217. A(H  10,H  41,O  40)          143.2414         0.131788   
    218. A(O   9,H  41,H  27)          109.2382         0.112761   
    219. A(H  27,H  41,O  40)           57.4629         0.137466   
    220. A(O   9,H  41,O  40)          166.0845         0.199271   
    221. A(H  10,H  42,C  43)          126.2330         0.131354   
    222. A(H  42,C  43,H  45)          108.3965         0.291802   
    223. A(N  46,C  43,C  48)          112.6256         0.364697   
    224. A(H  45,C  43,C  48)          110.3435         0.327693   
    225. A(H  42,C  43,C  48)          111.9519         0.328383   
    226. A(H  45,C  43,N  46)          106.3864         0.322567   
    227. A(H  42,C  43,N  46)          106.8706         0.323242   
    228. A(O   3,H  44,N  46)          161.9202         0.191419   
    229. A(H  30,H  45,C  43)          106.3892         0.113535   
    230. A(H  44,N  46,H  53)          107.6586         0.297049   
    231. A(C  43,N  46,H  53)          111.0384         0.327076   
    232. A(H  44,N  46,H  51)          108.9001         0.294948   
    233. A(C  43,N  46,H  51)          113.7544         0.324672   
    234. A(C  43,N  46,H  44)          108.6304         0.324751   
    235. A(H  51,N  46,H  53)          106.6710         0.296979   
    236. A(H  47,C  48,C  50)          106.3607         0.325411   
    237. A(C  43,C  48,C  50)          115.5844         0.369003   
    238. A(C  43,C  48,H  47)          107.4687         0.326884   
    239. A(C  50,C  48,H  54)          109.3235         0.326381   
    240. A(H  47,C  48,H  54)          106.4105         0.290673   
    241. A(C  43,C  48,H  54)          111.1697         0.327861   
    242. A(H  29,O  49,C  50)          117.2061         0.244962   
    243. A(H  10,O  49,H  33)           82.1405         0.141268   
    244. A(H  29,O  49,H  33)          110.0429         0.140624   
    245. A(H  33,O  49,C  50)          112.1746         0.221855   
    246. A(H  10,O  49,H  29)           89.5099         0.150359   
    247. A(H  10,O  49,C  50)          139.8819         0.246909   
    248. A(O  49,C  50,O  52)          123.6074         0.490741   
    249. A(C  48,C  50,O  52)          117.7297         0.423506   
    250. A(C  48,C  50,O  49)          118.6518         0.423200   
    251. A(O  15,H  51,H  17)           26.2426         0.107835   
    252. A(H  17,H  51,N  46)          133.7643         0.133053   
    253. A(O  15,H  51,N  46)          156.3775         0.177025   
    254. A(H  20,O  52,H  38)          121.4005         0.142129   
    255. A(H  13,O  52,H  20)           92.5235         0.138717   
    256. A(H  20,O  52,C  50)          119.1304         0.234038   
    257. A(H  13,O  52,H  38)           79.1989         0.139491   
    258. A(H  13,O  52,C  50)          106.0828         0.226836   
    259. A(H  38,O  52,C  50)          118.8828         0.236298   
    260. A(H  30,H  53,N  46)          129.6578         0.121176   
    261. A(H  38,H  54,C  48)          109.2331         0.128442   
    262. A(H  30,H  54,O  31)           20.2141         0.095792   
    263. A(O  31,H  54,H  32)           20.1873         0.097406   
    264. A(O  31,H  54,H  38)          113.7994         0.098370   
    265. A(O  31,H  54,C  48)          133.4794         0.137109   
    266. A(H  30,H  54,H  32)           33.6659         0.093995   
    267. A(H  30,H  54,H  38)          124.3530         0.094569   
    268. A(H  30,H  54,C  48)          126.3901         0.117591   
    269. A(H  32,H  54,H  38)           94.0059         0.095891   
    270. A(H  32,H  54,C  48)          152.9780         0.124381   
    271. D(O  24,H   2,O   0,H   1)     57.8944         0.336608   
    272. D(H  26,H   2,O   0,H   1)      3.5254         0.336608   
    273. D(H  25,H   2,O   0,H   1)     90.1815         0.336608   
    274. D(H  23,H   8,O   6,H   7)   -123.4949         0.347985   
    275. D(O  49,H  10,O   9,H  26)   -101.2793         0.383756   
    276. D(O  49,H  10,O   9,H  41)      6.3504         0.383756   
    277. D(H  42,H  10,O   9,H  41)    157.6918         0.383756   
    278. D(H  41,H  10,O   9,H  11)    122.5029         0.383756   
    279. D(O  49,H  10,O   9,H  11)    128.8533         0.383756   
    280. D(H  42,H  10,O   9,H  11)    -79.8053         0.383756   
    281. D(H  42,H  10,O   9,H  26)     50.0621         0.383756   
    282. D(H  26,H  11,O   9,H  10)    134.5318         0.363727   
    283. D(H  26,H  11,O   9,H  41)   -109.4871         0.363727   
    284. D(H  17,H  13,O  12,H  14)   -119.9193         0.322987   
    285. D(O  52,H  13,O  12,H  17)    -31.4870         0.322987   
    286. D(O  52,H  13,O  12,H  14)   -151.4063         0.322987   
    287. D(H  16,O  15,O   0,H   2)     54.6913         0.001501   
    288. D(H  51,O  15,O   0,H   2)    -49.9426         0.001501   
    289. D(H  17,O  15,O   0,H   2)   -118.9645         0.001501   
    290. D(H  29,H  16,O  15,H  17)     68.4224         0.373087   
    291. D(O  28,H  16,O  15,H  51)    -24.4037         0.373087   
    292. D(O  28,H  16,O  15,H   1)   -109.7105         0.373087   
    293. D(H  27,H  16,O  15,H  17)    156.0815         0.373087   
    294. D(H  29,H  16,O  15,H   1)   -107.8522         0.373087   
    295. D(H  29,H  16,O  15,H  51)    -22.5453         0.373087   
    296. D(O  28,H  16,O  15,H  17)     66.5640         0.373087   
    297. D(O  15,H  17,H  13,O  12)   -176.2547         0.001513   
    298. D(H  51,H  17,O  12,H  14)   -174.5997         0.001880   
    299. D(H  13,H  17,O  12,H  14)    114.7785         0.001880   
    300. D(H  51,H  17,O  12,H  13)     70.6217         0.001880   
    301. D(O  15,H  17,O  12,H  13)     16.2505         0.001880   
    302. D(O  15,H  17,O  12,H  14)    131.0290         0.001880   
    303. D(H  13,H  17,O  15,H  51)     69.5203         0.369090   
    304. D(H  13,H  17,O  15,H   1)    136.4001         0.369090   
    305. D(O  12,H  17,O  15,H   1)    123.4286         0.369090   
    306. D(O  12,H  17,O  15,H  16)    -51.6462         0.369090   
    307. D(H  51,H  17,H  13,O  52)     54.2169         0.001513   
    308. D(O  12,H  17,O  15,H  51)     56.5487         0.369090   
    309. D(H  13,H  17,O  15,H  16)    -38.6747         0.369090   
    310. D(H  51,H  17,H  13,O  12)   -114.9968         0.001513   
    311. D(O  15,H  17,H  13,O  52)     -7.0411         0.001513   
    312. D(O  12,H  17,H  13,O  52)    169.2137         0.001513   
    313. D(H  51,H  17,O  15,H  16)   -108.1950         0.369090   
    314. D(O  28,H  19,O  18,H  20)     -2.5744         0.308627   
    315. D(H  29,H  19,O  18,H  20)    -15.1137         0.308627   
    316. D(O  52,H  20,O  18,H  19)    -44.0955         0.259591   
    317. D(H  35,H  22,O  21,H  23)    124.7716         0.349239   
    318. D(H   8,H  23,O  21,H  35)    -28.1615         0.339466   
    319. D(H   8,H  23,O  21,H  22)   -150.0280         0.339466   
    320. D(O   6,H  23,O  21,H  35)    -86.1965         0.339466   
    321. D(O   6,H  23,O  21,H  22)    151.9370         0.339466   
    322. D(O  21,H  23,H   8,O   6)   -166.3349         0.001505   
    323. D(H   8,H  23,O   6,H   7)    118.3863         0.001833   
    324. D(O  21,H  23,O   6,H   7)   -171.0431         0.001833   
    325. D(O  21,H  23,O   6,H   8)     70.5706         0.001833   
    326. D(H  26,O  24,H   2,O   0)    -67.5204         0.001730   
    327. D(H  25,O  24,H   2,O   0)     39.4315         0.001730   
    328. D(H  25,O  24,H   2,H  26)    106.9518         0.001730   
    329. D(H  26,O  24,H   2,H  25)   -106.9518         0.001730   
    330. D(O  24,H  25,H   2,H  26)    -36.0318         0.001523   
    331. D(O  24,H  25,H   2,O   0)   -171.7714         0.001523   
    332. D(O   3,H  25,H   2,O   0)     -1.6866         0.001523   
    333. D(O   3,H  25,H   2,O  24)    170.0849         0.001523   
    334. D(H   2,H  25,O  24,H  26)    109.1109         0.335334   
    335. D(H   2,H  25,O   3,H   4)   -169.4273         0.001687   
    336. D(O   3,H  25,O  24,H  26)     55.3573         0.335334   
    337. D(O  24,H  25,O   3,H  44)     -2.4797         0.001687   
    338. D(O  24,H  25,O   3,H   5)    114.1041         0.001687   
    339. D(O   3,H  25,O  24,H   2)    -53.7536         0.335334   
    340. D(H   2,H  25,O   3,H   5)     64.7233         0.001687   
    341. D(O   3,H  25,H   2,H  26)    134.0531         0.001523   
    342. D(O  24,H  25,O   3,H   4)   -120.0465         0.001687   
    343. D(H  11,H  26,O  24,H  25)     90.9475         0.357733   
    344. D(H   2,H  26,O  24,H  25)    -97.7864         0.357733   
    345. D(O   9,H  26,O  24,H   2)    -79.4434         0.357733   
    346. D(H   2,H  26,H  11,O   9)     -2.8351         0.001504   
    347. D(O  24,H  26,H  11,O   9)    163.2501         0.001504   
    348. D(H   2,H  26,O   9,H  41)    -60.9649         0.001794   
    349. D(H   2,H  26,O   9,H  11)    178.2472         0.001794   
    350. D(H   2,H  26,O   9,H  10)     51.2612         0.001794   
    351. D(O  24,H  26,O   9,H  41)     13.3587         0.001794   
    352. D(O   9,H  26,H   2,O   0)    -22.4023         0.001506   
    353. D(O  24,H  26,O   9,H  11)   -107.4293         0.001794   
    354. D(H  11,H  26,H   2,O   0)    -21.0267         0.001506   
    355. D(O  24,H  26,O   9,H  10)    125.5848         0.001794   
    356. D(O   9,H  26,O  24,H  25)   -177.2298         0.357733   
    357. D(O   9,H  26,H   2,O  24)    172.0926         0.001506   
    358. D(O   9,H  26,H   2,H  25)   -145.3704         0.001506   
    359. D(O  24,H  26,H   2,H  25)     42.5370         0.001506   
    360. D(H  11,H  26,O  24,H   2)   -171.2661         0.357733   
    361. D(O  24,H  26,H   2,O   0)    165.5051         0.001506   
    362. D(H  41,H  27,H  16,O  28)    140.1266         0.001507   
    363. D(H  41,H  27,H  16,O  15)    -21.0010         0.001507   
    364. D(O  40,H  27,H  16,H  29)    120.0197         0.001507   
    365. D(O  28,H  27,H  16,O  15)   -161.1276         0.001507   
    366. D(O  40,H  27,H  16,O  15)      4.0661         0.001507   
    367. D(O  28,H  27,H  16,H  29)    -45.1740         0.001507   
    368. D(O  40,H  27,H  16,O  28)    165.1937         0.001507   
    369. D(H  16,O  28,H  27,H  39)   -141.0361         0.391845   
    370. D(H  16,O  28,H  27,H  41)    -67.0215         0.391845   
    371. D(H  16,O  28,H  27,O  40)    -57.0878         0.391845   
    372. D(H  29,O  28,H  27,H  39)    -47.7336         0.391845   
    373. D(H  29,O  28,H  27,H  41)     26.2809         0.391845   
    374. D(H  29,O  28,H  27,H  16)     93.3025         0.391845   
    375. D(H  16,O  28,H  19,O  18)     62.3088         0.001586   
    376. D(H  29,O  28,H  19,O  18)    -23.8892         0.001586   
    377. D(H  16,O  28,H  19,H  29)     86.1981         0.001586   
    378. D(H  27,O  28,H  19,H  29)   -105.5411         0.001586   
    379. D(H  27,O  28,H  19,O  18)   -129.4304         0.001586   
    380. D(H  29,O  28,H  27,O  40)     36.2147         0.391845   
    381. D(H  19,O  28,H  16,H  29)    -83.5186         0.001847   
    382. D(H  19,O  28,H  16,O  15)    -81.2368         0.001847   
    383. D(H  29,O  28,H  16,H  27)   -104.6207         0.001847   
    384. D(H  29,O  28,H  16,O  15)      2.2817         0.001847   
    385. D(H  27,O  28,H  16,H  29)    104.6207         0.001847   
    386. D(H  27,O  28,H  16,O  15)    106.9024         0.001847   
    387. D(O  49,H  29,H  19,O  18)     -4.1207         0.001523   
    388. D(H  16,H  29,H  19,O  28)    -56.1813         0.001523   
    389. D(H  16,H  29,H  19,O  18)    108.9232         0.001523   
    390. D(O  28,H  29,H  19,O  18)    165.1045         0.001523   
    391. D(H  19,H  29,H  16,O  15)   -119.2738         0.001550   
    392. D(O  49,H  29,H  16,H  27)   -138.7447         0.001550   
    393. D(O  49,H  29,H  16,O  28)   -174.9722         0.001550   
    394. D(O  49,H  29,H  16,O  15)      5.5286         0.001550   
    395. D(O  28,H  29,H  16,O  15)   -179.4992         0.001550   
    396. D(O  49,H  29,H  19,O  28)   -169.2252         0.001523   
    397. D(O  28,H  29,H  16,H  27)     36.2275         0.001550   
    398. D(O  49,H  29,O  28,H  19)    134.3508         0.361420   
    399. D(O  49,H  29,O  28,H  16)     22.0652         0.361420   
    400. D(H  19,H  29,O  28,H  27)    138.9897         0.361420   
    401. D(O  49,H  29,O  28,H  27)    -86.6595         0.361420   
    402. D(H  16,H  29,O  28,H  19)    112.2856         0.361420   
    403. D(H  16,H  29,O  28,H  27)   -108.7246         0.361420   
    404. D(H  54,O  31,H  30,H  45)     49.1519         0.427800   
    405. D(H  54,O  31,H  30,H  53)      6.7109         0.427800   
    406. D(H  32,O  31,H  30,H  45)    105.2421         0.427800   
    407. D(H  32,O  31,H  30,H  54)     56.0902         0.427800   
    408. D(H  32,O  31,H  30,H  53)     62.8011         0.427800   
    409. D(H  36,H  32,O  31,H  54)    -51.1533         0.394483   
    410. D(H  36,H  32,O  31,H  30)   -117.7628         0.394483   
    411. D(H  54,H  32,O  31,H  30)    -66.6094         0.394483   
    412. D(O  49,H  33,H  10,H  42)    -74.9511         0.001503   
    413. D(O  49,H  33,H  10,O   9)    167.6915         0.001503   
    414. D(O  34,H  33,H  10,H  41)    -87.0885         0.001503   
    415. D(O  34,H  33,H  10,H  42)     87.0181         0.001503   
    416. D(O  34,H  33,H  10,O   9)    -30.3393         0.001503   
    417. D(O  34,H  33,H  10,O  49)    161.9692         0.001503   
    418. D(H  35,O  34,H  33,H  10)    -48.5908         0.312976   
    419. D(H  35,O  34,H  33,O  49)      4.2070         0.312976   
    420. D(H  33,O  34,O  21,H  23)    -69.0440         0.001501   
    421. D(H  33,O  34,O  21,H  22)     49.5849         0.001501   
    422. D(H  22,H  35,O  34,H  33)     48.6241         0.291608   
    423. D(O  34,H  35,H  22,O  21)   -178.5402         0.001504   
    424. D(H  22,H  35,O  21,H  23)   -119.1839         0.001743   
    425. D(O  37,H  36,H  32,H  54)     77.0776         0.001500   
    426. D(O  37,H  36,H  32,O  31)    141.0275         0.001500   
    427. D(H  38,O  37,H  36,H  32)    -91.8536         0.255902   
    428. D(H  54,H  38,O  37,H  36)     56.6080         0.329899   
    429. D(O  40,H  39,H  27,H  41)     41.9806         0.001504   
    430. D(O  40,H  39,H  27,H  16)     11.4915         0.001504   
    431. D(O  40,H  39,H  27,O  28)    137.4547         0.001504   
    432. D(H  41,O  40,H  39,H  27)   -103.1102         0.332721   
    433. D(H  41,O  40,H  27,H  39)    109.5578         0.001832   
    434. D(H  41,O  40,H  27,H  16)    -62.5680         0.001832   
    435. D(H  41,O  40,H  27,O  28)    -14.5752         0.001832   
    436. D(H  39,O  40,H  27,H  41)   -109.5578         0.001832   
    437. D(H  39,O  40,H  27,H  16)   -172.1258         0.001832   
    438. D(H  39,O  40,H  27,O  28)   -124.1330         0.001832   
    439. D(H  10,H  41,O  40,H  27)     -3.9459         0.343802   
    440. D(H  10,H  41,O  40,H  39)    111.6194         0.343802   
    441. D(O   9,H  41,O  40,H  27)     18.2337         0.343802   
    442. D(O   9,H  41,O  40,H  39)    133.7990         0.343802   
    443. D(O   9,H  41,H  27,H  39)    150.9912         0.001524   
    444. D(O   9,H  41,H  27,H  16)    -46.9254         0.001524   
    445. D(O   9,H  41,H  27,O  28)     -0.9950         0.001524   
    446. D(O  40,H  41,H  27,H  39)    -33.5801         0.001524   
    447. D(O  40,H  41,H  27,H  16)    128.5033         0.001524   
    448. D(O  40,H  41,H  27,O  28)    174.4338         0.001524   
    449. D(O   9,H  41,H  10,H  33)    122.4221         0.001508   
    450. D(O   9,H  41,H  10,H  42)    -45.9830         0.001508   
    451. D(O   9,H  41,H  10,O  49)   -178.7571         0.001508   
    452. D(O  40,H  41,H  10,H  33)    -70.2900         0.001508   
    453. D(O  40,H  41,H  10,H  42)    121.3050         0.001508   
    454. D(O  40,H  41,H  10,O  49)    -11.4691         0.001508   
    455. D(O  40,H  41,H  10,O   9)    167.2880         0.001508   
    456. D(O   9,H  41,H  27,O  40)   -175.4288         0.001524   
    457. D(H  27,H  41,O   9,H  26)    107.6881         0.001796   
    458. D(H  27,H  41,O   9,H  11)   -133.4722         0.001796   
    459. D(H  27,H  41,O   9,H  10)    -16.9777         0.001796   
    460. D(H  27,H  41,O  40,H  39)    115.5653         0.343802   
    461. D(O  40,H  41,O   9,H  26)     91.4646         0.001796   
    462. D(O  40,H  41,O   9,H  11)   -149.6956         0.001796   
    463. D(O  40,H  41,O   9,H  10)    -33.2011         0.001796   
    464. D(C  43,H  42,H  10,H  33)     83.3207         0.001510   
    465. D(C  43,H  42,H  10,H  41)   -107.4301         0.001510   
    466. D(C  43,H  42,H  10,O  49)     32.6245         0.001510   
    467. D(C  43,H  42,H  10,O   9)   -142.6568         0.001510   
    468. D(C  48,C  43,H  42,H  10)    -55.7617         0.126573   
    469. D(N  46,C  43,H  42,H  10)     67.9947         0.126573   
    470. D(H  45,C  43,H  42,H  10)   -177.7036         0.126573   
    471. D(N  46,H  44,O   3,H  25)    -83.5598         0.001691   
    472. D(N  46,H  44,O   3,H   5)    158.5361         0.001691   
    473. D(N  46,H  44,O   3,H   4)     34.6739         0.001691   
    474. D(H  30,H  45,C  43,C  48)     62.9146         0.122699   
    475. D(H  30,H  45,C  43,N  46)    -59.5448         0.122699   
    476. D(H  30,H  45,C  43,H  42)   -174.1643         0.122699   
    477. D(C  43,H  45,H  30,H  54)    -39.0872         0.001500   
    478. D(C  43,H  45,H  30,H  53)     36.3229         0.001500   
    479. D(C  43,H  45,H  30,O  31)   -110.2772         0.001500   
    480. D(H  53,N  46,H  44,O   3)   -134.4933         0.192782   
    481. D(H  51,N  46,H  44,O   3)    110.2159         0.192782   
    482. D(C  43,N  46,H  44,O   3)    -14.1685         0.192782   
    483. D(H  51,N  46,C  43,C  48)     63.3642         0.012777   
    484. D(H  51,N  46,C  43,H  45)   -175.6291         0.012777   
    485. D(H  51,N  46,C  43,H  42)    -59.9758         0.012777   
    486. D(H  44,N  46,C  43,C  48)   -175.1798         0.012777   
    487. D(H  44,N  46,C  43,H  45)    -54.1731         0.012777   
    488. D(H  44,N  46,C  43,H  42)     61.4801         0.012777   
    489. D(C  50,C  48,C  43,N  46)    -65.2402         0.012463   
    490. D(C  50,C  48,C  43,H  45)    176.0416         0.012463   
    491. D(C  50,C  48,C  43,H  42)     55.2221         0.012463   
    492. D(H  47,C  48,C  43,N  46)    176.1998         0.012463   
    493. D(H  47,C  48,C  43,H  45)     57.4817         0.012463   
    494. D(H  47,C  48,C  43,H  42)    -63.3379         0.012463   
    495. D(H  10,O  49,H  33,O  34)    -64.6042         0.001608   
    496. D(H  29,O  49,H  33,H  10)    -86.5860         0.001608   
    497. D(H  29,O  49,H  33,O  34)   -151.1902         0.001608   
    498. D(C  50,O  49,H  33,O  34)     76.4157         0.001608   
    499. D(H  10,O  49,H  29,H  19)   -166.4923         0.001999   
    500. D(H  10,O  49,H  29,H  16)     84.1680         0.001999   
    501. D(H  10,O  49,H  29,O  28)     63.9337         0.001999   
    502. D(C  50,O  49,H  29,H  19)     44.6950         0.001999   
    503. D(C  50,O  49,H  29,H  16)    -64.6446         0.001999   
    504. D(C  50,O  49,H  29,O  28)    -84.8789         0.001999   
    505. D(H  29,O  49,H  10,H  41)     13.0786         0.002098   
    506. D(H  29,O  49,H  10,H  42)   -144.8725         0.002098   
    507. D(H  29,O  49,H  10,O   9)      7.4389         0.002098   
    508. D(C  50,O  49,H  33,H  10)    141.0199         0.001608   
    509. D(C  50,O  49,H  10,H  33)   -115.3071         0.002098   
    510. D(C  50,O  49,H  10,H  41)    147.4573         0.002098   
    511. D(C  50,O  49,H  10,H  42)    -10.4938         0.002098   
    512. D(C  50,O  49,H  10,O   9)    141.8177         0.002098   
    513. D(O  52,C  50,O  49,H  10)   -162.6918         0.077235   
    514. D(C  48,C  50,O  49,H  33)    -86.1922         0.077235   
    515. D(C  48,C  50,O  49,H  10)     18.5540         0.077235   
    516. D(C  48,C  50,O  49,H  29)    145.0776         0.077235   
    517. D(O  52,C  50,C  48,H  47)    -94.3870         0.011068   
    518. D(O  52,C  50,C  48,C  43)    146.4418         0.011068   
    519. D(O  49,C  50,C  48,H  54)   -161.0424         0.011068   
    520. D(O  52,C  50,O  49,H  29)    -36.1681         0.077235   
    521. D(O  49,C  50,C  48,H  47)     84.4408         0.011068   
    522. D(O  49,C  50,C  48,C  43)    -34.7304         0.011068   
    523. D(N  46,H  51,O  15,H   1)    -97.6711         0.001554   
    524. D(N  46,H  51,O  15,H  17)     42.7645         0.001554   
    525. D(N  46,H  51,O  15,H  16)    148.1192         0.001554   
    526. D(H  17,H  51,N  46,C  43)   -109.7440         0.209569   
    527. D(O  15,H  51,N  46,H  53)    -11.5416         0.209569   
    528. D(O  15,H  51,N  46,H  44)    104.3856         0.209569   
    529. D(O  15,H  51,N  46,C  43)   -134.3087         0.209569   
    530. D(O  15,H  51,H  17,H  13)   -149.3452         0.001514   
    531. D(O  15,H  51,H  17,O  12)   -173.6657         0.001514   
    532. D(N  46,H  51,H  17,H  13)     52.7865         0.001514   
    533. D(N  46,H  51,H  17,O  12)     28.4660         0.001514   
    534. D(N  46,H  51,H  17,O  15)   -157.8683         0.001514   
    535. D(H  17,H  51,O  15,H   1)   -140.4356         0.001554   
    536. D(H  17,H  51,N  46,H  44)    128.9503         0.209569   
    537. D(H  17,H  51,O  15,H  16)    105.3547         0.001554   
    538. D(H  20,O  52,C  50,O  49)      4.2063         0.077952   
    539. D(H  38,O  52,C  50,O  49)   -167.1399         0.077952   
    540. D(H  38,O  52,C  50,C  48)     11.6250         0.077952   
    541. D(H  13,O  52,C  50,O  49)    106.5121         0.077952   
    542. D(H  20,O  52,H  38,H  54)    168.5700         0.001772   
    543. D(H  13,O  52,H  38,H  54)     82.2361         0.001772   
    544. D(C  50,O  52,H  38,H  54)    -20.2878         0.001772   
    545. D(H  20,O  52,O  37,H  36)   -136.8222         0.001501   
    546. D(H  13,O  52,O  37,H  36)    137.3589         0.001501   
    547. D(C  50,O  52,O  37,H  36)     35.5184         0.001501   
    548. D(H  38,O  52,H  20,O  18)   -115.9460         0.001716   
    549. D(H  13,O  52,H  20,O  18)    -37.0661         0.001716   
    550. D(C  50,O  52,H  20,O  18)     72.9332         0.001716   
    551. D(H  20,O  52,H  13,H  17)     81.9083         0.001649   
    552. D(H  13,O  52,C  50,C  48)    -74.7229         0.077952   
    553. D(H  20,O  52,H  13,O  12)    108.1093         0.001649   
    554. D(H  38,O  52,H  13,H  17)   -156.5902         0.001649   
    555. D(H  38,O  52,H  13,O  12)   -130.3892         0.001649   
    556. D(H  20,O  52,C  50,C  48)   -177.0288         0.077952   
    557. D(C  50,O  52,H  13,H  17)    -39.4122         0.001649   
    558. D(C  50,O  52,H  13,O  12)    -13.2112         0.001649   
    559. D(H  30,H  53,N  46,H  51)   -152.8264         0.214915   
    560. D(H  30,H  53,N  46,H  44)     90.4181         0.214915   
    561. D(H  30,H  53,N  46,C  43)    -28.3751         0.214915   
    562. D(N  46,H  53,H  30,H  45)      1.3397         0.001501   
    563. D(N  46,H  53,H  30,H  54)     66.5091         0.001501   
    564. D(N  46,H  53,H  30,O  31)     58.6268         0.001501   
    565. D(H  30,H  54,C  48,C  43)     16.1663         0.155382   
    566. D(H  32,H  54,C  48,C  50)    178.8033         0.155382   
    567. D(H  32,H  54,C  48,H  47)    -66.7120         0.155382   
    568. D(H  32,H  54,C  48,C  43)     50.0083         0.155382   
    569. D(H  38,H  54,C  48,C  50)    -33.3179         0.155382   
    570. D(H  38,H  54,C  48,H  47)     81.1668         0.155382   
    571. D(H  38,H  54,C  48,C  43)   -162.1129         0.155382   
    572. D(H  30,H  54,H  38,O  37)     31.2075         0.001506   
    573. D(H  32,H  54,H  38,O  52)   -160.7212         0.001506   
    574. D(H  32,H  54,H  38,O  37)     15.5152         0.001506   
    575. D(C  48,H  54,H  38,O  37)   -150.4704         0.001506   
    576. D(H  30,H  54,H  32,H  36)    178.1713         0.001502   
    577. D(H  30,H  54,H  32,O  31)     34.7130         0.001502   
    578. D(H  38,H  54,H  32,H  36)    -25.5824         0.001502   
    579. D(H  38,H  54,H  32,O  31)   -169.0407         0.001502   
    580. D(C  48,H  54,H  32,H  36)    124.2014         0.001502   
    581. D(C  48,H  54,H  32,O  31)    -19.2569         0.001502   
    582. D(H  30,H  54,O  31,H  32)   -113.9888         0.001500   
    583. D(H  32,H  54,O  31,H  30)    113.9888         0.001500   
    584. D(C  48,H  54,H  38,O  52)     33.2933         0.001506   
    585. D(H  38,H  54,O  31,H  32)     11.9625         0.001500   
    586. D(H  38,H  54,O  31,H  30)    125.9514         0.001500   
    587. D(C  48,H  54,O  31,H  32)    168.0826         0.001500   
    588. D(H  30,H  54,H  38,O  52)   -145.0288         0.001506   
    589. D(C  48,H  54,O  31,H  30)    -77.9285         0.001500   
    590. D(H  32,H  54,H  30,O  31)    -34.6627         0.001500   
    591. D(H  38,H  54,H  30,H  45)   -174.6877         0.001500   
    592. D(H  38,H  54,H  30,H  53)    121.2923         0.001500   
    593. D(H  38,H  54,H  30,O  31)    -63.7878         0.001500   
    594. D(C  48,H  54,H  30,H  45)      7.2805         0.001500   
    595. D(C  48,H  54,H  30,H  53)    -56.7395         0.001500   
    596. D(C  48,H  54,H  30,O  31)    118.1805         0.001500   
    -----------------------------------------------------------------

Number of atoms                         .... 55
Number of degrees of freedom            .... 596


         *************************************************************
         *                GEOMETRY OPTIMIZATION CYCLE   1            *
         *************************************************************
---------------------------------
CARTESIAN COORDINATES (ANGSTROEM)
---------------------------------
  O      2.323362   -1.537589   -4.321255
  H      2.160029   -0.664573   -3.924461
  H      1.944356   -2.173243   -3.688405
  O     -1.286629   -2.941996   -4.144063
  H     -2.129519   -3.290492   -3.825107
  H     -1.225583   -3.207386   -5.068168
  O     -5.218099   -0.473995   -0.268288
  H     -5.135822   -0.501215   -1.236278
  H     -5.312079    0.457734   -0.060010
  O      0.504874   -1.757153   -0.200109
  H      0.151158   -0.839739   -0.244846
  H     -0.037214   -2.222407    0.449514
  O      0.286838    3.235363   -3.561032
  H     -0.075818    3.357492   -2.660862
  H      0.783565    4.037886   -3.775185
  O      1.809007    0.959145   -3.135289
  H      2.132273    1.079978   -2.217902
  H      1.311035    1.775965   -3.353853
  O      1.654532    3.933416    0.254527
  H      2.264693    3.186155    0.135881
  H      0.794448    3.621068   -0.087625
  O     -3.133089   -1.631457    1.141042
  H     -2.655359   -2.225434    0.559174
  H     -3.828692   -1.231833    0.590684
  O      1.022988   -3.278275   -2.507315
  H      0.228468   -3.290787   -3.070841
  H      0.778480   -2.741926   -1.728700
  H      2.890412    0.460297   -0.111035
  O      2.504559    1.296212   -0.452755
  H      1.542454    1.214450   -0.265699
  H     -3.562792    1.410433   -4.804706
  O     -4.324454    1.870140   -4.429077
  H     -3.969541    2.725130   -4.152214
  H     -0.829184    0.519455    1.538009
  O     -1.323979    0.190906    2.305557
  H     -1.975336   -0.430811    1.923863
  H     -3.594208    4.315505   -1.629494
  O     -2.715733    4.670448   -1.873709
  H     -2.062438    4.056221   -1.517237
  H      3.397494   -1.371903    1.302981
  O      3.204134   -1.271283    0.363887
  H      2.276814   -1.570195    0.251338
  H     -1.679975   -0.937528   -1.554663
  C     -1.997395   -0.186170   -2.270768
  H     -0.986583   -1.119741   -3.825184
  H     -2.938793   -0.508729   -2.712778
  N     -0.986922   -0.187147   -3.379583
  H     -2.954363    1.097226   -0.886092
  C     -2.156589    1.175820   -1.629019
  O     -0.194920    0.879826   -0.283600
  C     -0.934173    1.701442   -0.891251
  H     -0.026469    0.035534   -3.068025
  O     -0.730896    2.945028   -0.904835
  H     -1.228874    0.499048   -4.096961
  H     -2.484811    1.916462   -2.355334

----------------------------
CARTESIAN COORDINATES (A.U.)
----------------------------
  NO LB      ZA    FRAG     MASS         X           Y           Z
   0 O     8.0000    0    15.999    4.390517   -2.905622   -8.165988
   1 H     1.0000    0     1.008    4.081863   -1.255861   -7.416156
   2 H     1.0000    0     1.008    3.674301   -4.106834   -6.970076
   3 O     8.0000    0    15.999   -2.431377   -5.559566   -7.831144
   4 H     1.0000    0     1.008   -4.024207   -6.218129   -7.228405
   5 H     1.0000    0     1.008   -2.316017   -6.061080   -9.577450
   6 O     8.0000    0    15.999   -9.860778   -0.895720   -0.506991
   7 H     1.0000    0     1.008   -9.705298   -0.947160   -2.336228
   8 H     1.0000    0     1.008  -10.038374    0.864992   -0.113402
   9 O     8.0000    0    15.999    0.954073   -3.320537   -0.378152
  10 H     1.0000    0     1.008    0.285648   -1.586876   -0.462693
  11 H     1.0000    0     1.008   -0.070325   -4.199741    0.849459
  12 O     8.0000    0    15.999    0.542046    6.113951   -6.729374
  13 H     1.0000    0     1.008   -0.143275    6.344740   -5.028301
  14 H     1.0000    0     1.008    1.480723    7.630498   -7.134066
  15 O     8.0000    0    15.999    3.418528    1.812522   -5.924838
  16 H     1.0000    0     1.008    4.029412    2.040862   -4.191228
  17 H     1.0000    0     1.008    2.477496    3.356088   -6.337863
  18 O     8.0000    0    15.999    3.126613    7.433079    0.480986
  19 H     1.0000    0     1.008    4.279650    6.020961    0.256779
  20 H     1.0000    0     1.008    1.501290    6.842826   -0.165588
  21 O     8.0000    0    15.999   -5.920679   -3.083007    2.156258
  22 H     1.0000    0     1.008   -5.017902   -4.205461    1.056685
  23 H     1.0000    0     1.008   -7.235179   -2.327826    1.116230
  24 O     8.0000    0    15.999    1.933167   -6.195042   -4.738138
  25 H     1.0000    0     1.008    0.431741   -6.218686   -5.803049
  26 H     1.0000    0     1.008    1.471115   -5.181489   -3.266769
  27 H     1.0000    0     1.008    5.462087    0.869835   -0.209825
  28 O     8.0000    0    15.999    4.732931    2.449485   -0.855583
  29 H     1.0000    0     1.008    2.914815    2.294977   -0.502098
  30 H     1.0000    0     1.008   -6.732701    2.665332   -9.079579
  31 O     8.0000    0    15.999   -8.172034    3.534053   -8.369743
  32 H     1.0000    0     1.008   -7.501346    5.149749   -7.846547
  33 H     1.0000    0     1.008   -1.566930    0.981628    2.906415
  34 O     8.0000    0    15.999   -2.501958    0.360759    4.356872
  35 H     1.0000    0     1.008   -3.732845   -0.814114    3.635575
  36 H     1.0000    0     1.008   -6.792069    8.155122   -3.079298
  37 O     8.0000    0    15.999   -5.131991    8.825867   -3.540797
  38 H     1.0000    0     1.008   -3.897442    7.665147   -2.867162
  39 H     1.0000    0     1.008    6.420334   -2.592520    2.462277
  40 O     8.0000    0    15.999    6.054936   -2.402377    0.687647
  41 H     1.0000    0     1.008    4.302555   -2.967238    0.474960
  42 H     1.0000    0     1.008   -3.174692   -1.771671   -2.937887
  43 C     6.0000    0    12.011   -3.774529   -0.351810   -4.291130
  44 H     1.0000    0     1.008   -1.864371   -2.116003   -7.228550
  45 H     1.0000    0     1.008   -5.553514   -0.961359   -5.126408
  46 N     7.0000    0    14.007   -1.865013   -0.353657   -6.386487
  47 H     1.0000    0     1.008   -5.582936    2.073457   -1.674472
  48 C     6.0000    0    12.011   -4.075363    2.221979   -3.078400
  49 O     8.0000    0    15.999   -0.368345    1.662630   -0.535926
  50 C     6.0000    0    12.011   -1.765331    3.215259   -1.684221
  51 H     1.0000    0     1.008   -0.050019    0.067149   -5.797728
  52 O     8.0000    0    15.999   -1.381194    5.565297   -1.709890
  53 H     1.0000    0     1.008   -2.322236    0.943064   -7.742134
  54 H     1.0000    0     1.008   -4.695613    3.621588   -4.450937

--------------------------------
INTERNAL COORDINATES (ANGSTROEM)
--------------------------------
 O      0   0   0     0.000000000000     0.00000000     0.00000000
 H      1   0   0     0.972769103002     0.00000000     0.00000000
 H      1   2   0     0.973755669768   104.79704312     0.00000000
 O      3   1   2     3.352293560002   115.88049256    89.20567362
 H      4   3   1     0.966252884344   151.47419833   199.10566252
 H      4   3   1     0.963394596231    97.61294399    53.84946881
 O      5   4   3     5.488437907085   121.31434359    72.89098214
 H      7   5   4     0.971862098988    44.96899061    87.64373508
 H      7   5   4     0.959338635073   133.96551590    25.72203433
 O      3   1   2     3.796504718307   132.31280043   352.43634244
 H     10   3   1     0.984258385545   101.34125386    29.58716556
 H     10   3   1     0.965573493793   141.09826327   164.01078226
 O      2   1   3     4.341707970081   155.88439015   250.64322952
 H     13   2   1     0.978130845378   110.43547079   127.11345994
 H     13   2   1     0.967801886022   120.32386238   252.35070593
 O      2   1   3     1.839149327207   178.02418549   344.24501058
 H     16   2   1     0.980152948460   116.58395508    70.67874964
 H     16   2   1     0.981295659064   137.40608548   255.97763748
 O     14  13   2     3.438792374459   127.92064748    73.47406764
 H     19  14  13     0.971993861885    94.79718370   308.78998652
 H     19  14  13     0.976920643358    37.48796963   199.75925462
 O      7   5   4     2.770054059801    72.04394235   282.63134168
 H     22   7   5     0.958960619622   108.97035998   352.15376032
 H     22   7   5     0.972861074624     3.93397526    20.79674684
 O      3   1   2     1.861448451499   172.99726880    57.89440813
 H     25   3   1     0.974156704566    92.53791542    39.43145910
 H     25   3   1     0.976573316727   107.68442901   292.47963719
 H     17  16   2     2.323288762566   157.44593898   339.80691123
 O     28  17  16     0.982043305285    47.87072497   198.87239086
 H     29  28  17     0.983525321993   104.32427616    93.30247433
 H      8   7   5     4.343097863884   146.79254503   257.83808493
 O     31   8   7     0.965689744470    66.68852111   285.73836119
 H     32  31   8     0.966242137142   104.06230102   115.48020771
 H     11  10   3     2.446844900573   128.94908472   185.77135372
 O     34  11  10     0.970514313332   126.33239315   329.66072018
 H     35  34  11     0.978002136373   104.24652545   311.40921207
 H     33  32  31     3.005707788551   138.98661637   242.23724382
 O     37  33  32     0.978439507757    95.42671711   141.02754502
 H     38  37  33     0.964956383237   106.54298898   268.14635875
 H     28  17  16     2.369288282234   144.81724646   358.94916553
 O     40  28  17     0.964058925024    45.17102313    11.49153737
 H     41  40  28     0.980784432595   105.64101179   256.88976859
 H     11  10   3     2.253492615475   106.14020493    72.36177127
 C     43  11  10     1.085403728817   126.23304989   217.34322741
 H      4   3   1     1.874119796795    66.39625334   299.95672314
 H     44  43  11     1.088874708077   108.39646405   182.29636526
 N     45   4   3     1.033581412250   161.92022699   246.04984516
 H     44  43  11     2.116653095878    96.91185271   277.91745163
 C     48  44  43     1.092959081454    43.02309174   123.39007120
 O     11  10   3     1.754472738469   170.20849070   281.02035069
 C     50  11  10     1.261264652190   139.88191876   141.81768166
 H     47  45   4     1.033985738167   108.90011449   110.21594119
 O     51  50  11     1.260163949586   123.60740194   197.30820398
 H     47  45   4     1.021780375606   107.65856762   225.50671699
 H     49  48  44     1.088031560837   106.41051486   119.16679724

---------------------------
INTERNAL COORDINATES (A.U.)
---------------------------
 O      0   0   0     0.000000000000     0.00000000     0.00000000
 H      1   0   0     1.838267196213     0.00000000     0.00000000
 H      1   2   0     1.840131537214   104.79704312     0.00000000
 O      3   1   2     6.334916748912   115.88049256    89.20567362
 H      4   3   1     1.825953327522   151.47419833   199.10566252
 H      4   3   1     1.820551945775    97.61294399    53.84946881
 O      5   4   3    10.371644547423   121.31434359    72.89098214
 H      7   5   4     1.836553207025    44.96899061    87.64373508
 H      7   5   4     1.812887289977   133.96551590    25.72203433
 O      3   1   2     7.174354183740   132.31280043   352.43634244
 H     10   3   1     1.859978793695   101.34125386    29.58716556
 H     10   3   1     1.824669465443   141.09826327   164.01078226
 O      2   1   3     8.204639016916   155.88439015   250.64322952
 H     13   2   1     1.848399420906   110.43547079   127.11345994
 H     13   2   1     1.828880516475   120.32386238   252.35070593
 O      2   1   3     3.475488547807   178.02418549   344.24501058
 H     16   2   1     1.852220641945   116.58395508    70.67874964
 H     16   2   1     1.854380052037   137.40608548   255.97763748
 O     14  13   2     6.498375819145   127.92064748    73.47406764
 H     19  14  13     1.836802202815    94.79718370   308.78998652
 H     19  14  13     1.846112470521    37.48796963   199.75925462
 O      7   5   4     5.234643549181    72.04394235   282.63134168
 H     22   7   5     1.812172944300   108.97035998   352.15376032
 H     22   7   5     1.838440997391     3.93397526    20.79674684
 O      3   1   2     3.517627785746   172.99726880    57.89440813
 H     25   3   1     1.840889383153    92.53791542    39.43145910
 H     25   3   1     1.845456118310   107.68442901   292.47963719
 H     17  16   2     4.390379491266   157.44593898   339.80691123
 O     28  17  16     1.855792898639    47.87072497   198.87239086
 H     29  28  17     1.858593504343   104.32427616    93.30247433
 H      8   7   5     8.207265535558   146.79254503   257.83808493
 O     31   8   7     1.824889147385    66.68852111   285.73836119
 H     32  31   8     1.825933018254   104.06230102   115.48020771
 H     11  10   3     4.623866754265   128.94908472   185.77135372
 O     34  11  10     1.834006261248   126.33239315   329.66072018
 H     35  34  11     1.848156196135   104.24652545   311.40921207
 H     33  32  31     5.679964558956   138.98661637   242.23724382
 O     37  33  32     1.848982708270    95.42671711   141.02754502
 H     38  37  33     1.823503295497   106.54298898   268.14635875
 H     28  17  16     4.477305985730   144.81724646   358.94916553
 O     40  28  17     1.821807345259    45.17102313    11.49153737
 H     41  40  28     1.853413974017   105.64101179   256.88976859
 H     11  10   3     4.258483888062   106.14020493    72.36177127
 C     43  11  10     2.051115792202   126.23304989   217.34322741
 H      4   3   1     3.541573158102    66.39625334   299.95672314
 H     44  43  11     2.057674992419   108.39646405   182.29636526
 N     45   4   3     1.953185806265   161.92022699   246.04984516
 H     44  43  11     3.999894671725    96.91185271   277.91745163
 C     48  44  43     2.065393339530    43.02309174   123.39007120
 O     11  10   3     3.315472985137   170.20849070   281.02035069
 C     50  11  10     2.383444775035   139.88191876   141.81768166
 H     47  45   4     1.953949871515   108.90011449   110.21594119
 O     51  50  11     2.381364748559   123.60740194   197.30820398
 H     47  45   4     1.930885078911   107.65856762   225.50671699
 H     49  48  44     2.056081675045   106.41051486   119.16679724

---------------------
BASIS SET INFORMATION
---------------------
There are 4 groups of distinct atoms

 Group   1 Type O   : 11s6p2d1f contracted to 5s3p2d1f pattern {62111/411/11/1}
 Group   2 Type H   : 5s1p contracted to 3s1p pattern {311/1}
 Group   3 Type C   : 11s6p2d1f contracted to 5s3p2d1f pattern {62111/411/11/1}
 Group   4 Type N   : 11s6p2d1f contracted to 5s3p2d1f pattern {62111/411/11/1}

Atom   0O    basis set group =>   1
Atom   1H    basis set group =>   2
Atom   2H    basis set group =>   2
Atom   3O    basis set group =>   1
Atom   4H    basis set group =>   2
Atom   5H    basis set group =>   2
Atom   6O    basis set group =>   1
Atom   7H    basis set group =>   2
Atom   8H    basis set group =>   2
Atom   9O    basis set group =>   1
Atom  10H    basis set group =>   2
Atom  11H    basis set group =>   2
Atom  12O    basis set group =>   1
Atom  13H    basis set group =>   2
Atom  14H    basis set group =>   2
Atom  15O    basis set group =>   1
Atom  16H    basis set group =>   2
Atom  17H    basis set group =>   2
Atom  18O    basis set group =>   1
Atom  19H    basis set group =>   2
Atom  20H    basis set group =>   2
Atom  21O    basis set group =>   1
Atom  22H    basis set group =>   2
Atom  23H    basis set group =>   2
Atom  24O    basis set group =>   1
Atom  25H    basis set group =>   2
Atom  26H    basis set group =>   2
Atom  27H    basis set group =>   2
Atom  28O    basis set group =>   1
Atom  29H    basis set group =>   2
Atom  30H    basis set group =>   2
Atom  31O    basis set group =>   1
Atom  32H    basis set group =>   2
Atom  33H    basis set group =>   2
Atom  34O    basis set group =>   1
Atom  35H    basis set group =>   2
Atom  36H    basis set group =>   2
Atom  37O    basis set group =>   1
Atom  38H    basis set group =>   2
Atom  39H    basis set group =>   2
Atom  40O    basis set group =>   1
Atom  41H    basis set group =>   2
Atom  42H    basis set group =>   2
Atom  43C    basis set group =>   3
Atom  44H    basis set group =>   2
Atom  45H    basis set group =>   2
Atom  46N    basis set group =>   4
Atom  47H    basis set group =>   2
Atom  48C    basis set group =>   3
Atom  49O    basis set group =>   1
Atom  50C    basis set group =>   3
Atom  51H    basis set group =>   2
Atom  52O    basis set group =>   1
Atom  53H    basis set group =>   2
Atom  54H    basis set group =>   2
---------------------------------
AUXILIARY/J BASIS SET INFORMATION
---------------------------------
There are 4 groups of distinct atoms

 Group   1 Type O   : 12s5p4d2f1g contracted to 6s4p3d1f1g pattern {711111/2111/211/2/1}
 Group   2 Type H   : 5s2p1d contracted to 3s1p1d pattern {311/2/1}
 Group   3 Type C   : 12s5p4d2f1g contracted to 6s4p3d1f1g pattern {711111/2111/211/2/1}
 Group   4 Type N   : 12s5p4d2f1g contracted to 6s4p3d1f1g pattern {711111/2111/211/2/1}

Atom   0O    basis set group =>   1
Atom   1H    basis set group =>   2
Atom   2H    basis set group =>   2
Atom   3O    basis set group =>   1
Atom   4H    basis set group =>   2
Atom   5H    basis set group =>   2
Atom   6O    basis set group =>   1
Atom   7H    basis set group =>   2
Atom   8H    basis set group =>   2
Atom   9O    basis set group =>   1
Atom  10H    basis set group =>   2
Atom  11H    basis set group =>   2
Atom  12O    basis set group =>   1
Atom  13H    basis set group =>   2
Atom  14H    basis set group =>   2
Atom  15O    basis set group =>   1
Atom  16H    basis set group =>   2
Atom  17H    basis set group =>   2
Atom  18O    basis set group =>   1
Atom  19H    basis set group =>   2
Atom  20H    basis set group =>   2
Atom  21O    basis set group =>   1
Atom  22H    basis set group =>   2
Atom  23H    basis set group =>   2
Atom  24O    basis set group =>   1
Atom  25H    basis set group =>   2
Atom  26H    basis set group =>   2
Atom  27H    basis set group =>   2
Atom  28O    basis set group =>   1
Atom  29H    basis set group =>   2
Atom  30H    basis set group =>   2
Atom  31O    basis set group =>   1
Atom  32H    basis set group =>   2
Atom  33H    basis set group =>   2
Atom  34O    basis set group =>   1
Atom  35H    basis set group =>   2
Atom  36H    basis set group =>   2
Atom  37O    basis set group =>   1
Atom  38H    basis set group =>   2
Atom  39H    basis set group =>   2
Atom  40O    basis set group =>   1
Atom  41H    basis set group =>   2
Atom  42H    basis set group =>   2
Atom  43C    basis set group =>   3
Atom  44H    basis set group =>   2
Atom  45H    basis set group =>   2
Atom  46N    basis set group =>   4
Atom  47H    basis set group =>   2
Atom  48C    basis set group =>   3
Atom  49O    basis set group =>   1
Atom  50C    basis set group =>   3
Atom  51H    basis set group =>   2
Atom  52O    basis set group =>   1
Atom  53H    basis set group =>   2
Atom  54H    basis set group =>   2
--------------------------------------------------------------------------
WARNING: There was an error initializing an OpenFabrics device.

  Local host:   ga00
  Local device: mlx5_0
--------------------------------------------------------------------------


           ************************************************************
           *        Program running with 15 parallel MPI-processes    *
[...]
INTERNAL COORDINATES (ANGSTROEM)
--------------------------------
 O      0   0   0     0.000000000000     0.00000000     0.00000000
 H      1   0   0     0.973687104057     0.00000000     0.00000000
 H      1   2   0     0.977137891099   104.41131256     0.00000000
 O      3   1   2     3.387562144540   116.34504549    80.62917182
 H      4   3   1     0.966799056774   153.34469583   184.15985121
 H      4   3   1     0.966778026228    93.19300386    48.15272976
 O      5   4   3     5.840755756938   113.39933544    85.32828491
 H      7   5   4     0.966871293850    53.16499575    78.35674135
 H      7   5   4     0.966741755966   135.51301336     6.43268211
 O      3   1   2     3.831615489595   135.25834706   338.17443268
 H     10   3   1     0.985571294611   101.88432712    31.69440443
 H     10   3   1     0.965948023075   143.22470822   169.19477057
 O      2   1   3     4.471446520701   168.91465829   245.19405096
 H     13   2   1     0.976118872051   100.55779138   132.78990740
 H     13   2   1     0.965161285096   116.60143231   246.78385157
 O      2   1   3     1.878264430499   168.87619689    14.39351832
 H     16   2   1     0.985164926985   107.20638063    56.47813432
 H     16   2   1     0.980985481052   136.85034085   194.75914054
 O     14  13   2     3.087828897195   120.06481748    85.87629240
 H     19  14  13     0.970083364203    96.32413708   288.48209969
 H     19  14  13     0.977385957904    40.66548045   186.21877738
 O      7   5   4     2.796717204751    63.72330074   272.69059613
 H     22   7   5     0.964690345986   108.56282909   351.63005704
 H     22   7   5     0.981027943320     3.20741965    19.87612057
 O      3   1   2     1.872145705445   173.85131561    63.62140177
 H     25   3   1     0.973193818553    93.39076480    22.35892706
 H     25   3   1     0.976838886149   108.67819285   273.66858432
 H     17  16   2     2.333638955704   158.46019085   319.87382599
 O     28  17  16     0.981263422676    45.24783821   205.99483206
 H     29  28  17     0.982927776492   104.78809199    96.57932429
 H      8   7   5     3.629273258145   155.31110307   261.89889548
 O     31   8   7     0.965146975271    61.45104237   281.79913978
 H     32  31   8     0.966086966204   104.38717037   119.70207765
 H     11  10   3     2.386863567447   128.55103796   169.07509031
 O     34  11  10     0.970616364251   129.80903458   340.50293877
 H     35  34  11     0.978395274826   104.83882165   302.99738499
 H     33  32  31     2.733184900178   137.76235227   239.39237571
 O     37  33  32     0.964316599413    91.24379729   147.20114057
 H     38  37  33     0.979364645873   105.33535269   263.56159190
 H     28  17  16     2.377566048713   148.06446747     3.05036460
 O     40  28  17     0.965396372591    45.43631789    15.92932965
 H     41  40  28     0.980117932378   105.31895492   258.59121853
 H     11  10   3     2.204488394537   101.80011983    71.25577125
 C     43  11  10     1.085920696144   130.43805482   208.20172750
 H      4   3   1     1.847194094823    70.35700177   292.48353085
 H     44  43  11     1.088161097256   108.54472712   193.28735606
 N     45   4   3     1.033998120304   166.58051297   248.08876585
 H     44  43  11     2.119608457282    98.58438423   288.07761313
 C     48  44  43     1.092869567380    42.93984316   121.03205212
 O     11  10   3     1.759367136646   172.53485518   281.92684893
 C     50  11  10     1.263357825869   135.86924759   136.12457454
 H     47  45   4     1.042464331987   108.50413520   117.41528136
 O     51  50  11     1.260668240207   124.12389340   207.10646981
 H     47  45  52     1.019728715019   107.82732117   115.38720809
 H     49  48  44     1.088420530930   106.91817883   118.88948893

---------------------------
INTERNAL COORDINATES (A.U.)
---------------------------
 O      0   0   0     0.000000000000     0.00000000     0.00000000
 H      1   0   0     1.840001966799     0.00000000     0.00000000
 H      1   2   0     1.846523009254   104.41131256     0.00000000
 O      3   1   2     6.401564714820   116.34504549    80.62917182
 H      4   3   1     1.826985443836   153.34469583   184.15985121
 H      4   3   1     1.826945701864    93.19300386    48.15272976
 O      5   4   3    11.037428795737   113.39933544    85.32828491
 H      7   5   4     1.827121952126    53.16499575    78.35674135
 H      7   5   4     1.826877161002   135.51301336     6.43268211
 O      3   1   2     7.240703925825   135.25834706   338.17443268
 H     10   3   1     1.862459832268   101.88432712    31.69440443
 H     10   3   1     1.825377223214   143.22470822   169.19477057
 O      2   1   3     8.449809346600   168.91465829   245.19405096
 H     13   2   1     1.844597342329   100.55779138   132.78990740
 H     13   2   1     1.823890503895   116.60143231   246.78385157
 O      2   1   3     3.549405380728   168.87619689    14.39351832
 H     16   2   1     1.861691908745   107.20638063    56.47813432
 H     16   2   1     1.853793900542   136.85034085   194.75914054
 O     14  13   2     5.835150964106   120.06481748    85.87629240
 H     19  14  13     1.833191885417    96.32413708   288.48209969
 H     19  14  13     1.846991787578    40.66548045   186.21877738
 O      7   5   4     5.285029591005    63.72330074   272.69059613
 H     22   7   5     1.823000557950   108.56282909   351.63005704
 H     22   7   5     1.853874142598     3.20741965    19.87612057
 O      3   1   2     3.537842666088   173.85131561    63.62140177
 H     25   3   1     1.839069792290    93.39076480    22.35892706
 H     25   3   1     1.845957971786   108.67819285   273.66858432
 H     17  16   2     4.409938521730   158.46019085   319.87382599
 O     28  17  16     1.854319134092    45.24783821   205.99483206
 H     29  28  17     1.857464306995   104.78809199    96.57932429
 H      8   7   5     6.858332523057   155.31110307   261.89889548
 O     31   8   7     1.823863462244    61.45104237   281.79913978
 H     32  31   8     1.825639787676   104.38717037   119.70207765
 H     11  10   3     4.510518461509   128.55103796   169.07509031
 O     34  11  10     1.834199109537   129.80903458   340.50293877
 H     35  34  11     1.848899120145   104.83882165   302.99738499
 H     33  32  31     5.164970934705   137.76235227   239.39237571
 O     37  33  32     1.822294279285    91.24379729   147.20114057
 H     38  37  33     1.850730965944   105.33535269   263.56159190
 H     28  17  16     4.492948697376   148.06446747     3.05036460
 O     40  28  17     1.824334754878    45.43631789    15.92932965
 H     41  40  28     1.852154471139   105.31895492   258.59121853
 H     11  10   3     4.165879331083   101.80011983    71.25577125
 C     43  11  10     2.052092718870   130.43805482   208.20172750
 H      4   3   1     3.490690955411    70.35700177   292.48353085
 H     44  43  11     2.056326463401   108.54472712   193.28735606
 N     45   4   3     1.953973270364   166.58051297   248.08876585
 H     44  43  11     4.005479495406    98.58438423   288.07761313
 C     48  44  43     2.065224182446    42.93984316   121.03205212
 O     11  10   3     3.324722057282   172.53485518   281.92684893
 C     50  11  10     2.387400300038   135.86924759   136.12457454
 H     47  45   4     1.969972091836   108.50413520   117.41528136
 O     51  50  11     2.382317719723   124.12389340   207.10646981
 H     47  45  52     1.927008002281   107.82732117   115.38720809
 H     49  48  44     2.056816721994   106.91817883   118.88948893

--------------------------------------------------------------------------
WARNING: There was an error initializing an OpenFabrics device.

  Local host:   ga00
  Local device: mlx5_0
--------------------------------------------------------------------------


           ************************************************************
           *        Program running with 15 parallel MPI-processes    *
           *              working on a common directory               *
           ************************************************************
------------------------------------------------------------------------------
                   ___                                                        
                  /   \      - P O W E R E D   B Y -                         
                 /     \                                                     
                 |  |  |   _    _      __       _____    __    __             
                 |  |  |  | |  | |    /  \     |  _  \  |  |  /  |          
                  \  \/   | |  | |   /    \    | | | |  |  | /  /          
                 / \  \   | |__| |  /  /\  \   | |_| |  |  |/  /          
                |  |  |   |  __  | /  /__\  \  |    /   |      \           
                |  |  |   | |  | | |   __   |  |    \   |  |\   \          
                \     /   | |  | | |  |  |  |  | |\  \  |  | \   \       
                 \___/    |_|  |_| |__|  |__|  |_| \__\ |__|  \__/        
                                                                              
                      - O R C A' S   B I G   F R I E N D -                    
                                      &                                       
                       - I N T E G R A L  F E E D E R -                       
                                                                              
 v1 FN, 2020, v2 2021, v3 2022-2024                                           
------------------------------------------------------------------------------


----------------------
SHARK INTEGRAL PACKAGE
----------------------

Number of atoms                             ...     55
Number of basis functions                   ...    830
Number of shells                            ...    360
Maximum angular momentum                    ...      3
Integral batch strategy                     ... SHARK/LIBINT Hybrid
RI-J (if used) integral strategy            ... SPLIT-RIJ (Revised 2003 algorithm where possible)
Printlevel                                  ...      1
Contraction scheme used                     ... SEGMENTED contraction
Prescreening option                         ... SCHWARTZ
   Thresh                                   ... 2.500e-11
   Tcut                                     ... 2.500e-12
   Tpresel                                  ... 2.500e-12 
Coulomb Range Separation                    ... NOT USED
Exchange Range Separation                   ... NOT USED
Multipole approximations                    ... NOT USED
Finite Nucleus Model                        ... NOT USED
CABS basis                                  ... NOT available
Auxiliary Coulomb fitting basis             ... AVAILABLE
   # of basis functions in Aux-J            ...   1365
   # of shells in Aux-J                     ...    475
   Maximum angular momentum in Aux-J        ...      4
Auxiliary J/K fitting basis                 ... NOT available
Auxiliary Correlation fitting basis         ... NOT available
Auxiliary 'external' fitting basis          ... NOT available

Checking pre-screening integrals            ... done (  0.0 sec) Dimension = 360
Check shell pair data                       ... done (  0.0 sec)
Shell pair information
Shell pair cut-off parameter TPreSel        ...   2.5e-12
Total number of shell pairs                 ...     64980
Shell pairs after pre-screening             ...     40560
Total number of primitive shell pairs       ...    186900
Primitive shell pairs kept                  ...     74755
          la=0 lb=0:  13962 shell pairs
          la=1 lb=0:  12646 shell pairs
          la=1 lb=1:   2997 shell pairs
          la=2 lb=0:   4711 shell pairs
          la=2 lb=1:   2171 shell pairs
          la=2 lb=2:    388 shell pairs
          la=3 lb=0:   2233 shell pairs
          la=3 lb=1:   1013 shell pairs
          la=3 lb=2:    351 shell pairs
          la=3 lb=3:     88 shell pairs

Calculating one electron integrals          ... done (  0.1 sec)
Calculating RI/J V-Matrix + Cholesky decomp.... done (  0.1 sec)
Calculating Nuclear repulsion               ... done (  0.0 sec) ENN=   2154.389100620137 Eh

Diagonalization of the overlap matrix:
Smallest eigenvalue                        ... 1.341e-04
Time for diagonalization                   ...    0.098 sec
Threshold for overlap eigenvalues          ... 1.000e-07
Number of eigenvalues below threshold      ... 0
Time for construction of square roots      ...    0.045 sec
Total time needed                          ...    0.149 sec

-------------------
DFT GRID GENERATION
-------------------

General Integration Accuracy     IntAcc      ... 4.388
Radial Grid Type                 RadialGrid  ... OptM3 with GC (2021)
Angular Grid (max. ang.)         AngularGrid ... 4 (Lebedev-302)
Angular grid pruning method      GridPruning ... 4 (adaptive)
Weight generation scheme         WeightScheme... mBecke (2022)
Basis function cutoff            BFCut       ... 1.0000e-11
Integration weight cutoff        WCut        ... 1.0000e-14
Partially contracted basis set               ... off
Rotationally invariant grid construction     ... off
Angular grids for H and He will be reduced by one unit

Total number of grid points                  ...   232218
Total number of batches                      ...     3657
Average number of points per batch           ...       63
Average number of grid points per atom       ...     4222

--------------------
COSX GRID GENERATION
--------------------

GRIDX 1
-------
General Integration Accuracy     IntAcc      ... 3.816
Radial Grid Type                 RadialGrid  ... OptM3 with GC (2021)
Angular Grid (max. ang.)         AngularGrid ... 1 (Lebedev-50)
Angular grid pruning method      GridPruning ... 4 (adaptive)
Weight generation scheme         WeightScheme... mBecke (2022)
Basis function cutoff            BFCut       ... 1.0000e-11
Integration weight cutoff        WCut        ... 1.0000e-14
Partially contracted basis set               ... on
Rotationally invariant grid construction     ... off
Angular grids for H and He will be reduced by one unit

Total number of grid points                  ...    29544
Total number of batches                      ...      254
Average number of points per batch           ...      116
Average number of grid points per atom       ...      537
UseSFitting                                  ... on

GRIDX 2
-------
General Integration Accuracy     IntAcc      ... 4.020
Radial Grid Type                 RadialGrid  ... OptM3 with GC (2021)
Angular Grid (max. ang.)         AngularGrid ... 2 (Lebedev-110)
Angular grid pruning method      GridPruning ... 4 (adaptive)
Weight generation scheme         WeightScheme... mBecke (2022)
Basis function cutoff            BFCut       ... 1.0000e-11
Integration weight cutoff        WCut        ... 1.0000e-14
Partially contracted basis set               ... on
Rotationally invariant grid construction     ... off
Angular grids for H and He will be reduced by one unit

Total number of grid points                  ...    61284
Total number of batches                      ...      505
Average number of points per batch           ...      121
Average number of grid points per atom       ...     1114
UseSFitting                                  ... on

GRIDX 3
-------
General Integration Accuracy     IntAcc      ... 4.338
Radial Grid Type                 RadialGrid  ... OptM3 with GC (2021)
Angular Grid (max. ang.)         AngularGrid ... 3 (Lebedev-194)
Angular grid pruning method      GridPruning ... 4 (adaptive)
Weight generation scheme         WeightScheme... mBecke (2022)
Basis function cutoff            BFCut       ... 1.0000e-11
Integration weight cutoff        WCut        ... 1.0000e-14
Partially contracted basis set               ... on
Rotationally invariant grid construction     ... off
Angular grids for H and He will be reduced by one unit

Total number of grid points                  ...   132658
Total number of batches                      ...     1064
Average number of points per batch           ...      124
Average number of grid points per atom       ...     2412
UseSFitting                                  ... on
Initializing property integral containers    ... done (  0.0 sec)

SHARK setup successfully completed in   2.9 seconds

Maximum memory used throughout the entire STARTUP-calculation: 97.2 MB
[ga00:1092315] 14 more processes have sent help message help-mpi-btl-openib.txt / error in device init
[ga00:1092315] Set MCA parameter "orte_base_help_aggregate" to 0 to see all help / error messages
--------------------------------------------------------------------------
WARNING: There was an error initializing an OpenFabrics device.

  Local host:   ga00
  Local device: mlx5_0
--------------------------------------------------------------------------


           ************************************************************
           *        Program running with 15 parallel MPI-processes    *
           *              working on a common directory               *
           ************************************************************
Occupation numbers will be reassigned to an Aufbau configuration
             **** ENERGY FILE WAS UPDATED (01_Alanine_zwitterion.en.tmp) ****
Finished Guess after   0.9 sec
Maximum memory used throughout the entire GUESS-calculation: 81.8 MB
[ga00:1092632] 14 more processes have sent help message help-mpi-btl-openib.txt / error in device init
[ga00:1092632] Set MCA parameter "orte_base_help_aggregate" to 0 to see all help / error messages
--------------------------------------------------------------------------
WARNING: There was an error initializing an OpenFabrics device.

  Local host:   ga00
  Local device: mlx5_0
--------------------------------------------------------------------------


           ************************************************************
           *        Program running with 15 parallel MPI-processes    *
           *              working on a common directory               *
           ************************************************************
--------------------
CPCM SOLVATION MODEL
--------------------
CPCM parameters:
  Epsilon                                         ...      80.1510
  Refrac                                          ...       1.3328
  Rsolv                                           ...       1.3000
  Surface type                                    ... GAUSSIAN VDW
  Discretization scheme                           ... Constant charge density
    Threshold for H atoms                         ...       5.0000 (charges/Ang^2)
    Threshold for non-H atoms                     ...       5.0000 (charges/Ang^2)
  Epsilon function type                           ...         CPCM
Solvent:                                          ... WATER
Radii:
  Scheme                                          ... Element-dependent radii
  Radius for O  used is    3.4469 Bohr (=   1.8240 Ang.)
  Radius for H  used is    2.4944 Bohr (=   1.3200 Ang.)
  Radius for C  used is    3.8550 Bohr (=   2.0400 Ang.)
  Radius for N  used is    3.5149 Bohr (=   1.8600 Ang.)
Calculating surface                               ...        done! (  0.0s)
Cavity surface points                             ...         4563
Cavity Volume                                     ...    3018.8184
Cavity Surface-area                               ...    1831.4593
Calculating surface distance matrix               ...        done! (  0.1s)
Performing Cholesky decomposition & store         ...        done! (  0.5s)
Overall time for CPCM initialization              ...                 0.6s

----------------------------------------D-I-I-S--------------------------------------------
Iteration    Energy (Eh)           Delta-E    RMSDP     MaxDP     DIISErr   Damp  Time(sec)
-------------------------------------------------------------------------------------------
               ***  Starting incremental Fock matrix formation  ***
