37
 energy: -59.765620547056 gnorm: 0.180384120270 xtb: 6.7.1 (edcfbbe)
N           -0.44376700000000       -0.47181200000000        1.74520500000000
C            0.69351000000000        0.10436000000000        1.02689900000000
C            0.25232500000000        0.99958500000000       -0.14624500000000
C           -0.57382300000000        0.30680200000000       -1.24485700000000
C            0.17276200000000       -0.78812900000000       -1.95771100000000
O            0.40822200000000       -0.68794500000000       -3.15102700000000
O            0.54634400000000       -1.90328400000000       -1.30373900000000
H           -0.08747200000000       -1.00411400000000        2.57127000000000
H           -1.08118400000000        0.28586300000000        2.08138600000000
H            1.28097900000000        0.73286000000000        1.73117400000000
H            1.36804500000000       -0.70373400000000        0.67713900000000
H            1.15866700000000        1.44313000000000       -0.61117500000000
H           -0.35578800000000        1.83434200000000        0.26527400000000
H           -1.51736400000000       -0.10080200000000       -0.82923500000000
H           -0.85273400000000        1.08677100000000       -1.98587200000000
H           -0.96872000000000       -1.13389300000000        1.13151600000000
O            2.50870000000000       -4.02380200000000        0.26263900000000
H            1.55761700000000       -4.14500300000000        0.51035000000000
H            2.83497700000000       -3.31379900000000        0.87095800000000
O            2.37016500000000       -1.50979300000000        4.72322600000000
H            2.86724800000000       -2.34532900000000        4.91137300000000
H            2.82482900000000       -1.12320200000000        3.93301100000000
O            3.80719400000000        0.69102000000000        3.00698800000000
H            4.54821400000000        0.17728000000000        3.41634400000000
H            3.32434100000000        1.08569800000000        3.77620500000000
O           -3.32370500000000       -2.73274300000000        0.21028500000000
H           -2.57560000000000       -3.38127900000000        0.19155000000000
H           -3.10994900000000       -2.08656500000000       -0.50900300000000
O            0.54381900000000       -2.72713700000000        5.89681800000000
H            1.32271400000000       -2.46754100000000        6.45048200000000
H            0.26160800000000       -1.88653300000000        5.45596100000000
O            1.62417900000000       -3.45561900000000        3.32567900000000
H            1.14382200000000       -4.10387600000000        2.75154400000000
H            2.57328800000000       -3.54158700000000        3.05657900000000
O           -1.06116100000000       -3.70069100000000        2.87047300000000
H           -1.20523300000000       -3.78544200000000        3.84652200000000
H           -1.08877400000000       -4.63157200000000        2.53385600000000
37
 energy: -59.792563136422 gnorm: 0.091060089597 xtb: 6.7.1 (edcfbbe)
N           -0.43844507349998       -0.47862036111202        1.75081287790568
C            0.70104929746336        0.10831149444782        1.02899721876372
C            0.25194748858404        1.00125666490353       -0.13033106203152
C           -0.56965664461924        0.30724826920851       -1.22693610235678
C            0.16965837794584       -0.80261436457521       -1.95779768837396
O            0.41952390878145       -0.68679209838502       -3.16686974849415
O            0.50831987143198       -1.85135448641016       -1.28286227350058
H           -0.09623547734813       -1.02100078596022        2.56058657695230
H           -1.07714577896490        0.26187452920149        2.08312826946152
H            1.28915526076736        0.72157608274141        1.72302664930844
H            1.34438120328633       -0.69618258930799        0.65349496281912
H            1.14587883751563        1.43229912999213       -0.59749849333900
H           -0.34733852857513        1.83250402479797        0.26415929218912
H           -1.50436536652070       -0.09984591917822       -0.82079721889653
H           -0.84306244122240        1.05894829325261       -1.98176359299519
H           -0.95529740390392       -1.12874551866253        1.13894097066673
O            2.52855630817955       -4.06403082526218        0.30819012516449
H            1.56753805493428       -4.11758292652273        0.47441263066478
H            2.82188167496330       -3.30032805503919        0.84162104661256
O            2.45651024890577       -1.42267041355030        4.75272984022805
H            2.84568328211917       -2.31234724657980        4.88378038637927
H            2.83469928910384       -1.11522851938006        3.90408762033753
O            3.77512567786091        0.64620873425327        3.02763675952288
H            4.55827750255942        0.20927923039499        3.41121442060505
H            3.34781128957759        1.09434392811221        3.78133395465442
O           -3.29634278414528       -2.70862384538513        0.22301365447353
H           -2.59072019628792       -3.37607522698308        0.17943376079870
H           -3.11837667493381       -2.10942607580801       -0.52193444470866
O            0.47287752729584       -2.72357485566257        5.97170734629036
H            1.28955607065004       -2.48717856645382        6.44745939779993
H            0.27218556237238       -1.91643527542991        5.45747075057088
O            1.64772051610669       -3.45822243530780        3.28349866770755
H            1.14738871899225       -4.10325763134842        2.75762702072571
H            2.57715101497283       -3.58326417978261        3.03485847661740
O           -1.08916148102121       -3.71322890103193        2.85939016875297
H           -1.18915246858868       -3.77338067352775        3.82554688082221
H           -1.10928166473854       -4.63135360465875        2.55047289790118
37
 energy: -59.802123572405 gnorm: 0.033719631294 xtb: 6.7.1 (edcfbbe)
N           -0.43202513670590       -0.49322623041919        1.75421993106530
C            0.70807834775999        0.10615392310340        1.02561283033362
C            0.25127192195466        1.00657987842370       -0.11679053054999
C           -0.56960490883614        0.31325878709514       -1.21039185364068
C            0.18991754778744       -0.81757749712325       -1.93634199237029
O            0.41895923810027       -0.68179968860813       -3.16198647241912
O            0.45944017501112       -1.82410249068242       -1.26518512039710
H           -0.09889877541315       -1.04977251529434        2.54684942433142
H           -1.07307775419213        0.23194742846057        2.08656764457276
H            1.30230094177787        0.69759432883207        1.71709091788581
H            1.31974101080030       -0.69738590550279        0.62031752346007
H            1.13867434475317        1.42847586440677       -0.58389276370430
H           -0.34379496915527        1.83162387993169        0.27058944941972
H           -1.49115548628328       -0.10677458401855       -0.80884344844768
H           -0.84152801691988        1.04610607420330       -1.97265668758911
H           -0.94145920391251       -1.13135026268719        1.13767610384397
O            2.54604187595486       -4.09010762402247        0.34231091714422
H            1.57952560397045       -4.09369796813386        0.42841518351251
H            2.81592129639207       -3.28459093470376        0.80818861169210
O            2.47857754447854       -1.38416886646552        4.75330643508908
H            2.85035216166665       -2.25540648019267        4.87958512229912
H            2.82596197826788       -1.06902706248574        3.91624980673383
O            3.75574417113822        0.61874542399816        3.04986255163467
H            4.56522052210924        0.23097917991822        3.40132312576531
H            3.36109870568072        1.09272172010444        3.78897460639114
O           -3.26734160942214       -2.67837150933561        0.23147576446759
H           -2.60417682037549       -3.37061261499278        0.17254268211232
H           -3.12767382024170       -2.12617286792543       -0.54393159471037
O            0.44506759414957       -2.72669778410181        5.98472549120557
H            1.23751333987101       -2.51030836272483        6.47126593614125
H            0.27190888559764       -1.93269392911866        5.47434578996139
O            1.69305321947133       -3.44658905502825        3.23768185666243
H            1.14172290448327       -4.08375608795295        2.77340540489775
H            2.60138893042762       -3.64656289654751        2.99898626051012
O           -1.08075443943609       -3.72881543484886        2.84881762473918
H           -1.18129110315452       -3.74315673618463        3.80397265021250
H           -1.15640521755561       -4.63897609937513        2.56750281774333
37
 energy: -59.805698972600 gnorm: 0.086368383651 xtb: 6.7.1 (edcfbbe)
N           -0.42571059138785       -0.51330483411451        1.75253419317083
C            0.71106034874515        0.09544044238160        1.01874730166837
C            0.24839577018214        1.01161099547202       -0.10928031552440
C           -0.57692704641665        0.32375214810694       -1.20342932848089
C            0.17266265944030       -0.84377125074262       -1.91637479773896
O            0.43611692494439       -0.68072729251869       -3.13544201294608
O            0.44591275631273       -1.82501558378313       -1.22365521578801
H           -0.08975863688020       -1.08520292712538        2.53316615537472
H           -1.06837222390842        0.20510463647594        2.09470111081971
H            1.31886992530738        0.66780728523856        1.71470266464712
H            1.30524582994156       -0.70893290109166        0.59000870929674
H            1.13782362007857        1.43062145790684       -0.57614424012854
H           -0.34103266798474        1.83656860299308        0.28713214034024
H           -1.49433186247862       -0.09881847262453       -0.79757878069634
H           -0.84283736417577        1.05172557002350       -1.96992847869113
H           -0.93433416000336       -1.14273492812960        1.12571053935218
O            2.57012334141684       -4.12657214917064        0.38260239049531
H            1.58506894227429       -4.06872559418386        0.37139405823569
H            2.81210996515548       -3.25486757039645        0.76773534257910
O            2.54166104767372       -1.29482413554905        4.81449963613117
H            2.80665999349028       -2.24636528182332        4.83652498656100
H            2.79438831864745       -1.03015082450080        3.90115996234830
O            3.69805673528216        0.54678997855125        3.07109418712537
H            4.59690954816000        0.27258665212647        3.38339373842904
H            3.38927004217934        1.11995156717480        3.80673792216925
O           -3.21772456530815       -2.61887025975166        0.26795703928189
H           -2.62198046917666       -3.38178032486453        0.15411225177284
H           -3.14580658571232       -2.14867897353121       -0.59261808550978
O            0.37029317571005       -2.71592582085379        6.04551820578930
H            1.20961518133130       -2.55306078254637        6.49099627249747
H            0.29934478135988       -1.93697946939739        5.45179860663126
O            1.74686536789739       -3.40155008973063        3.18517940959391
H            1.11829716598628       -4.04827870457781        2.80554350427412
H            2.64091067565871       -3.73882879532537        2.96102017161672
O           -1.07330689953015       -3.74398065928487        2.82587759301202
H           -1.15679447218466       -3.69470776556433        3.78693251885143
H           -1.21844957202813       -4.66681894526733        2.58951264343804
37
 energy: -59.808262050027 gnorm: 0.070088112028 xtb: 6.7.1 (edcfbbe)
N           -0.41889621757004       -0.53259333166278        1.74672880388205
C            0.71404025524319        0.08436990447720        1.01102340340517
C            0.24555993474851        1.01626713744353       -0.10358219020298
C           -0.58227770586988        0.33270943180703       -1.19914332798080
C            0.16056441879058       -0.86035232793116       -1.90052779179612
O            0.44992201179300       -0.69005214904703       -3.11308369452565
O            0.42575372684631       -1.83779477788639       -1.18197626113692
H           -0.07707120253511       -1.11848844317761        2.51680318630314
H           -1.06237805365160        0.18095577480746        2.10169948229477
H            1.33579620194032        0.64036087028529        1.71135086808102
H            1.29665546857164       -0.71949190947752        0.56291273210142
H            1.13631981862041        1.43620564837750       -0.57118523763934
H           -0.33899402151157        1.84189937189193        0.30378705082884
H           -1.49995952834943       -0.08765447488716       -0.78908051636355
H           -0.84227165726160        1.05513385224104       -1.97206214726399
H           -0.92923887211086       -1.15443833789799        1.11017300600106
O            2.55152104969735       -4.06833917026413        0.33735974644687
H            1.60659553614973       -4.08880312038626        0.36643335320434
H            2.82320764585504       -3.26915615187383        0.76686886967529
O            2.54783211021896       -1.25952577977931        4.82726521042770
H            2.80298637692249       -2.20661687564817        4.83971450855977
H            2.78532429786813       -0.97821076054839        3.91954032247255
O            3.74763300157263        0.61650084883255        3.07374727531165
H            4.56711899929205        0.24268784119863        3.36786191843100
H            3.37453804272443        1.09955149483693        3.80342022527306
O           -3.21896930655806       -2.61547106164135        0.23691910761600
H           -2.61993885344666       -3.36480189290160        0.15980697976488
H           -3.13594388832195       -2.13013405741660       -0.58945657809440
O            0.32313326996438       -2.72143653852343        6.08070609657687
H            1.18317391631960       -2.60123984847784        6.51921085479830
H            0.30174187585410       -1.94580779926896        5.46703143565776
O            1.79292505410264       -3.41511744423037        3.18005369923984
H            1.10847983608428       -4.00762272531080        2.80448689653410
H            2.65977051498785       -3.78090374219539        2.91436329590974
O           -1.05672047827770       -3.75685763620660        2.80513005738913
H           -1.13635980492960       -3.65423405019604        3.76950126375435
H           -1.27327877377414       -4.68901276936094        2.60804009506231
37
 energy: -59.807679690295 gnorm: 0.096299931659 xtb: 6.7.1 (edcfbbe)
N           -0.41373277179838       -0.54895713830167        1.73986053653394
C            0.71619483238338        0.07362487539369        1.00898793375503
C            0.24445298296026        1.01964444839512       -0.09487060098522
C           -0.58320970564269        0.33792583755608       -1.19117340090288
C            0.17936116249549       -0.84778114892453       -1.88225848128625
O            0.44553352210062       -0.70771922809634       -3.09428357544580
O            0.38960630962861       -1.86736134360906       -1.15848746130516
H           -0.06393438879200       -1.14405692245558        2.50329970695641
H           -1.05749548044896        0.16270835961340        2.10890184106762
H            1.34796378276257        0.62025598973927        1.71314738070776
H            1.29782228029952       -0.72714047544712        0.55042541174421
H            1.13517533926157        1.44801437964066       -0.56319369132134
H           -0.33994870199428        1.84431399907260        0.32486236779722
H           -1.50713094290629       -0.07772891709678       -0.78008460895020
H           -0.84004254967242        1.05670930065949       -1.97047949183588
H           -0.92704059476963       -1.16605084818558        1.09446217850546
O            2.58313792306869       -4.12862604929507        0.40046238621907
H            1.59894393169823       -4.05712102750536        0.29289478601503
H            2.81113064084894       -3.22404305668270        0.72302773775001
O            2.48521217187852       -1.28983464257646        4.77202721524022
H            2.82837225350492       -2.14292277587888        4.87313321922382
H            2.80226321798125       -0.91195583262107        3.96862097735065
O            3.73317863823105        0.60764449815588        3.07963311150022
H            4.57360946289757        0.25086731773519        3.34016881697870
H            3.38940081540300        1.11207153482689        3.81351966334798
O           -3.20876386504802       -2.60466494090982        0.21404383735375
H           -2.61545070423652       -3.35072450338602        0.16002371536700
H           -3.12998777316182       -2.11757713695650       -0.59401094046934
O            0.35724739408863       -2.74357503875750        6.01856315462690
H            1.13979874168232       -2.62311916586177        6.56182824095454
H            0.24776918680508       -1.94927309312640        5.53621233688132
O            1.82033136448758       -3.46718657410081        3.20612291130743
H            1.12271402539620       -3.96645921021602        2.76927674628260
H            2.65277533300796       -3.76918178253493        2.87510709617372
O           -1.04719804182426       -3.76275803280141        2.80310042037877
H           -1.13678234662620       -3.66099906129921        3.76056254867569
H           -1.28298244595073       -4.68447759415943        2.60840797380592
37
 energy: -59.810156918016 gnorm: 0.086939021467 xtb: 6.7.1 (edcfbbe)
N           -0.40835902056378       -0.56099660643242        1.73618065421854
C            0.72074321469803        0.06683176108498        1.01007458396049
C            0.24651128547162        1.01694702536064       -0.08717426092157
C           -0.58458722534995        0.33386474871198       -1.17849175296624
C            0.18012090418023       -0.84526269429582       -1.87043891625497
O            0.43874541558873       -0.71267415685845       -3.08223720937820
O            0.37722832968945       -1.86546879644981       -1.16239241662763
H           -0.05773196716629       -1.15918157414017        2.49481366046680
H           -1.05180377228260        0.14649600133503        2.11076867070830
H            1.35190510748936        0.60954875136767        1.71450723444059
H            1.30146584996122       -0.72971728240104        0.54572850265818
H            1.13266848032992        1.45124838318772       -0.55605251108152
H           -0.33918532314675        1.83712965571824        0.33625417773466
H           -1.51263297871492       -0.07296925160165       -0.77041479405714
H           -0.83645340474571        1.05094887465056       -1.96094457158819
H           -0.92077779870140       -1.17413547473604        1.08782987513608
O            2.55619409010606       -4.05770027915782        0.32937950452658
H            1.61727170686361       -4.08746505862433        0.31046623459693
H            2.82737398116754       -3.25080015361427        0.73237750383756
O            2.49037708625821       -1.26455801010471        4.80358362401893
H            2.79633942365878       -2.16093812781012        4.83991351886300
H            2.78279988638488       -0.87981550799282        3.98410273498952
O            3.66915643902187        0.54377941302560        3.08482309075966
H            4.60864548850828        0.29273474079236        3.31152002537551
H            3.42415088338580        1.14865373902837        3.83338293156672
O           -3.16331798894510       -2.55403687065653        0.25210891357983
H           -2.62063028484450       -3.35658111121208        0.14341171442977
H           -3.14614375824792       -2.13902181092257       -0.64128917206034
O            0.34465981165124       -2.74635408878027        6.01121048728228
H            1.10733102113871       -2.65357209301024        6.58680552405142
H            0.26485302788373       -1.93396789289729        5.54093240818804
O            1.84331252608078       -3.45920568107022        3.21162506592733
H            1.10238025767361       -3.91998177073542        2.77955408852581
H            2.65830629752231       -3.80861892896954        2.84467260436427
O           -1.04228978383319       -3.76515128279947        2.80586236666725
H           -1.13875041109550       -3.67490261110620        3.75516144540615
H           -1.27158179707704       -4.67262097788131        2.60422645865431
37
 energy: -59.804639930638 gnorm: 0.133261835635 xtb: 6.7.1 (edcfbbe)
N           -0.40242144035656       -0.57332823131945        1.73038071246456
C            0.72621540715186        0.05963120317039        1.00841390162736
C            0.24927520837633        1.00863455224363       -0.08447113429806
C           -0.58900724078551        0.32313640759850       -1.16803690948740
C            0.13829370838475       -0.86848847531250       -1.86707442148891
O            0.44517088097451       -0.71264239670873       -3.06847126354165
O            0.38916850818191       -1.84347392975494       -1.17591077667183
H           -0.05379846638651       -1.17146078181967        2.48472144996299
H           -1.04419334585751        0.12868652570823        2.10751440637368
H            1.35272662464846        0.59927657901807        1.71207323148982
H            1.30562296917426       -0.73243943175659        0.54000336621072
H            1.12855005721678        1.44759667439038       -0.55406739044147
H           -0.33704684230359        1.82311019669407        0.34013624639048
H           -1.52114699189839       -0.06618466715179       -0.76322958465988
H           -0.83121251856721        1.04175948806118       -1.95222066626653
H           -0.91332219776842       -1.18207459306818        1.08223733021089
O            2.58206999243018       -4.09835094080542        0.37301240029498
H            1.61171796989923       -4.05982731696996        0.26550790508944
H            2.81686220680920       -3.21311499648567        0.70551230552778
O            2.54919033336301       -1.18791943346554        4.91410449558177
H            2.73344617234885       -2.22919627513407        4.76976837177168
H            2.73071370191394       -0.87030234179188        3.97014970480090
O            3.72827572673457        0.63223588780751        3.07218320851196
H            4.57666692506138        0.26327878714446        3.31145971074825
H            3.39921807270243        1.12963804876358        3.81863906827424
O           -3.16871734543165       -2.55698651720800        0.23752143191299
H           -2.61177488630728       -3.34237683632555        0.14914969944725
H           -3.13725121584064       -2.12246184410954       -0.63609145866195
O            0.28176123273934       -2.74208834951657        6.06816931464117
H            1.08999903321229       -2.70299425170634        6.59951818007185
H            0.33968312028738       -1.90641600159653        5.49922544685606
O            1.86026856302641       -3.41721230515692        3.19999085498545
H            1.07693658906574       -3.88402222465016        2.81308110712835
H            2.67191237084794       -3.87395752291298        2.82215712714135
O           -1.01621059919471       -3.77168662317371        2.80361633653829
H           -1.12947673017857       -3.66242056892320        3.75010655060689
H           -1.27987055367564       -4.67307249377491        2.61306174085565
37
 energy: -59.816661568328 gnorm: 0.051859604584 xtb: 6.7.1 (edcfbbe)
N           -0.39907206304899       -0.58087888227192        1.72950088264327
C            0.72838167957702        0.05514576746370        1.00932774588048
C            0.24750059199584        1.00833646362868       -0.08046978539733
C           -0.59087240407022        0.32921434029885       -1.16884483791174
C            0.13606823186687       -0.86686807865426       -1.86593596776682
O            0.44971278685590       -0.71326080875978       -3.06591857322873
O            0.37722541359569       -1.85989727344010       -1.15514886184544
H           -0.04875852396843       -1.18363520776484        2.48234505762371
H           -1.04244894066054        0.12063408753733        2.11071869522082
H            1.35820622373343        0.59285420416700        1.71591145859961
H            1.30879484778450       -0.73548956893827        0.53690873215579
H            1.12803188443684        1.44870692171812       -0.55122761522343
H           -0.33763095836831        1.82354647551353        0.35025852267087
H           -1.52309063340605       -0.06108389653702       -0.75889116698035
H           -0.83347229636348        1.04818053518443       -1.95204230755887
H           -0.91066105617339       -1.18780317118863        1.07641535180299
O            2.58149589925580       -4.09847317110627        0.37516130220756
H            1.61309503973080       -4.05563466330363        0.25089558399840
H            2.81648271954036       -3.20642545271063        0.69238177299972
O            2.46484631800015       -1.24670456338178        4.82565798736305
H            2.77094955294461       -2.15488764834643        4.83664274951059
H            2.75865327598634       -0.84904195677722        3.99773952162072
O            3.71112563913577        0.61246684793271        3.07686151233974
H            4.57931724013826        0.27336392070656        3.29984476862075
H            3.41407752733424        1.14340196119601        3.82180860959713
O           -3.16546187944167       -2.55334883475095        0.22090999934804
H           -2.61088751692566       -3.33383564777186        0.14684289308039
H           -3.12970718305878       -2.11184548296497       -0.62809218140797
O            0.28232037269970       -2.74657487397723        6.06145247753447
H            1.08476608839282       -2.71341808558203        6.60466668673926
H            0.32849084427642       -1.91542816795046        5.51828873331650
O            1.85677406088276       -3.43272698735211        3.19317554102113
H            1.09541657366467       -3.89278381144095        2.80264078894756
H            2.65737273110277       -3.85584820326416        2.82385053074616
O           -0.99055933742597       -3.77769555190908        2.79541916515513
H           -1.12141415592328       -3.64524890502657        3.74494259571678
H           -1.29677359409793       -4.68452763017405        2.61784363085908
37
 energy: -59.813924808996 gnorm: 0.105089404964 xtb: 6.7.1 (edcfbbe)
N           -0.38947162894293       -0.60263068609987        1.72566874702541
C            0.73484835504827        0.04357980265667        1.00900170651588
C            0.24610619126320        1.00869075229608       -0.06994748005059
C           -0.59118630205826        0.33758953643102       -1.16375460777720
C            0.17731885431490       -0.84897405700400       -1.84412655280398
O            0.43822343438112       -0.72771436440993       -3.05536865988763
O            0.31377682703127       -1.89872405119658       -1.13118111796196
H           -0.03470691188139       -1.21626205410375        2.47104523962299
H           -1.03588848777821        0.09422757982387        2.11684152313470
H            1.36967789741327        0.57321829043369        1.72148505371471
H            1.31426657096208       -0.74262312911725        0.52583446042673
H            1.12627252755646        1.45373059725967       -0.54225076317839
H           -0.34019524175759        1.82044121747210        0.37105537425456
H           -1.52365581967277       -0.05832616202077       -0.75119701587344
H           -0.83464878645700        1.05352055825676       -1.94871513223225
H           -0.90026624740261       -1.20375564156452        1.06207215515254
O            2.56977232067933       -4.06819571725270        0.35309153738418
H            1.62693441494038       -4.05393531221393        0.23014165988464
H            2.82588023528262       -3.21079373269123        0.67350040875051
O            2.47997678828956       -1.21753677315453        4.86240430436355
H            2.71386476416317       -2.16089546446191        4.77249701294846
H            2.71957224040984       -0.81315074927046        4.02089177591123
O            3.68543736311355        0.59716094455905        3.08603817253000
H            4.58221849944733        0.29107941706176        3.27269805184950
H            3.43539979715711        1.16988000508102        3.83010441984198
O           -3.11436603119769       -2.50168561556760        0.23891502993324
H           -2.61222520417775       -3.32912232728994        0.12996491104629
H           -3.13894525721813       -2.12105879450432       -0.66219796924486
O            0.35071138283922       -2.76914623461383        5.99247119242633
H            1.05805348372378       -2.69932734998895        6.63457564715919
H            0.24861378559413       -1.94715316906751        5.61424666332099
O            1.88067658587089       -3.45866476244790        3.20411481371090
H            1.10468217260506       -3.86040294453411        2.79863867388673
H            2.63943601664192       -3.83258785691639        2.79363349759581
O           -1.00432877850252       -3.78164783209844        2.79182783895204
H           -1.10641559130302       -3.64930579610261        3.73998332895909
H           -1.26712522037990       -4.67701312363654        2.61783809870690
37
 energy: -59.820133231057 gnorm: 0.060692185881 xtb: 6.7.1 (edcfbbe)
N           -0.38384406861442       -0.61931777092066        1.72294311581936
C            0.73880610020630        0.03439409275347        1.00993893232151
C            0.24710956621512        1.00353040375292       -0.06281709959627
C           -0.59667192508430        0.33305114951174       -1.15276395129608