46
 energy: -77.081807950611 gnorm: 0.000560227833 xtb: 6.7.1 (edcfbbe)
C            0.28465881133747       -0.26985816928476        1.14048927440393
C           -0.07463708339909        0.33699469521987        2.49400108129494
O           -0.27473386215803       -0.46457145184756        3.44394192555248
O           -0.15146085365625        1.58155983763569        2.62025698788922
C            0.32250837250349        0.72726030697433       -0.00707438182156
N            0.60663805649782        0.02808764615858       -1.27188020909551
H            1.25983472907086       -0.74493958931429        1.26490047436965
H           -0.44364588674071       -1.05913880775645        0.94300072639560
H           -0.63649890554925        1.23949071320601       -0.08332621128832
H            1.09497858252157        1.47369666592834        0.17353286234530
H           -0.10631369929653       -0.70286173593179       -1.43570633683411
H            1.54161336495038       -0.43556819384989       -1.22955598821945
H            0.59267882110350        0.70098418640895       -2.06145988834828
O           -0.41921983137994        4.15283206542480        3.97034573450542
H           -0.35764103993653        3.22524773995416        3.70124547494792
H           -0.30175550227456        4.66298737890726        3.14264215530480
O            1.42251809911614       -2.70637547899690        3.32927471196420
H            0.74889990747661       -3.35032211410086        3.07553141398214
H            0.92201944537161       -1.89307108654756        3.51618301263963
O            3.40717020685458       -1.90823280039474        1.60356353264760
H            4.24611343931670       -2.00649422185000        2.06166986272738
H            2.72891458396277       -2.27982006183549        2.20041333415876
O            1.93330526970725        3.13091381962720        1.60960228088570
H            2.60139557719140        3.27922871268232        2.28402648142983
H            1.22567730402771        2.60910604892822        2.03092805387924
O           -1.88193778808868        3.03963554714568        0.99227608476054
H           -2.71172107319060        3.19306132795264        1.45216793698544
H           -1.31457116202736        2.54271332592166        1.60912322209545
O           -2.40856837066852       -0.67976890553910        5.23445787324545
H           -2.27476477404402       -0.17668332107988        6.04297427019176
H           -1.62674496019938       -0.50985635072835        4.68092256280877
H           -1.17175457161943       -2.01620136174020        3.01800684031846
O           -1.53170492397537       -2.88651151754639        2.77225593192133
H           -2.27238960662756       -3.02897165291579        3.36831334105083
H           -0.73777712574834        4.51381915749025        1.03331471696654
O           -0.02919952996146        5.09847101424713        1.36160474116231
H            0.78092142266378        4.56091851978557        1.28425714637881
H            1.00200059176031        2.79699342713378       -3.07950783583934
O            0.46251408933611        2.01591008588977       -3.23154094751164
H           -0.40106222868892        2.31477108598534       -3.53006010021227
H            3.87006745347671       -0.66505181319266       -1.27470862658627
O            3.08157868444315       -1.17598248591515       -1.06963963925522
H            3.19384169374237       -1.51569946665222       -0.16592188514162
H           -1.23176579159669       -2.83929805529789       -1.73398595418491
O           -1.42526536700508       -1.91439671456802       -1.55860394104169
H           -2.31652047668080       -1.73749847278729       -1.87134521210906
