
                                 *****************
                                 * O   R   C   A *
                                 *****************

                                            #,                                       
                                            ###                                      
                                            ####                                     
                                            #####                                    
                                            ######                                   
                                           ########,                                 
                                     ,,################,,,,,                         
                               ,,#################################,,                 
                          ,,##########################################,,             
                       ,#########################################, ''#####,          
                    ,#############################################,,   '####,        
                  ,##################################################,,,,####,       
                ,###########''''           ''''###############################       
              ,#####''   ,,,,##########,,,,          '''####'''          '####       
            ,##' ,,,,###########################,,,                        '##       
           ' ,,###''''                  '''############,,,                           
         ,,##''                                '''############,,,,        ,,,,,,###''
      ,#''                                            '''#######################'''  
     '                                                          ''''####''''         
             ,#######,   #######,   ,#######,      ##                                
            ,#'     '#,  ##    ##  ,#'     '#,    #''#        ,####,   ,####,        
            ##       ##  ##   ,#'  ##            #'  '#       #'       #'  '#        
            ##       ##  #######   ##           ,######,      #####,   #    #        
            '#,     ,#'  ##    ##  '#,     ,#' ,#      #,     #,   #   #,  ,#        
             '#######'   ##     ##  '#######'  #'      '#     '####' # '####'        



                #########################################################
                #                        -***-                          #
                #          Department of theory and spectroscopy        #
                #                                                       #
                #                      Frank Neese                      #
                #                                                       #
                #     Directorship, Architecture, Infrastructure        #
                #                    SHARK, DRIVERS                     #
                #        Core code/Algorithms in most modules           #
                #                                                       #
                #        Max Planck Institute fuer Kohlenforschung      #
                #                Kaiser Wilhelm Platz 1                 #
                #                 D-45470 Muelheim/Ruhr                 #
                #                      Germany                          #
                #                                                       #
                #                  All rights reserved                  #
                #                        -***-                          #
                #########################################################


                         Program Version 6.0.1  -  RELEASE   -


 With contributions from (in alphabetic order):
[Max-Planck-Institut fuer Kohlenforschung]                               
  Daniel Aravena         : Magnetic Suceptibility                        
  Michael Atanasov       : Ab Initio Ligand Field Theory (pilot matlab implementation)
  Alexander A. Auer      : GIAO ZORA, VPT2 properties, NMR spectrum      
  Ute Becker             : All parallelization in ORCA, NUMFREQ, NUMCALC 
  Giovanni Bistoni       : ED, misc. LED, open-shell LED, HFLD           
  Martin Brehm           : Molecular dynamics                            
  Dmytro Bykov           : pre 5.0 version of the SCF Hessian            
  Marcos Casanova-Páez   : Triplet and SCS-CIS(D). UHF-(DLPNO)-IP/EA/STEOM-CCSD. UHF-CVS-IP/STEOM-CCSD   
  Vijay G. Chilkuri      : MRCI spin determinant printing, contributions to CSF-ICE 
  Pauline Colinet        : FMM embedding                                 
  Dipayan Datta          : RHF DLPNO-CCSD density                        
  Achintya Kumar Dutta   : EOM-CC, STEOM-CC                              
  Nicolas Foglia         : Exact transition moments, OPA infrastructure, MCD improvements    
  Dmitry Ganyushin       : Spin-Orbit,Spin-Spin,Magnetic field MRCI      
  Miquel Garcia-Rates    : C-PCM and meta-GGA Hessian, CCSD/C-PCM, Gaussian charge scheme 
  Tiago L. C. Gouveia    : GS-ROHF, GS-ROCIS                             
  Yang Guo               : DLPNO-NEVPT2, F12-NEVPT2, CIM, IAO-localization        
  Andreas Hansen         : Spin unrestricted coupled pair/coupled cluster methods 
  Ingolf Harden          : AUTO-CI MPn and infrastructure                
  Benjamin Helmich-Paris : MC-RPA, TRAH-(SCF,CASSCF), AVAS, COSX integrals, SCF dyn. polar. 
  Lee Huntington         : MR-EOM, pCC                                   
  Robert Izsak           : Overlap fitted RIJCOSX, COSX-SCS-MP3, EOM     
  Riya Kayal             : Wick's Theorem for AUTO-CI, AUTO-CI UHF-CCSDT 
  Emily Kempfer          : AUTO-CI, RHF CISDT and CCSDT                  
  Christian Kollmar      : KDIIS, OOCD, Brueckner-CCSD(T), CCSD density, CASPT2, CASPT2-K, improved NEVPT2 
  Axel Koslowski         : Symmetry handling                             
  Simone Kossmann        : meta-GGA functionals, TD-DFT gradient, OOMP2, (MP2 Hessian; deprecated post 5.0) 
  Lucas Lang             : DCDCAS                                        
  Marvin Lechner         : AUTO-CI (C++ implementation), FIC-MRCC        
  Spencer Leger          : CASSCF response                               
  Dagmar Lenk            : GEPOL surface, SMD, ORCA-2-JSON               
  Dimitrios Liakos       : Extrapolation schemes; Compound Job, initial MDCI parallelization 
  Dimitrios Manganas     : Further ROCIS development; embedding schemes. LFT, Crystal Embedding 
  Dimitrios Pantazis     : SARC Basis sets                               
  Anastasios Papadopoulos: AUTO-CI, single reference methods and gradients 
  Taras Petrenko         : pre 6.0 DFT Hessian and TD-DFT gradient, (ASA, deprecated), ECA, 1-Electron XAS/XES, NRVS 
  Peter Pinski           : DLPNO-MP2, DLPNO-MP2 Gradient                 
  Christoph Reimann      : Effective Core Potentials                     
  Marius Retegan         : Local ZFS, SOC                                
  Christoph Riplinger    : Optimizer, TS searches, QM/MM, DLPNO-CCSD(T), (RO)-DLPNO pert. Triples 
  Michael Roemelt        : Original ROCIS implementation                 
  Masaaki Saitow         : Open-shell DLPNO-CCSD energy and density      
  Barbara Sandhoefer     : DKH picture change effects                    
  Kantharuban Sivalingam : CASSCF convergence/infrastructure, NEVPT2 and variants, FIC-MRCI 
  Bernardo de Souza      : ESD, SOC TD-DFT                               
  Georgi L. Stoychev     : AutoAux, RI-MP2 NMR, DLPNO-MP2 response, X2C  
  Van Anh Tran           : RI-MP2 g-tensors                              
  Willem Van den Heuvel  : Paramagnetic NMR                              
  Zikuan Wang            : NOTCH, Electric field optimization            
  Frank Wennmohs         : Technical directorship and infrastructure     
  Hang Xu                : AUTO-CI-Response properties                   
                                                                         
[FACCTs GmbH]                                                            
  Markus Bursch, Miquel Garcia-Rates, Christoph Riplinger, Bernardo de Souza, Georgi L. Stoychev 
                                                                 
  APM, Basis sets (HGBS, AHGBS, def-TZVP (Ac-Lr), def2-XVPD (La-Lu)), CI-OPT, improved COSX, DLPNO-Multilevel,           
  DOCKER, DRACO, updates on ESD, GOAT, IRC, LR-CPCM, MBIS, meta-GGA TD-DFT gradient, ML-optimized integration grids, 
  MM, NACMEs, nearIR, NEB, NEB-TS, NL-DFT gradient (VV10), 2- and 3-layer-ONIOM, interface openCOSMO-RS, QMMM,   
  Crystal-QMMM, SF, symmetry and pop. for TD-DFT, r2SCAN hybrids, SOLVATOR                                   
                                                                         
[Other institutions]                                                     
  V. Asgeirsson          : NEB                                           
  Christoph Bannwarth    : sTDA-DFT, sTD-DFT, PBEh-3c, B97-3c, D3        
  Sebastian Ehlert       : rSCAN, r2SCAN, r2SCAN-3c, D4, dhf basis sets  
  Marvin Friede          : D4 for Fr, Ra, Ac-Lr                          
  Lars Goerigk           : TD-DFT with DH, B97 family of functionals     
  Stefan Grimme          : VdW corrections, initial TS optimization, DFT functionals, gCP, sTDA/sTD-DF 
  Waldemar Hujo          : DFT-NL                                        
  H. Jonsson             : NEB                                           
  Holger Kruse           : gCP                                           
  Marcel Mueller         : wB97X-3c, vDZP basis set                      
  Hagen Neugebauer       : wr2SCAN                                       
  Tobias Risthaus        : range-separated hybrid DFT                    
  Lukas Wittmann         : regularized MP2, r2SCAN double-hybrids, wr2SCAN        
                                                                         
We gratefully acknowledge several colleagues who have allowed us to      
interface, adapt or use parts of their codes:                            
  Ed Valeev, F. Pavosevic, A. Kumar             : LibInt (2-el integral package), F12 methods 
  Garnet Chan, S. Sharma, J. Yang, R. Olivares  : DMRG                   
  Ulf Ekstrom                                   : XCFun DFT Library      
  Mihaly Kallay                                 : mrcc  (arbitrary order and MRCC methods)
  Frank Weinhold                                : gennbo (NPA and NBO analysis)           
  Simon Mueller                                 : openCOSMO-RS                            
  Christopher J. Cramer and Donald G. Truhlar   : smd solvation model                     
  S Lehtola, MJT Oliveira, MAL Marques          : LibXC Library                           
  Liviu Ungur et al                             : ANISO software                          


 Your calculation uses the libint2 library for the computation of 2-el integrals
 For citations please refer to: http://libint.valeyev.net

 Your ORCA version has been built with support for libXC version: 6.2.2
 For citations please refer to: https://libxc.gitlab.io

 This ORCA versions uses:
   CBLAS   interface :  Fast vector & matrix operations
   LAPACKE interface :  Fast linear algebra routines
   SCALAPACK package :  Parallel linear algebra routines
   Shared memory     :  Shared parallel matrices
   BLAS/LAPACK       :  OpenBLAS 0.3.27  USE64BITINT DYNAMIC_ARCH NO_AFFINITY SkylakeX SINGLE_THREADED
        Core in use  :  SkylakeX
   Copyright (c) 2011-2014, The OpenBLAS Project


NOTE: MaxCore=3000 MB was set to SCF,MP2,MDCI,CIPSI,MRCI and CIS
      => If you want to overwrite this, your respective input block should be placed after the MaxCore statement
Your calculation utilizes the atom-pairwise dispersion correction
based on EEQ partial charges (D4)


Warning: RI is on but no J-basis has been assigned. Assigning Def2/J (nothing to worry about!)
================================================================================

----- Orbital basis set information -----
Your calculation utilizes the basis: def2-TZVP
   F. Weigend and R. Ahlrichs, Phys. Chem. Chem. Phys. 7, 3297 (2005).

----- AuxJ basis set information -----
Your calculation utilizes the auxiliary basis: def2/J
   F. Weigend, Phys. Chem. Chem. Phys. 8, 1057 (2006).

================================================================================
                                        WARNINGS
                       Please study these warnings very carefully!
================================================================================


WARNING: Geometry Optimization
  ===> : Switching off AutoStart
         For restart on a previous wavefunction, please use MOREAD

================================================================================
                                       INPUT FILE
================================================================================
NAME = 00_Alanine_zwitterion.inp
|  1> ! Opt B3LYP D4 def2-TZVP TightSCF TightOpt CPCM(water)
|  2> 
|  3> %maxcore 3000
|  4> 
|  5> %pal
|  6> nprocs 30
|  7> end
|  8> 
|  9> * xyz 0 1
| 10> C         -0.27110        0.20890       -1.45240
| 11> C         -1.19550        0.92490       -0.50250
| 12> O         -2.50210        1.02980       -0.80950
| 13> O         -0.78430        1.41210        0.53970
| 14> C          1.18590        0.17230       -0.96400
| 15> N          2.03980       -0.53230       -1.91980
| 16> H         -0.31290        0.72430       -2.43600
| 17> H         -0.63890       -0.83200       -1.58000
| 18> H          1.23520       -0.34490        0.02030
| 19> H          1.56140        1.21230       -0.83630
| 20> H          1.71330       -1.51930       -2.03430
| 21> H          2.02200       -0.04510       -2.84520
| 22> H          3.02180       -0.54040       -1.56070
| 23> *
| 24> 
| 25>                          ****END OF INPUT****
================================================================================

                       *****************************
                       * Geometry Optimization Run *
                       *****************************

Geometry optimization settings:
Update method            Update   .... BFGS
Choice of coordinates    CoordSys .... (2022) Redundant Internals
Initial Hessian          InHess   .... Almloef's Model
Max. no of cycles        MaxIter  .... 50

Convergence Tolerances:
Energy Change            TolE     ....  1.0000e-06 Eh
Max. Gradient            TolMAXG  ....  1.0000e-04 Eh/bohr
RMS Gradient             TolRMSG  ....  3.0000e-05 Eh/bohr
Max. Displacement        TolMAXD  ....  1.0000e-03 bohr
RMS Displacement         TolRMSD  ....  6.0000e-04 bohr
Strict Convergence                .... False

------------------------------------------------------------------------------
                        ORCA OPTIMIZATION COORDINATE SETUP
------------------------------------------------------------------------------

The optimization will be done in redundant internal coordinates (2022)
Making redundant internal coordinates   ...  (2022 redundants) done
Evaluating the initial hessian          ...  (Almloef) done
Evaluating the coordinates              ...  done
Calculating the B-matrix                .... done
Calculating the G-matrix                .... done
Diagonalizing the G-matrix              .... done
The first mode is                       ....   17
The number of degrees of freedom        ....   33

    -----------------------------------------------------------------
                    Redundant Internal Coordinates


    -----------------------------------------------------------------
         Definition                    Initial Value    Approx d2E/dq
    -----------------------------------------------------------------
      1. B(C   1,C   0)                  1.5065         0.407289   
      2. B(O   2,C   1)                  1.3463         0.657107   
      3. B(O   3,C   1)                  1.2217         1.038331   
      4. B(C   4,C   0)                  1.5371         0.363937   
      5. B(N   5,C   4)                  1.4626         0.428616   
      6. B(H   6,C   0)                  1.1112         0.333071   
      7. B(H   7,C   0)                  1.1113         0.332973   
      8. B(H   8,C   4)                  1.1130         0.330922   
      9. B(H   9,C   4)                  1.1131         0.330848   
     10. B(H  10,N   5)                  1.0459         0.379261   
     11. B(H  11,N   5)                  1.0460         0.379151   
     12. B(H  12,N   5)                  1.0456         0.379620   
     13. A(C   4,C   0,H   6)          109.1438         0.318836   
     14. A(C   1,C   0,C   4)          113.1166         0.367119   
     15. A(H   6,C   0,H   7)          108.6833         0.283822   
     16. A(C   1,C   0,H   7)          108.3295         0.324750   
     17. A(C   4,C   0,H   7)          109.1407         0.318820   
     18. A(C   1,C   0,H   6)          108.3365         0.324765   
     19. A(O   2,C   1,O   3)          119.3476         0.475479   
     20. A(C   0,C   1,O   2)          119.2604         0.404300   
     21. A(C   0,C   1,O   3)          121.3920         0.438701   
     22. A(N   5,C   4,H   9)          109.1561         0.325184   
     23. A(C   0,C   4,H   9)          109.5105         0.318488   
     24. A(N   5,C   4,H   8)          109.1601         0.325196   
     25. A(C   0,C   4,H   8)          109.5146         0.318499   
     26. A(H   8,C   4,H   9)          108.5288         0.283255   
     27. A(C   0,C   4,N   5)          110.9301         0.368036   
     28. A(H  11,N   5,H  12)          108.8707         0.290874   
     29. A(H  10,N   5,H  12)          108.8726         0.290888   
     30. A(C   4,N   5,H  12)          109.1233         0.329811   
     31. A(H  10,N   5,H  11)          109.7182         0.290831   
     32. A(C   4,N   5,H  11)          110.1112         0.329744   
     33. A(C   4,N   5,H  10)          110.1153         0.329760   
     34. D(O   3,C   1,C   0,C   4)      0.0093         0.012292   
     35. D(O   2,C   1,C   0,C   4)    179.9981         0.012292   
     36. D(O   2,C   1,C   0,H   6)     58.8586         0.012292   
     37. D(O   3,C   1,C   0,H   6)   -121.1301         0.012292   
     38. D(O   2,C   1,C   0,H   7)    -58.8715         0.012292   
     39. D(N   5,C   4,C   0,H   6)    -59.3225         0.010610   
     40. D(N   5,C   4,C   0,C   1)    179.9956         0.010610   
     41. D(H   8,C   4,C   0,H   6)   -179.8769         0.010610   
     42. D(H   8,C   4,C   0,C   1)     59.4411         0.010610   
     43. D(H   8,C   4,C   0,H   7)    -61.2297         0.010610   
     44. D(N   5,C   4,C   0,H   7)     59.3248         0.010610   
     45. D(H  10,N   5,C   4,H   9)    178.6830         0.016783   
     46. D(H  10,N   5,C   4,H   8)     60.2040         0.016783   
     47. D(H  11,N   5,C   4,C   0)     60.5543         0.016783   
     48. D(H  10,N   5,C   4,C   0)    -60.5603         0.016783   
     49. D(H  11,N   5,C   4,H   9)    -60.2024         0.016783   
     50. D(H  11,N   5,C   4,H   8)   -178.6814         0.016783   
    -----------------------------------------------------------------

Number of atoms                         .... 13
Number of degrees of freedom            .... 50


         *************************************************************
         *                GEOMETRY OPTIMIZATION CYCLE   1            *
         *************************************************************
---------------------------------
CARTESIAN COORDINATES (ANGSTROEM)
---------------------------------
  C     -0.271100    0.208900   -1.452400
  C     -1.195500    0.924900   -0.502500
  O     -2.502100    1.029800   -0.809500
  O     -0.784300    1.412100    0.539700
  C      1.185900    0.172300   -0.964000
  N      2.039800   -0.532300   -1.919800
  H     -0.312900    0.724300   -2.436000
  H     -0.638900   -0.832000   -1.580000
  H      1.235200   -0.344900    0.020300
  H      1.561400    1.212300   -0.836300
  H      1.713300   -1.519300   -2.034300
  H      2.022000   -0.045100   -2.845200
  H      3.021800   -0.540400   -1.560700

----------------------------
CARTESIAN COORDINATES (A.U.)
----------------------------
  NO LB      ZA    FRAG     MASS         X           Y           Z
   0 C     6.0000    0    12.011   -0.512305    0.394764   -2.744638
   1 C     6.0000    0    12.011   -2.259168    1.747808   -0.949587
   2 O     8.0000    0    15.999   -4.728284    1.946040   -1.529733
   3 O     8.0000    0    15.999   -1.482112    2.668482    1.019885
   4 C     6.0000    0    12.011    2.241026    0.325600   -1.821696
   5 N     7.0000    0    14.007    3.854663   -1.005901   -3.627896
   6 H     1.0000    0     1.008   -0.591295    1.368729   -4.603373
   7 H     1.0000    0     1.008   -1.207346   -1.572252   -2.985767
   8 H     1.0000    0     1.008    2.334190   -0.651767    0.038361
   9 H     1.0000    0     1.008    2.950618    2.290915   -1.580378
  10 H     1.0000    0     1.008    3.237668   -2.871061   -3.844270
  11 H     1.0000    0     1.008    3.821026   -0.085227   -5.376649
  12 H     1.0000    0     1.008    5.710374   -1.021208   -2.949296

--------------------------------
INTERNAL COORDINATES (ANGSTROEM)
--------------------------------
 C      0   0   0     0.000000000000     0.00000000     0.00000000
 C      1   0   0     1.506479794090     0.00000000     0.00000000
 O      2   1   0     1.346275072190   119.26035255     0.00000000
 O      2   1   3     1.221732425697   121.39203300   180.01128289
 C      1   2   3     1.537115194122   113.11658404   179.99805477
 N      5   1   2     1.462586752983   110.93007428   179.99557562
 H      1   2   3     1.111239560131   108.33652585    58.85864542
 H      1   2   3     1.111319670482   108.32946064   301.12851538
 H      5   1   2     1.113001716081   109.51460313    59.44110711
 H      5   1   2     1.113062235457   109.51053026   300.54244457
 H      6   5   1     1.045887900303   110.11532050   299.43969176
 H      6   5   1     1.045966462177   110.11118495    60.55429347
 H      6   5   1     1.045630154500   109.12326783   179.99456337

---------------------------
INTERNAL COORDINATES (A.U.)
---------------------------
 C      0   0   0     0.000000000000     0.00000000     0.00000000
 C      1   0   0     2.846834237115     0.00000000     0.00000000
 O      2   1   0     2.544091187364   119.26035255     0.00000000
 O      2   1   3     2.308739693499   121.39203300   180.01128289
 C      1   2   3     2.904726753179   113.11658404   179.99805477
 N      5   1   2     2.763888410238   110.93007428   179.99557562
 H      1   2   3     2.099938437827   108.33652585    58.85864542
 H      1   2   3     2.100089824450   108.32946064   301.12851538
 H      5   1   2     2.103268429978   109.51460313    59.44110711
 H      5   1   2     2.103382795023   109.51053026   300.54244457
 H      6   5   1     1.976441698354   110.11532050   299.43969176
 H      6   5   1     1.976590158782   110.11118495    60.55429347
 H      6   5   1     1.975954629375   109.12326783   179.99456337

---------------------
BASIS SET INFORMATION
---------------------
There are 4 groups of distinct atoms

 Group   1 Type C   : 11s6p2d1f contracted to 5s3p2d1f pattern {62111/411/11/1}
 Group   2 Type O   : 11s6p2d1f contracted to 5s3p2d1f pattern {62111/411/11/1}
 Group   3 Type N   : 11s6p2d1f contracted to 5s3p2d1f pattern {62111/411/11/1}
 Group   4 Type H   : 5s1p contracted to 3s1p pattern {311/1}

Atom   0C    basis set group =>   1
Atom   1C    basis set group =>   1
Atom   2O    basis set group =>   2
Atom   3O    basis set group =>   2
Atom   4C    basis set group =>   1
Atom   5N    basis set group =>   3
Atom   6H    basis set group =>   4
Atom   7H    basis set group =>   4
Atom   8H    basis set group =>   4
Atom   9H    basis set group =>   4
Atom  10H    basis set group =>   4
Atom  11H    basis set group =>   4
Atom  12H    basis set group =>   4
---------------------------------
AUXILIARY/J BASIS SET INFORMATION
---------------------------------
There are 4 groups of distinct atoms

 Group   1 Type C   : 12s5p4d2f1g contracted to 6s4p3d1f1g pattern {711111/2111/211/2/1}
 Group   2 Type O   : 12s5p4d2f1g contracted to 6s4p3d1f1g pattern {711111/2111/211/2/1}
 Group   3 Type N   : 12s5p4d2f1g contracted to 6s4p3d1f1g pattern {711111/2111/211/2/1}
 Group   4 Type H   : 5s2p1d contracted to 3s1p1d pattern {311/2/1}

Atom   0C    basis set group =>   1
Atom   1C    basis set group =>   1
Atom   2O    basis set group =>   2
Atom   3O    basis set group =>   2
Atom   4C    basis set group =>   1
Atom   5N    basis set group =>   3
Atom   6H    basis set group =>   4
Atom   7H    basis set group =>   4
Atom   8H    basis set group =>   4
Atom   9H    basis set group =>   4
Atom  10H    basis set group =>   4
Atom  11H    basis set group =>   4
Atom  12H    basis set group =>   4


           ************************************************************
           *        Program running with 30 parallel MPI-processes    *
           *              working on a common directory               *
           ************************************************************
------------------------------------------------------------------------------
                             ORCA STARTUP CALCULATIONS
                           -- RI-GTO INTEGRALS CHOSEN --
------------------------------------------------------------------------------
------------------------------------------------------------------------------
                   ___                                                        
                  /   \      - P O W E R E D   B Y -                         
                 /     \                                                     
                 |  |  |   _    _      __       _____    __    __             
                 |  |  |  | |  | |    /  \     |  _  \  |  |  /  |          
                  \  \/   | |  | |   /    \    | | | |  |  | /  /          
                 / \  \   | |__| |  /  /\  \   | |_| |  |  |/  /          
                |  |  |   |  __  | /  /__\  \  |    /   |      \           
                |  |  |   | |  | | |   __   |  |    \   |  |\   \          
                \     /   | |  | | |  |  |  |  | |\  \  |  | \   \       
                 \___/    |_|  |_| |__|  |__|  |_| \__\ |__|  \__/        
                                                                              
                      - O R C A' S   B I G   F R I E N D -                    
                                      &                                       
                       - I N T E G R A L  F E E D E R -                       
                                                                              
 v1 FN, 2020, v2 2021, v3 2022-2024                                           
------------------------------------------------------------------------------


----------------------
SHARK INTEGRAL PACKAGE
----------------------

Number of atoms                             ...     13
Number of basis functions                   ...    228
Number of shells                            ...     94
Maximum angular momentum                    ...      3
Integral batch strategy                     ... SHARK/LIBINT Hybrid
RI-J (if used) integral strategy            ... SPLIT-RIJ (Revised 2003 algorithm where possible)
Printlevel                                  ...      1
Contraction scheme used                     ... SEGMENTED contraction
Prescreening option                         ... SCHWARTZ
   Thresh                                   ... 2.500e-11
   Tcut                                     ... 2.500e-12
   Tpresel                                  ... 2.500e-12 
Coulomb Range Separation                    ... NOT USED
Exchange Range Separation                   ... NOT USED
Multipole approximations                    ... NOT USED
Finite Nucleus Model                        ... NOT USED
CABS basis                                  ... NOT available
Auxiliary Coulomb fitting basis             ... AVAILABLE
   # of basis functions in Aux-J            ...    371
   # of shells in Aux-J                     ...    125
   Maximum angular momentum in Aux-J        ...      4
Auxiliary J/K fitting basis                 ... NOT available
Auxiliary Correlation fitting basis         ... NOT available
Auxiliary 'external' fitting basis          ... NOT available

Checking pre-screening integrals            ... done (  0.0 sec) Dimension = 94
Check shell pair data                       ... done (  0.0 sec)
Shell pair information
Shell pair cut-off parameter TPreSel        ...   2.5e-12
Total number of shell pairs                 ...      4465
Shell pairs after pre-screening             ...      4116
Total number of primitive shell pairs       ...     13356
Primitive shell pairs kept                  ...      9554
          la=0 lb=0:   1195 shell pairs
          la=1 lb=0:   1199 shell pairs
          la=1 lb=1:    312 shell pairs
          la=2 lb=0:    557 shell pairs
          la=2 lb=1:    280 shell pairs
          la=2 lb=2:     72 shell pairs
          la=3 lb=0:    275 shell pairs
          la=3 lb=1:    140 shell pairs
          la=3 lb=2:     67 shell pairs
          la=3 lb=3:     19 shell pairs

Calculating one electron integrals          ... done (  0.0 sec)
Calculating RI/J V-Matrix + Cholesky decomp.... done (  0.1 sec)
Calculating Nuclear repulsion               ... done (  0.0 sec) ENN=    237.575660626265 Eh

Diagonalization of the overlap matrix:
Smallest eigenvalue                        ... 1.678e-04
Time for diagonalization                   ...    0.004 sec
Threshold for overlap eigenvalues          ... 1.000e-07
Number of eigenvalues below threshold      ... 0
Time for construction of square roots      ...    0.002 sec
Total time needed                          ...    0.007 sec

-------------------
DFT GRID GENERATION
-------------------

General Integration Accuracy     IntAcc      ... 4.388
Radial Grid Type                 RadialGrid  ... OptM3 with GC (2021)
Angular Grid (max. ang.)         AngularGrid ... 4 (Lebedev-302)
Angular grid pruning method      GridPruning ... 4 (adaptive)
Weight generation scheme         WeightScheme... mBecke (2022)
Basis function cutoff            BFCut       ... 1.0000e-11
Integration weight cutoff        WCut        ... 1.0000e-14
Partially contracted basis set               ... off
Rotationally invariant grid construction     ... off
Angular grids for H and He will be reduced by one unit

Total number of grid points                  ...    58935
Total number of batches                      ...      929
Average number of points per batch           ...       63
Average number of grid points per atom       ...     4533

--------------------
COSX GRID GENERATION
--------------------

GRIDX 1
-------
General Integration Accuracy     IntAcc      ... 3.816
Radial Grid Type                 RadialGrid  ... OptM3 with GC (2021)
Angular Grid (max. ang.)         AngularGrid ... 1 (Lebedev-50)
Angular grid pruning method      GridPruning ... 4 (adaptive)
Weight generation scheme         WeightScheme... mBecke (2022)
Basis function cutoff            BFCut       ... 1.0000e-11
Integration weight cutoff        WCut        ... 1.0000e-14
Partially contracted basis set               ... on
Rotationally invariant grid construction     ... off
Angular grids for H and He will be reduced by one unit

Total number of grid points                  ...     7550
Total number of batches                      ...       67
Average number of points per batch           ...      112
Average number of grid points per atom       ...      581
UseSFitting                                  ... on

GRIDX 2
-------
General Integration Accuracy     IntAcc      ... 4.020
Radial Grid Type                 RadialGrid  ... OptM3 with GC (2021)
Angular Grid (max. ang.)         AngularGrid ... 2 (Lebedev-110)
Angular grid pruning method      GridPruning ... 4 (adaptive)
Weight generation scheme         WeightScheme... mBecke (2022)
Basis function cutoff            BFCut       ... 1.0000e-11
Integration weight cutoff        WCut        ... 1.0000e-14
Partially contracted basis set               ... on
Rotationally invariant grid construction     ... off
Angular grids for H and He will be reduced by one unit

Total number of grid points                  ...    16325
Total number of batches                      ...      135
Average number of points per batch           ...      120
Average number of grid points per atom       ...     1256
UseSFitting                                  ... on

GRIDX 3
-------
General Integration Accuracy     IntAcc      ... 4.338
Radial Grid Type                 RadialGrid  ... OptM3 with GC (2021)
Angular Grid (max. ang.)         AngularGrid ... 3 (Lebedev-194)
Angular grid pruning method      GridPruning ... 4 (adaptive)
Weight generation scheme         WeightScheme... mBecke (2022)
Basis function cutoff            BFCut       ... 1.0000e-11
Integration weight cutoff        WCut        ... 1.0000e-14
Partially contracted basis set               ... on
Rotationally invariant grid construction     ... off
Angular grids for H and He will be reduced by one unit

Total number of grid points                  ...    35917
Total number of batches                      ...      287
Average number of points per batch           ...      125
Average number of grid points per atom       ...     2763
UseSFitting                                  ... on
Initializing property integral containers    ... done (  0.0 sec)

SHARK setup successfully completed in   0.6 seconds

Maximum memory used throughout the entire STARTUP-calculation: 19.4 MB


           ************************************************************
           *        Program running with 30 parallel MPI-processes    *
           *              working on a common directory               *
           ************************************************************
-------------------------------------------------------------------------------
                                 ORCA GUESS
                   Start orbitals & Density for SCF / CASSCF
-------------------------------------------------------------------------------

------------
SCF SETTINGS
------------
Hamiltonian:
 Density Functional     Method          .... DFT(GTOs)
 Exchange Functional    Exchange        .... B88
   X-Alpha parameter    XAlpha          ....  0.666667
   Becke's b parameter  XBeta           ....  0.004200
 Correlation Functional Correlation     .... LYP
 LDA part of GGA corr.  LDAOpt          .... VWN-5
 Gradients option       PostSCFGGA      .... off
 Hybrid DFT is turned on
   Fraction HF Exchange ScalHFX         ....  0.200000
   Scaling of DF-GGA-X  ScalDFX         ....  0.720000
   Scaling of DF-GGA-C  ScalDFC         ....  0.810000
   Scaling of DF-LDA-C  ScalLDAC        ....  1.000000
   Perturbative correction              ....  0.000000
   NL short-range parameter             ....  4.800000
 RI-approximation to the Coulomb term is turned on
   Number of AuxJ basis functions       .... 371
   RIJ-COSX (HFX calculated with COS-X)).... on


General Settings:
 Integral files         IntName         .... 00_Alanine_zwitterion
 Hartree-Fock type      HFTyp           .... RHF
 Total Charge           Charge          ....    0
 Multiplicity           Mult            ....    1
 Number of Electrons    NEL             ....   48
 Basis Dimension        Dim             ....  228
 Nuclear Repulsion      ENuc            ....    237.5756606263 Eh

Convergence Acceleration:
 AO-DIIS                CNVDIIS         .... on
   Start iteration      DIISMaxIt       ....    12
   Startup error        DIISStart       ....  0.200000
   # of expansion vecs  DIISMaxEq       ....     5
   Bias factor          DIISBfac        ....   1.050
   Max. coefficient     DIISMaxC        ....  10.000
 MO-DIIS                CNVKDIIS        .... off
 Trust-Rad. Augm. Hess. CNVTRAH         .... auto
   Auto Start mean grad. ratio tolernc. ....  1.125000
   Auto Start start iteration           ....    50
   Auto Start num. interpolation iter.  ....    10
   Max. Number of Micro iterations      ....    24
   Max. Number of Macro iterations      .... Maxiter - #DIIS iter
   Number of Davidson start vectors     ....     2
   Converg. threshold    (grad. norm)   ....   1.000e-05
   Grad. Scal. Fac. for Micro threshold ....   0.100
   Minimum threshold for Micro iter.    ....   1.000e-02
   NR start threshold (gradient norm)   ....   1.000e-04
   Initial trust radius                 ....   0.400
   Minimum AH scaling param. (alpha)    ....   1.000
   Maximum AH scaling param. (alpha)    .... 1000.000
   Quad. conv. algorithm                .... NR
   White noise on init. David. guess    .... on
   Maximum white noise                  ....   0.010
   Pseudo random numbers                .... off
   Inactive MOs                         .... canonical
   Orbital update algorithm             .... Taylor
   Preconditioner                       .... Diag
   Full preconditioner red. dimension   ....   250
 SOSCF                  CNVSOSCF        .... on
   Start iteration      SOSCFMaxIt      ....   150
   Startup grad/error   SOSCFStart      ....  0.003300
   Hessian update       SOSCFHessUp     .... L-BFGS
 Level Shifting         CNVShift        .... on
   Level shift para.    LevelShift      ....    0.2500
   Turn off err/grad.   ShiftErr        ....    0.0010
 Zerner damping         CNVZerner       .... off
 Static damping         CNVDamp         .... on
   Fraction old density DampFac         ....    0.7000
   Max. Damping (<1)    DampMax         ....    0.9800
   Min. Damping (>=0)   DampMin         ....    0.0000
   Turn off err/grad.   DampErr         ....    0.1000

SCF Procedure:
 Maximum # iterations   MaxIter         ....   125
 SCF integral mode      SCFMode         .... Direct
   Integral package                     .... SHARK and LIBINT hybrid scheme
 Reset frequency        DirectResetFreq ....    20
 Integral Threshold     Thresh          ....  2.500e-11 Eh
 Primitive CutOff       TCut            ....  2.500e-12 Eh

Convergence Tolerance:
 Convergence Check Mode ConvCheckMode   .... Total+1el-Energy
 Convergence forced     ConvForced      .... 0
 Energy Change          TolE            ....  1.000e-08 Eh
 1-El. energy change                    ....  1.000e-05 Eh
 Orbital Gradient       TolG            ....  1.000e-05
 Orbital Rotation angle TolX            ....  1.000e-05
 DIIS Error             TolErr          ....  5.000e-07

------------------------------
INITIAL GUESS: MODEL POTENTIAL
------------------------------
Loading Hartree-Fock densities                     ... done
Calculating cut-offs                               ... done
Initializing the effective Hamiltonian             ... done
Setting up the integral package (SHARK)            ... done
Starting the Coulomb interaction                   ... done (   0.1 sec)
Making the grid                                    ... done (   0.0 sec)
Mapping shells                                     ... done
Starting the XC term evaluation                    ... done (   0.0 sec)
  promolecular density results
     # of electrons  =     47.996312567
     EX              =    -40.436808406
     EC              =     -1.631115620
     EX+EC           =    -42.067924026
Transforming the Hamiltonian                       ... done (   0.0 sec)
Diagonalizing the Hamiltonian                      ... done (   0.0 sec)
Back transforming the eigenvectors                 ... done (   0.0 sec)
Now organizing SCF variables                       ... done
                      ------------------
                      INITIAL GUESS DONE (   0.2 sec)
                      ------------------
             **** ENERGY FILE WAS UPDATED (00_Alanine_zwitterion.en.tmp) ****
Finished Guess after   0.9 sec
Maximum memory used throughout the entire GUESS-calculation: 12.6 MB


           ************************************************************
           *        Program running with 30 parallel MPI-processes    *
           *              working on a common directory               *
           ************************************************************

-------------------------------------------------------------------------------------------
                                      ORCA LEAN-SCF
                              memory conserving SCF solver
-------------------------------------------------------------------------------------------

--------------------
CPCM SOLVATION MODEL
--------------------
CPCM parameters:
  Epsilon                                         ...      80.1510
  Refrac                                          ...       1.3328
  Rsolv                                           ...       1.3000
  Surface type                                    ... GAUSSIAN VDW
  Discretization scheme                           ... Constant charge density
    Threshold for H atoms                         ...       5.0000 (charges/Ang^2)
    Threshold for non-H atoms                     ...       5.0000 (charges/Ang^2)
  Epsilon function type                           ...         CPCM
Solvent:                                          ... WATER
Radii:
  Scheme                                          ... Element-dependent radii
  Radius for C  used is    3.8550 Bohr (=   2.0400 Ang.)
  Radius for O  used is    3.4469 Bohr (=   1.8240 Ang.)
  Radius for N  used is    3.5149 Bohr (=   1.8600 Ang.)
  Radius for H  used is    2.4944 Bohr (=   1.3200 Ang.)
Calculating surface                               ...        done! (  0.0s)
Cavity surface points                             ...         1165
Cavity Volume                                     ...     767.9705
Cavity Surface-area                               ...     480.4567
Calculating surface distance matrix               ...        done! (  0.0s)
Performing Cholesky decomposition & store         ...        done! (  0.0s)
Overall time for CPCM initialization              ...                 0.0s

----------------------------------------D-I-I-S--------------------------------------------
Iteration    Energy (Eh)           Delta-E    RMSDP     MaxDP     DIISErr   Damp  Time(sec)
-------------------------------------------------------------------------------------------
               ***  Starting incremental Fock matrix formation  ***
    1    -323.4172625829949084     0.00e+00  5.67e-03  5.29e-01  3.70e-01  0.700   0.4
    2    -323.5604375390454379    -1.43e-01  5.16e-03  5.13e-01  1.44e-01  0.700   0.2
                               ***Turning on AO-DIIS***
    3    -323.6082033968481255    -4.78e-02  1.51e-03  1.29e-01  3.62e-02  0.700   0.2
    4    -323.6387984149964723    -3.06e-02  1.31e-03  6.21e-02  1.52e-02  0.000   0.2
    5    -323.7089830652739693    -7.02e-02  1.34e-03  1.38e-01  8.34e-03  0.000   0.2
                              *** Initializing SOSCF ***
---------------------------------------S-O-S-C-F--------------------------------------
Iteration    Energy (Eh)           Delta-E    RMSDP     MaxDP     MaxGrad    Time(sec)
--------------------------------------------------------------------------------------
    6    -323.7093793166409341    -3.96e-04  4.44e-04  4.49e-02  2.48e-03     0.2
               *** Restarting incremental Fock matrix formation ***
    7    -323.7093956363163443    -1.63e-05  3.27e-04  3.08e-02  4.95e-04     0.3
    8    -323.7093874088038774     8.23e-06  5.25e-05  3.09e-03  1.14e-03     0.2
    9    -323.7094014152395403    -1.40e-05  3.28e-05  3.15e-03  6.77e-05     0.2
   10    -323.7094013176711087     9.76e-08  6.98e-06  6.11e-04  8.98e-05     0.2
   11    -323.7094015782838596    -2.61e-07  8.58e-06  8.57e-04  1.90e-05     0.2
   12    -323.7094015708804591     7.40e-09  4.70e-06  4.71e-04  2.80e-05     0.2
                 **** Energy Check signals convergence ****

               *****************************************************
               *                     SUCCESS                       *
               *           SCF CONVERGED AFTER  12 CYCLES          *
               *****************************************************

Recomputing exchange energy using gridx3       ... done (    0.279 sec)
Old exchange energy                            :     -8.208501968 Eh
New exchange energy                            :     -8.208508807 Eh
Exchange energy change after final integration :     -0.000006838 Eh
Total energy after final integration           :   -323.709408409 Eh
             **** ENERGY FILE WAS UPDATED (00_Alanine_zwitterion.en.tmp) ****

----------------
TOTAL SCF ENERGY
----------------

Total Energy       :       -323.70940840918422 Eh           -8808.58082 eV

Components:
Nuclear Repulsion  :        237.57566062626515 Eh            6464.76239 eV
Electronic Energy  :       -561.15822041599461 Eh          -15269.89148 eV
One Electron Energy:       -912.40267725039496 Eh          -24827.73907 eV
Two Electron Energy:        351.24445683440035 Eh            9557.84758 eV
CPCM Dielectric    :         -0.12684178115104 Eh              -3.45154 eV

Virial components:
Potential Energy   :       -645.71678536119384 Eh          -17570.84701 eV
Kinetic Energy     :        322.00737695200962 Eh            8762.26619 eV
Virial Ratio       :          2.00528569088474

DFT components:
N(Alpha)           :       24.000006358473 electrons
N(Beta)            :       24.000006358473 electrons
N(Total)           :       48.000012716945 electrons
E(X)               :      -32.664837677587 Eh       
E(C)               :       -1.930041197393 Eh       
E(XC)              :      -34.594878874980 Eh       

CPCM Solvation Model Properties:
Surface-charge          :         -0.01895507983878
Corrected charge        :         -0.00000000000000
Outlying charge corr.   :          0.00002941379913 Eh               0.00080 eV
Free-energy (cav+disp)  :  This term is not implemented in the current solvation scheme

---------------
SCF CONVERGENCE
---------------

  Last Energy change         ...   -7.4034e-09  Tolerance :   1.0000e-08
  Last MAX-Density change    ...    4.7091e-04  Tolerance :   1.0000e-07
  Last RMS-Density change    ...    4.6977e-06  Tolerance :   5.0000e-09
  Last DIIS Error            ...    2.4785e-03  Tolerance :   5.0000e-07
  Last Orbital Gradient      ...    2.8021e-05  Tolerance :   1.0000e-05
  Last Orbital Rotation      ...    2.1440e-05  Tolerance :   1.0000e-05


----------------
ORBITAL ENERGIES
----------------

  NO   OCC          E(Eh)            E(eV) 
   0   2.0000     -19.063997      -518.7577 
   1   2.0000     -19.040700      -518.1238 
   2   2.0000     -14.433883      -392.7659 
   3   2.0000     -10.249913      -278.9143 
   4   2.0000     -10.226940      -278.2892 
   5   2.0000     -10.178775      -276.9785 
   6   2.0000      -1.019368       -27.7384 
   7   2.0000      -0.996210       -27.1082 
   8   2.0000      -0.894576       -24.3427 
   9   2.0000      -0.770415       -20.9641 
  10   2.0000      -0.656960       -17.8768 
  11   2.0000      -0.579183       -15.7604 
  12   2.0000      -0.574351       -15.6289 
  13   2.0000      -0.499193       -13.5837 
  14   2.0000      -0.484437       -13.1822 
  15   2.0000      -0.458073       -12.4648 
  16   2.0000      -0.419711       -11.4209 
  17   2.0000      -0.403075       -10.9682 
  18   2.0000      -0.384861       -10.4726 
  19   2.0000      -0.361290        -9.8312 
  20   2.0000      -0.345701        -9.4070 
  21   2.0000      -0.246543        -6.7088 
  22   2.0000      -0.236709        -6.4412 
  23   2.0000      -0.215387        -5.8610 
  24   0.0000       0.010432         0.2839 
  25   0.0000       0.042197         1.1482 
  26   0.0000       0.058506         1.5920 
  27   0.0000       0.069896         1.9020 
  28   0.0000       0.072226         1.9654 
  29   0.0000       0.104827         2.8525 
  30   0.0000       0.120349         3.2749 
  31   0.0000       0.142965         3.8903 
  32   0.0000       0.147509         4.0139 
  33   0.0000       0.152383         4.1465 
  34   0.0000       0.179836         4.8936 
*Only the first 10 virtual orbitals were printed.

                    ********************************
                    * MULLIKEN POPULATION ANALYSIS *
                    ********************************

-----------------------
MULLIKEN ATOMIC CHARGES
-----------------------
   0 C :   -0.220784
   1 C :    0.220671
   2 O :   -0.697098
   3 O :   -0.487152
   4 C :   -0.133520
   5 N :   -0.252245
   6 H :    0.125831
   7 H :    0.125833
   8 H :    0.150011
   9 H :    0.150020
  10 H :    0.338046
  11 H :    0.338191
  12 H :    0.342196
Sum of atomic charges:    0.0000000

--------------------------------
MULLIKEN REDUCED ORBITAL CHARGES
--------------------------------
  0 C s       :     3.183074  s :     3.183074
      pz      :     1.019830  p :     2.958531
      px      :     0.918108
      py      :     1.020592
      dz2     :     0.016957  d :     0.073399
      dxz     :     0.014108
      dyz     :     0.008860
      dx2y2   :     0.015469
      dxy     :     0.018005
      f0      :     0.000537  f :     0.005780
      f+1     :     0.000892
      f-1     :     0.000980
      f+2     :     0.001020
      f-2     :     0.000507
      f+3     :     0.000890
      f-3     :     0.000955

  1 C s       :     3.027199  s :     3.027199
      pz      :     0.860504  p :     2.511638
      px      :     0.826030
      py      :     0.825104
      dz2     :     0.050615  d :     0.216126
      dxz     :     0.058050
      dyz     :     0.031322
      dx2y2   :     0.032624
      dxy     :     0.043515
      f0      :     0.004635  f :     0.024365
      f+1     :     0.004777
      f-1     :     0.002610
      f+2     :     0.004808
      f-2     :     0.002276
      f+3     :     0.001834
      f-3     :     0.003425

  2 O s       :     3.810676  s :     3.810676
      pz      :     1.788039  p :     4.861860
      px      :     1.389792
      py      :     1.684029
      dz2     :     0.003196  d :     0.023183
      dxz     :     0.005713
      dyz     :     0.000518
      dx2y2   :     0.008193
      dxy     :     0.005563
      f0      :     0.000143  f :     0.001379
      f+1     :     0.000275
      f-1     :     0.000019
      f+2     :     0.000237
      f-2     :     0.000066
      f+3     :     0.000343
      f-3     :     0.000295

  3 O s       :     3.758264  s :     3.758264
      pz      :     1.427336  p :     4.699341
      px      :     1.750963
      py      :     1.521042
      dz2     :     0.009163  d :     0.027761
      dxz     :     0.006421
      dyz     :     0.007147
      dx2y2   :     0.002632
      dxy     :     0.002398
      f0      :     0.000488  f :     0.001787
      f+1     :     0.000336
      f-1     :     0.000302
      f+2     :     0.000282
      f-2     :     0.000259
      f+3     :     0.000066
      f-3     :     0.000054

  4 C s       :     3.239175  s :     3.239175
      pz      :     0.908725  p :     2.786660
      px      :     0.873083
      py      :     1.004852
      dz2     :     0.022249  d :     0.099259
      dxz     :     0.021555
      dyz     :     0.014932
      dx2y2   :     0.016275
      dxy     :     0.024248
      f0      :     0.000743  f :     0.008427
      f+1     :     0.001555
      f-1     :     0.001164
      f+2     :     0.001508
      f-2     :     0.001260
      f+3     :     0.001068
      f-3     :     0.001128

  5 N s       :     3.446757  s :     3.446757
      pz      :     1.242816  p :     3.756356
      px      :     1.255755
      py      :     1.257786
      dz2     :     0.014921  d :     0.046803
      dxz     :     0.005257
      dyz     :     0.007336
      dx2y2   :     0.015046
      dxy     :     0.004243
      f0      :     0.000265  f :     0.002328
      f+1     :     0.000211
      f-1     :     0.000587
      f+2     :     0.000518
      f-2     :     0.000137
      f+3     :     0.000458
      f-3     :     0.000152

  6 H s       :     0.852908  s :     0.852908
      pz      :     0.011493  p :     0.021261
      px      :     0.003878
      py      :     0.005890

  7 H s       :     0.852909  s :     0.852909
      pz      :     0.004381  p :     0.021257
      px      :     0.005061
      py      :     0.011816

  8 H s       :     0.828958  s :     0.828958
      pz      :     0.012158  p :     0.021031
      px      :     0.003697
      py      :     0.005176

  9 H s       :     0.828949  s :     0.828949
      pz      :     0.003758  p :     0.021031
      px      :     0.004530
      py      :     0.012742

 10 H s       :     0.630309  s :     0.630309
      pz      :     0.005669  p :     0.031645
      px      :     0.006851
      py      :     0.019125

 11 H s       :     0.630172  s :     0.630172
      pz      :     0.017581  p :     0.031637
      px      :     0.005556
      py      :     0.008500

 12 H s       :     0.626330  s :     0.626330
      pz      :     0.007087  p :     0.031475
      px      :     0.018890
      py      :     0.005498



                     *******************************
                     * LOEWDIN POPULATION ANALYSIS *
                     *******************************

----------------------
LOEWDIN ATOMIC CHARGES
----------------------
   0 C :   -0.251855
   1 C :   -0.635587
   2 O :   -0.296097
   3 O :   -0.056982
   4 C :   -0.269412
   5 N :    0.178256
   6 H :    0.155964
   7 H :    0.155990
   8 H :    0.151309
   9 H :    0.151355
  10 H :    0.238562
  11 H :    0.238671
  12 H :    0.239825

-------------------------------
LOEWDIN REDUCED ORBITAL CHARGES
-------------------------------
  0 C s       :     2.795627  s :     2.795627
      pz      :     1.035178  p :     3.064171
      px      :     0.998438
      py      :     1.030554
      dz2     :     0.074803  d :     0.355680
      dxz     :     0.072434
      dyz     :     0.049328
      dx2y2   :     0.084655
      dxy     :     0.074460
      f0      :     0.003581  f :     0.036378
      f+1     :     0.005674
      f-1     :     0.005283
      f+2     :     0.005744
      f-2     :     0.004845
      f+3     :     0.005140
      f-3     :     0.006110

  1 C s       :     2.782918  s :     2.782918
      pz      :     0.959568  p :     2.728695
      px      :     0.953106
      py      :     0.816022
      dz2     :     0.211544  d :     0.969807
      dxz     :     0.287435
      dyz     :     0.137269
      dx2y2   :     0.158765
      dxy     :     0.174793
      f0      :     0.029754  f :     0.154166
      f+1     :     0.029275
      f-1     :     0.019302
      f+2     :     0.028231
      f-2     :     0.012710
      f+3     :     0.014497
      f-3     :     0.020396

  2 O s       :     3.499354  s :     3.499354
      pz      :     1.695075  p :     4.745189
      px      :     1.453653
      py      :     1.596461
      dz2     :     0.006919  d :     0.047778
      dxz     :     0.012618
      dyz     :     0.000834
      dx2y2   :     0.018096
      dxy     :     0.009311
      f0      :     0.000386  f :     0.003776
      f+1     :     0.000781
      f-1     :     0.000028
      f+2     :     0.000761
      f-2     :     0.000138
      f+3     :     0.001009
      f-3     :     0.000672

  3 O s       :     3.404855  s :     3.404855
      pz      :     1.490963  p :     4.580661
      px      :     1.638982
      py      :     1.450716
      dz2     :     0.019730  d :     0.065461
      dxz     :     0.017825
      dyz     :     0.017169
      dx2y2   :     0.005544
      dxy     :     0.005194
      f0      :     0.001152  f :     0.006006
      f+1     :     0.001332
      f-1     :     0.001354
      f+2     :     0.000920
      f-2     :     0.000961
      f+3     :     0.000128
      f-3     :     0.000158

  4 C s       :     2.804493  s :     2.804493
      pz      :     0.977019  p :     2.978397
      px      :     0.982767
      py      :     1.018611
      dz2     :     0.092537  d :     0.434594
      dxz     :     0.093791
      dyz     :     0.069227
      dx2y2   :     0.088287
      dxy     :     0.090751
      f0      :     0.004848  f :     0.051928
      f+1     :     0.009687
      f-1     :     0.006585
      f+2     :     0.008675
      f-2     :     0.008847
      f+3     :     0.006340
      f-3     :     0.006945

  5 N s       :     2.985644  s :     2.985644
      pz      :     1.226878  p :     3.666365
      px      :     1.219006
      py      :     1.220480
      dz2     :     0.046326  d :     0.159534
      dxz     :     0.021946
      dyz     :     0.027892
      dx2y2   :     0.047016
      dxy     :     0.016354
      f0      :     0.001159  f :     0.010201
      f+1     :     0.001329
      f-1     :     0.002084
      f+2     :     0.002008
      f-2     :     0.001158
      f+3     :     0.001705
      f-3     :     0.000758

  6 H s       :     0.786695  s :     0.786695
      pz      :     0.028886  p :     0.057341
      px      :     0.011226
      py      :     0.017228

  7 H s       :     0.786683  s :     0.786683
      pz      :     0.012585  p :     0.057327
      px      :     0.013991
      py      :     0.030751

  8 H s       :     0.790987  s :     0.790987
      pz      :     0.031285  p :     0.057704
      px      :     0.010642
      py      :     0.015778

  9 H s       :     0.790952  s :     0.790952
      pz      :     0.010808  p :     0.057693
      px      :     0.012605
      py      :     0.034280

 10 H s       :     0.667209  s :     0.667209
      pz      :     0.016102  p :     0.094229
      px      :     0.020881
      py      :     0.057246

 11 H s       :     0.667117  s :     0.667117
      pz      :     0.051925  p :     0.094211
      px      :     0.015706
      py      :     0.026580

 12 H s       :     0.665968  s :     0.665968
      pz      :     0.022063  p :     0.094208
      px      :     0.056427
      py      :     0.015718



                      *****************************
                      * MAYER POPULATION ANALYSIS *
                      *****************************

  NA   - Mulliken gross atomic population
  ZA   - Total nuclear charge
  QA   - Mulliken gross atomic charge
  VA   - Mayer's total valence
  BVA  - Mayer's bonded valence
  FA   - Mayer's free valence

  ATOM       NA         ZA         QA         VA         BVA        FA
  0 C      6.2208     6.0000    -0.2208     3.6337     3.6337     0.0000
  1 C      5.7793     6.0000     0.2207     4.6035     4.6035    -0.0000
  2 O      8.6971     8.0000    -0.6971     1.7208     1.7208    -0.0000
  3 O      8.4872     8.0000    -0.4872     1.9048     1.9048     0.0000
  4 C      6.1335     6.0000    -0.1335     3.8016     3.8016     0.0000
  5 N      7.2522     7.0000    -0.2522     3.5175     3.5175     0.0000
  6 H      0.8742     1.0000     0.1258     0.9843     0.9843     0.0000
  7 H      0.8742     1.0000     0.1258     0.9843     0.9843     0.0000
  8 H      0.8500     1.0000     0.1500     0.9778     0.9778     0.0000
  9 H      0.8500     1.0000     0.1500     0.9777     0.9777     0.0000
 10 H      0.6620     1.0000     0.3380     0.8838     0.8838     0.0000
 11 H      0.6618     1.0000     0.3382     0.8837     0.8837    -0.0000
 12 H      0.6578     1.0000     0.3422     0.8785     0.8785    -0.0000

  Mayer bond orders larger than 0.100000
B(  0-C ,  1-C ) :   0.9310 B(  0-C ,  4-C ) :   0.9485 B(  0-C ,  6-H ) :   0.9405 
B(  0-C ,  7-H ) :   0.9403 B(  1-C ,  2-O ) :   1.7471 B(  1-C ,  3-O ) :   1.8904 
B(  4-C ,  5-N ) :   0.9082 B(  4-C ,  8-H ) :   0.9552 B(  4-C ,  9-H ) :   0.9552 
B(  5-N , 10-H ) :   0.8665 B(  5-N , 11-H ) :   0.8665 B(  5-N , 12-H ) :   0.8675 


-------
TIMINGS
-------

Total SCF time: 0 days 0 hours 0 min 3 sec 

Total time                  ....       3.901 sec
Sum of individual times     ....       3.886 sec  ( 99.6%)

SCF preparation             ....       0.747 sec  ( 19.2%)
Fock matrix formation       ....       2.842 sec  ( 72.9%)
  Startup                   ....       0.017 sec  (  0.6% of F)
  Split-RI-J                ....       0.263 sec  (  9.2% of F)
  Chain of spheres X        ....       1.711 sec  ( 60.2% of F)
  XC integration            ....       0.426 sec  ( 15.0% of F)
    XC Preparation          ....       0.000 sec  (  0.0% of XC)
    Basis function eval.    ....       0.091 sec  ( 21.4% of XC)
    Density eval.           ....       0.083 sec  ( 19.6% of XC)
    XC-Functional eval.     ....       0.014 sec  (  3.4% of XC)
    XC-Potential eval.      ....       0.119 sec  ( 28.0% of XC)
  CPCM terms                ....       0.382 sec  ( 13.5% of F)
Diagonalization             ....       0.000 sec  (  0.0%)
Density matrix formation    ....       0.033 sec  (  0.9%)
Total Energy calculation    ....       0.028 sec  (  0.7%)
Population analysis         ....       0.014 sec  (  0.4%)
Orbital Transformation      ....       0.026 sec  (  0.7%)
Orbital Orthonormalization  ....       0.000 sec  (  0.0%)
DIIS solution               ....       0.127 sec  (  3.3%)
SOSCF solution              ....       0.068 sec  (  1.7%)
Finished LeanSCF after   3.9 sec

Maximum memory used throughout the entire LEANSCF-calculation: 20.7 MB


-------------------------------------------------------------------------------
                          DFT DISPERSION CORRECTION                            
                                                                               
                                DFTD4 V3.4.0                                   
-------------------------------------------------------------------------------
The B3LYP functional is recognized
Active option DFTDOPT                   ...         5   

-------------------------   ----------------
Dispersion correction           -0.013363754
-------------------------   ----------------


-------------------------   --------------------
FINAL SINGLE POINT ENERGY      -323.722772163363
-------------------------   --------------------



           ************************************************************
           *        Program running with 30 parallel MPI-processes    *
           *              working on a common directory               *
           ************************************************************
------------------------------------------------------------------------------
                         ORCA SCF GRADIENT CALCULATION
------------------------------------------------------------------------------

Nuc. rep. gradient        (SHARK) ... done (  0.0 sec)
HCore & Overlap gradient  (SHARK) ... done (  0.0 sec)
Split-RIJ-J gradient      (SHARK) ... done (  0.2 sec)
COSX-gradient                     ... done (  0.9 sec)
XC gradient                       ... done (  0.1 sec)
CPCM gradient                     ... done (  0.2 sec)
Dispersion correction             ... done (  0.1 sec)

-------------------
DISPERSION GRADIENT
-------------------

   1   C   :   -0.000114776   -0.000028544   -0.000095579
   2   C   :   -0.000346349    0.000139378    0.000121521
   3   O   :   -0.000382124    0.000084274    0.000007696
   4   O   :   -0.000178955    0.000232911    0.000355296
   5   C   :    0.000272969   -0.000054218    0.000005341
   6   N   :    0.000383364   -0.000157006   -0.000139500
   7   H   :   -0.000057172    0.000038275   -0.000101675
   8   H   :   -0.000082751   -0.000083851   -0.000034496
   9   H   :    0.000089995   -0.000046026    0.000033850
  10   H   :    0.000104243    0.000021982   -0.000003573
  11   H   :    0.000066972   -0.000111900   -0.000043502
  12   H   :    0.000089974   -0.000002076   -0.000103897
  13   H   :    0.000154610   -0.000033199   -0.000001483

Difference to translation invariance:
           :    0.0000000000    0.0000000000    0.0000000000

Difference to rotation invariance:
           :    0.0000000000    0.0000000000    0.0000000000

Norm of the Dispersion gradient    ...    0.0009629068
RMS gradient                       ...    0.0001541885
MAX gradient                       ...    0.0003833645

------------------
CARTESIAN GRADIENT
------------------

   1   C   :   -0.007535913    0.009229849    0.013760277
   2   C   :    0.093169971   -0.013106537    0.011803589
   3   O   :   -0.062892405    0.016033755    0.005296539
   4   O   :   -0.029502214   -0.007318562   -0.024659883
   5   C   :    0.022340391   -0.019850113   -0.027760837
   6   N   :   -0.016534097    0.009506935    0.011218602
   7   H   :    0.001421801    0.007562397   -0.008112650
   8   H   :   -0.002367535   -0.010781320    0.001988832
   9   H   :   -0.003043183   -0.006380169    0.014681269
  10   H   :    0.001658642    0.016069130    0.002305986
  11   H   :   -0.009303782   -0.016803440    0.002090389
  12   H   :   -0.003013371    0.012856833   -0.014070063
  13   H   :    0.015601695    0.002981243    0.011457952

Difference to translation invariance:
           :   -0.0000000000    0.0000000000    0.0000000000

Difference to rotation invariance:
           :    0.0000131147    0.0006321136   -0.0002539206

Norm of the Cartesian gradient     ...    0.1384230766
RMS gradient                       ...    0.0221654317
MAX gradient                       ...    0.0931699706

-------
TIMINGS
-------

Total SCF gradient time     ....        1.517 sec

Densities                   ....       0.001 sec  (  0.1%)
One electron gradient       ....       0.019 sec  (  1.2%)
RI-J Coulomb gradient       ....       0.177 sec  ( 11.7%)
COSX gradient               ....       0.939 sec  ( 61.9%)
XC gradient                 ....       0.141 sec  (  9.3%)
CPCM gradient               ....       0.184 sec  ( 12.1%)
   A-Matrix (El+Nuc)        ....       0.039 sec  (  2.6%)
   Potential                ....       0.145 sec  (  9.5%)

Maximum memory used throughout the entire SCFGRAD-calculation: 31.6 MB
------------------------------------------------------------------------------
                         ORCA GEOMETRY RELAXATION STEP
------------------------------------------------------------------------------

Reading the OPT-File                    .... done
Getting information on internals        .... done
Copying old internal coords+grads       .... done
Making the new internal coordinates     .... (2022 redundants) done
Validating the new internal coordinates .... (2022 redundants) done
Calculating the B-matrix                .... done
Calculating the G,G- and P matrices     .... done
Transforming gradient to internals      .... done
Projecting the internal gradient        .... done
Number of atoms                         ....  13
Number of internal coordinates          ....  50
Current Energy                          ....  -323.722772163 Eh
Current gradient norm                   ....     0.138423077 Eh/bohr
Maximum allowed component of the step   ....  0.300
Current trust radius                    ....  0.300
Evaluating the initial hessian          ....  (Almloef) done
Projecting the Hessian                  .... done
Forming the augmented Hessian           .... done
Diagonalizing the augmented Hessian     .... done
Last element of RFO vector              ....  0.982358605
Lowest eigenvalues of augmented Hessian:
 -0.017258125  0.010610428  0.012292209  0.012292483  0.016783598
Length of the computed step             ....  0.190365183
The final length of the internal step   ....  0.190365183
Converting the step to Cartesian space:
 Initial RMS(Int)=    0.0269217023
Transforming coordinates:
 Iter   0:  RMS(Cart)=    0.0317152345 RMS(Int)=    0.0268645079
 Iter   5:  RMS(Cart)=    0.0000000049 RMS(Int)=    0.0000000031
done
Storing new coordinates                 .... done

                                .--------------------.
          ----------------------|Geometry convergence|-------------------------
          Item                value                   Tolerance       Converged
          ---------------------------------------------------------------------
          RMS gradient        0.0135795934            0.0000300000      NO
          MAX gradient        0.0610904548            0.0001000000      NO
          RMS step            0.0269217023            0.0006000000      NO
          MAX step            0.0905896422            0.0010000000      NO
          ........................................................
          Max(Bonds)      0.0479      Max(Angles)    4.15
          Max(Dihed)        0.75      Max(Improp)    0.00
          ---------------------------------------------------------------------

The optimization has not yet converged - more geometry cycles are needed


    ---------------------------------------------------------------------------
                         Redundant Internal Coordinates
                            (Angstroem and degrees)

        Definition                    Value    dE/dq     Step     New-Value
    ----------------------------------------------------------------------------
     1. B(C   1,C   0)                1.5065 -0.007347  0.0092    1.5156   
     2. B(O   2,C   1)                1.3463  0.061090 -0.0479    1.2983   
     3. B(O   3,C   1)                1.2217 -0.033900  0.0170    1.2387   
     4. B(C   4,C   0)                1.5371  0.007355 -0.0102    1.5269   
     5. B(N   5,C   4)                1.4626 -0.018862  0.0224    1.4850   
     6. B(H   6,C   0)                1.1112  0.010640 -0.0161    1.0952   
     7. B(H   7,C   0)                1.1113  0.010654 -0.0161    1.0952   
     8. B(H   8,C   4)                1.1130  0.015818 -0.0240    1.0890   
     9. B(H   9,C   4)                1.1131  0.015839 -0.0241    1.0890   
    10. B(H  10,N   5)                1.0459  0.018525 -0.0247    1.0212   
    11. B(H  11,N   5)                1.0460  0.018481 -0.0247    1.0213   
    12. B(H  12,N   5)                1.0456  0.018574 -0.0248    1.0209   
    13. A(C   4,C   0,H   6)          109.14 -0.001711    0.37    109.52   
    14. A(C   1,C   0,C   4)          113.12  0.002199   -0.17    112.94   
    15. A(H   6,C   0,H   7)          108.68  0.003026   -0.96    107.73   
    16. A(C   1,C   0,H   7)          108.33 -0.000592    0.15    108.48   
    17. A(C   4,C   0,H   7)          109.14 -0.002243    0.44    109.58   
    18. A(C   1,C   0,H   6)          108.34 -0.000556    0.11    108.45   
    19. A(O   2,C   1,O   3)          119.35 -0.034216    4.15    123.50   
    20. A(C   0,C   1,O   2)          119.26  0.023168   -2.95    116.31   
    21. A(C   0,C   1,O   3)          121.39  0.011048   -1.20    120.19   
    22. A(N   5,C   4,H   9)          109.16  0.004639   -0.79    108.37   
    23. A(C   0,C   4,H   9)          109.51 -0.003313    0.74    110.25   
    24. A(N   5,C   4,H   8)          109.16  0.002634   -0.71    108.45   
    25. A(C   0,C   4,H   8)          109.51 -0.003594    0.81    110.33   
    26. A(H   8,C   4,H   9)          108.53 -0.001061   -0.04    108.49   
    27. A(C   0,C   4,N   5)          110.93  0.000699   -0.02    110.91   
    28. A(H  11,N   5,H  12)          108.87  0.005562   -0.89    107.98   
    29. A(H  10,N   5,H  12)          108.87  0.005446   -0.87    108.00   
    30. A(C   4,N   5,H  12)          109.12 -0.006828    1.25    110.38   
    31. A(H  10,N   5,H  11)          109.72  0.005882   -1.19    108.53   
    32. A(C   4,N   5,H  11)          110.11 -0.004962    0.84    110.95   
    33. A(C   4,N   5,H  10)          110.12 -0.004930    0.83    110.95   
    34. D(O   3,C   1,C   0,C   4)      0.01 -0.000515    0.12      0.13   
    35. D(O   2,C   1,C   0,C   4)    180.00  0.000266   -0.10    179.90   
    36. D(O   2,C   1,C   0,H   6)     58.86  0.001399   -0.54     58.32   
    37. D(O   3,C   1,C   0,H   6)   -121.13  0.000617   -0.32   -121.45   
    38. D(O   2,C   1,C   0,H   7)    -58.87 -0.001565    0.45    -58.42   
    39. D(N   5,C   4,C   0,H   6)    -59.32  0.000074    0.16    -59.16   
    40. D(N   5,C   4,C   0,C   1)    180.00  0.000537   -0.13    179.86   
    41. D(H   8,C   4,C   0,H   6)   -179.88 -0.001304    0.53   -179.34   
    42. D(H   8,C   4,C   0,C   1)     59.44 -0.000841    0.24     59.68   
    43. D(H   8,C   4,C   0,H   7)    -61.23  0.000042   -0.14    -61.37   
    44. D(N   5,C   4,C   0,H   7)     59.32  0.001420   -0.51     58.81   
    45. D(H  10,N   5,C   4,H   9)    178.68  0.000815   -0.36    178.33   
    46. D(H  10,N   5,C   4,H   8)     60.20 -0.002147    0.57     60.77   
    47. D(H  11,N   5,C   4,C   0)     60.55  0.001079   -0.36     60.20   
    48. D(H  10,N   5,C   4,C   0)    -60.56  0.000162    0.04    -60.52   
    49. D(H  11,N   5,C   4,H   9)    -60.20  0.001732   -0.75    -60.96   
    50. D(H  11,N   5,C   4,H   8)   -178.68 -0.001231    0.17   -178.51   
    ----------------------------------------------------------------------------

Geometry step timings:
Preparation and reading OPT file:      0.000 s (10.258 %)
Internal coordinates            :      0.000 s ( 1.566 %)
B/P matrices and projection     :      0.000 s (26.860 %)
Hessian update/contruction      :      0.000 s ( 8.457 %)
Making the step                 :      0.000 s (20.204 %)
Converting the step to Cartesian:      0.000 s ( 3.994 %)
Storing new data                :      0.000 s ( 1.644 %)
Checking convergence            :      0.000 s ( 0.157 %)
Final printing                  :      0.000 s (26.155 %)
Total time                      :      0.001 s

Time for energy+gradient        :     11.875 s
Time for complete geometry iter :     13.013 s

         *************************************************************
         *                GEOMETRY OPTIMIZATION CYCLE   2            *
         *************************************************************
---------------------------------
CARTESIAN COORDINATES (ANGSTROEM)
---------------------------------
  C     -0.277326    0.214465   -1.445719
  C     -1.210169    0.932165   -0.490800
  O     -2.456931    1.000434   -0.846614
  O     -0.771613    1.418825    0.560520
  C      1.167847    0.181574   -0.953954
  N      2.040244   -0.533346   -1.919851
  H     -0.321802    0.717593   -2.417457
  H     -0.641707   -0.809172   -1.583207
  H      1.228892   -0.326774    0.007134
  H      1.548055    1.194857   -0.833167
  H      1.734228   -1.499899   -2.041946
  H      2.030521   -0.072289   -2.831102
  H      3.004359   -0.547831   -1.584536

----------------------------
CARTESIAN COORDINATES (A.U.)
----------------------------
  NO LB      ZA    FRAG     MASS         X           Y           Z
   0 C     6.0000    0    12.011   -0.524069    0.405280   -2.732013
   1 C     6.0000    0    12.011   -2.286888    1.761536   -0.927478
   2 O     8.0000    0    15.999   -4.642926    1.890547   -1.599869
   3 O     8.0000    0    15.999   -1.458137    2.681190    1.059229
   4 C     6.0000    0    12.011    2.206911    0.343126   -1.802712
   5 N     7.0000    0    14.007    3.855502   -1.007878   -3.627993
   6 H     1.0000    0     1.008   -0.608117    1.356054   -4.568333
   7 H     1.0000    0     1.008   -1.212650   -1.529114   -2.991827
   8 H     1.0000    0     1.008    2.322270   -0.617514    0.013481
   9 H     1.0000    0     1.008    2.925401    2.257952   -1.574458
  10 H     1.0000    0     1.008    3.277216   -2.834399   -3.858718
  11 H     1.0000    0     1.008    3.837128   -0.136607   -5.350007
  12 H     1.0000    0     1.008    5.677415   -1.035250   -2.994338

--------------------------------
INTERNAL COORDINATES (ANGSTROEM)
--------------------------------
 C      0   0   0     0.000000000000     0.00000000     0.00000000
 C      1   0   0     1.515637919094     0.00000000     0.00000000
 O      2   1   0     1.298337097352   116.31226654     0.00000000
 O      2   1   3     1.238726609931   120.18928348   180.23488560
 C      1   2   3     1.526904940390   112.94316054   179.89660958
 N      5   1   2     1.484972576439   110.91114191   179.86292024
 H      1   2   3     1.095167306106   108.45125949    58.31591481
 H      1   2   3     1.095221413209   108.47564033   301.57823636
 H      5   1   2     1.088960606633   110.32594792    59.68254839
 H      5   1   2     1.088985160903   110.25082100   299.88897710
 H      6   5   1     1.021164862774   110.94103308   299.47806093
 H      6   5   1     1.021296131279   110.94227757    60.19260858
 H      6   5   1     1.020864302559   110.36556459   179.82105835

---------------------------
INTERNAL COORDINATES (A.U.)
---------------------------
 C      0   0   0     0.000000000000     0.00000000     0.00000000
 C      1   0   0     2.864140585274     0.00000000     0.00000000
 O      2   1   0     2.453501543506   116.31226654     0.00000000
 O      2   1   3     2.340854047571   120.18928348   180.23488560
 C      1   2   3     2.885432169868   112.94316054   179.89660958
 N      5   1   2     2.806191485854   110.91114191   179.86292024
 H      1   2   3     2.069566279364   108.45125949    58.31591481
 H      1   2   3     2.069668526972   108.47564033   301.57823636
 H      5   1   2     2.057837317166   110.32594792    59.68254839
 H      5   1   2     2.057883718010   110.25082100   299.88897710
 H      6   5   1     1.929721928227   110.94103308   299.47806093
 H      6   5   1     1.929969989751   110.94227757    60.19260858
 H      6   5   1     1.929153951732   110.36556459   179.82105835



           ************************************************************
           *        Program running with 30 parallel MPI-processes    *
           *              working on a common directory               *
           ************************************************************
------------------------------------------------------------------------------
                   ___                                                        
                  /   \      - P O W E R E D   B Y -                         
                 /     \                                                     
                 |  |  |   _    _      __       _____    __    __             
                 |  |  |  | |  | |    /  \     |  _  \  |  |  /  |          
                  \  \/   | |  | |   /    \    | | | |  |  | /  /          
                 / \  \   | |__| |  /  /\  \   | |_| |  |  |/  /          
                |  |  |   |  __  | /  /__\  \  |    /   |      \           
                |  |  |   | |  | | |   __   |  |    \   |  |\   \          
                \     /   | |  | | |  |  |  |  | |\  \  |  | \   \       
                 \___/    |_|  |_| |__|  |__|  |_| \__\ |__|  \__/        
                                                                              
                      - O R C A' S   B I G   F R I E N D -                    
                                      &                                       
                       - I N T E G R A L  F E E D E R -                       
                                                                              
 v1 FN, 2020, v2 2021, v3 2022-2024                                           
------------------------------------------------------------------------------


----------------------
SHARK INTEGRAL PACKAGE
----------------------

Number of atoms                             ...     13
Number of basis functions                   ...    228
Number of shells                            ...     94
Maximum angular momentum                    ...      3
Integral batch strategy                     ... SHARK/LIBINT Hybrid
RI-J (if used) integral strategy            ... SPLIT-RIJ (Revised 2003 algorithm where possible)
Printlevel                                  ...      1
[...]
      dyz     :     0.006589
      dx2y2   :     0.014670
      dxy     :     0.003532
      f0      :     0.000251  f :     0.002181
      f+1     :     0.000205
      f-1     :     0.000543
      f+2     :     0.000453
      f-2     :     0.000146
      f+3     :     0.000426
      f-3     :     0.000158

  6 H s       :     0.859403  s :     0.859403
      pz      :     0.011752  p :     0.021856
      px      :     0.004099
      py      :     0.006006

  7 H s       :     0.857097  s :     0.857097
      pz      :     0.004830  p :     0.021867
      px      :     0.005283
      py      :     0.011755

  8 H s       :     0.832818  s :     0.832818
      pz      :     0.012101  p :     0.021758
      px      :     0.003985
      py      :     0.005673

  9 H s       :     0.831495  s :     0.831495
      pz      :     0.004049  p :     0.021710
      px      :     0.005032
      py      :     0.012630

 10 H s       :     0.640725  s :     0.640725
      pz      :     0.006404  p :     0.033398
      px      :     0.007105
      py      :     0.019889

 11 H s       :     0.640811  s :     0.640811
      pz      :     0.018595  p :     0.033410
      px      :     0.006165
      py      :     0.008650

 12 H s       :     0.636983  s :     0.636983
      pz      :     0.007314  p :     0.033290
      px      :     0.019832
      py      :     0.006143



                     *******************************
                     * LOEWDIN POPULATION ANALYSIS *
                     *******************************

----------------------
LOEWDIN ATOMIC CHARGES
----------------------
   0 C :   -0.257161
   1 C :   -0.676971
   2 O :   -0.139546
   3 O :   -0.125421
   4 C :   -0.241676
   5 N :    0.189823
   6 H :    0.146546
   7 H :    0.147605
   8 H :    0.144104
   9 H :    0.144660
  10 H :    0.222561
  11 H :    0.222484
  12 H :    0.222991

-------------------------------
LOEWDIN REDUCED ORBITAL CHARGES
-------------------------------
  0 C s       :     2.793589  s :     2.793589
      pz      :     1.035910  p :     3.072493
      px      :     1.001552
      py      :     1.035031
      dz2     :     0.076215  d :     0.354951
      dxz     :     0.072385
      dyz     :     0.046739
      dx2y2   :     0.083580
      dxy     :     0.076033
      f0      :     0.003576  f :     0.036128
      f+1     :     0.005561
      f-1     :     0.005083
      f+2     :     0.005528
      f-2     :     0.004720
      f+3     :     0.005361
      f-3     :     0.006300

  1 C s       :     2.777278  s :     2.777278
      pz      :     0.946674  p :     2.730758
      px      :     0.975307
      py      :     0.808777
      dz2     :     0.216938  d :     1.011493
      dxz     :     0.316384
      dyz     :     0.138789
      dx2y2   :     0.152464
      dxy     :     0.186919
      f0      :     0.027434  f :     0.157442
      f+1     :     0.033918
      f-1     :     0.017442
      f+2     :     0.029248
      f-2     :     0.013168
      f+3     :     0.014710
      f-3     :     0.021521

  2 O s       :     3.430995  s :     3.430995
      pz      :     1.623930  p :     4.644174
      px      :     1.499302
      py      :     1.520942
      dz2     :     0.008522  d :     0.059157
      dxz     :     0.017883
      dyz     :     0.001680
      dx2y2   :     0.018876
      dxy     :     0.012196
      f0      :     0.000536  f :     0.005221
      f+1     :     0.001132
      f-1     :     0.000027
      f+2     :     0.001176
      f-2     :     0.000330
      f+3     :     0.001121
      f-3     :     0.000899

  3 O s       :     3.428955  s :     3.428955
      pz      :     1.497592  p :     4.631771
      px      :     1.641523
      py      :     1.492656
      dz2     :     0.018885  d :     0.059479
      dxz     :     0.016840
      dyz     :     0.014827
      dx2y2   :     0.004559
      dxy     :     0.004367
      f0      :     0.001016  f :     0.005215
      f+1     :     0.001320
      f-1     :     0.001084
      f+2     :     0.000767
      f-2     :     0.000799
      f+3     :     0.000104
      f-3     :     0.000125

  4 C s       :     2.802088  s :     2.802088
      pz      :     0.965987  p :     2.964573
      px      :     0.982521
      py      :     1.016065
      dz2     :     0.084728  d :     0.425630
      dxz     :     0.097256
      dyz     :     0.066638
      dx2y2   :     0.080749
      dxy     :     0.096259
      f0      :     0.004196  f :     0.049385
      f+1     :     0.009670
      f-1     :     0.005986
      f+2     :     0.007681
      f-2     :     0.008911
      f+3     :     0.006239
      f-3     :     0.006702

  5 N s       :     2.978893  s :     2.978893
      pz      :     1.227414  p :     3.672208
      px      :     1.219366
      py      :     1.225428
      dz2     :     0.044646  d :     0.149643
      dxz     :     0.019682
      dyz     :     0.025202
      dx2y2   :     0.045968
      dxy     :     0.014145
      f0      :     0.001121  f :     0.009433
      f+1     :     0.001169
      f-1     :     0.002030
      f+2     :     0.001634
      f-2     :     0.001022
      f+3     :     0.001657
      f-3     :     0.000800

  6 H s       :     0.793238  s :     0.793238
      pz      :     0.030214  p :     0.060216
      px      :     0.012088
      py      :     0.017913

  7 H s       :     0.792113  s :     0.792113
      pz      :     0.013978  p :     0.060281
      px      :     0.014907
      py      :     0.031396

  8 H s       :     0.794527  s :     0.794527
      pz      :     0.031935  p :     0.061369
      px      :     0.011776
      py      :     0.017658

  9 H s       :     0.794102  s :     0.794102
      pz      :     0.011978  p :     0.061238
      px      :     0.014331
      py      :     0.034929

 10 H s       :     0.677048  s :     0.677048
      pz      :     0.018669  p :     0.100391
      px      :     0.021788
      py      :     0.059934

 11 H s       :     0.677144  s :     0.677144
      pz      :     0.055364  p :     0.100372
      px      :     0.017931
      py      :     0.027077

 12 H s       :     0.676424  s :     0.676424
      pz      :     0.022857  p :     0.100585
      px      :     0.059671
      py      :     0.018057



                      *****************************
                      * MAYER POPULATION ANALYSIS *
                      *****************************

  NA   - Mulliken gross atomic population
  ZA   - Total nuclear charge
  QA   - Mulliken gross atomic charge
  VA   - Mayer's total valence
  BVA  - Mayer's bonded valence
  FA   - Mayer's free valence

  ATOM       NA         ZA         QA         VA         BVA        FA
  0 C      6.2659     6.0000    -0.2659     3.6597     3.6597    -0.0000
  1 C      5.7528     6.0000     0.2472     4.6012     4.6012     0.0000
  2 O      8.5745     8.0000    -0.5745     1.8455     1.8455     0.0000
  3 O      8.5635     8.0000    -0.5635     1.8373     1.8373     0.0000
  4 C      6.1028     6.0000    -0.1028     3.7767     3.7767     0.0000
  5 N      7.2538     7.0000    -0.2538     3.5214     3.5214    -0.0000
  6 H      0.8813     1.0000     0.1187     0.9839     0.9839     0.0000
  7 H      0.8790     1.0000     0.1210     0.9802     0.9802     0.0000
  8 H      0.8546     1.0000     0.1454     0.9817     0.9817     0.0000
  9 H      0.8532     1.0000     0.1468     0.9786     0.9786     0.0000
 10 H      0.6741     1.0000     0.3259     0.8935     0.8935    -0.0000
 11 H      0.6742     1.0000     0.3258     0.8937     0.8937    -0.0000
 12 H      0.6703     1.0000     0.3297     0.8893     0.8893    -0.0000

  Mayer bond orders larger than 0.100000
B(  0-C ,  1-C ) :   0.9293 B(  0-C ,  4-C ) :   0.9497 B(  0-C ,  6-H ) :   0.9503 
B(  0-C ,  7-H ) :   0.9468 B(  1-C ,  2-O ) :   1.8379 B(  1-C ,  3-O ) :   1.8080 
B(  4-C ,  5-N ) :   0.8747 B(  4-C ,  8-H ) :   0.9593 B(  4-C ,  9-H ) :   0.9603 
B(  5-N , 10-H ) :   0.8789 B(  5-N , 11-H ) :   0.8788 B(  5-N , 12-H ) :   0.8781 


-------
TIMINGS
-------

Total SCF time: 0 days 0 hours 0 min 2 sec 

Total time                  ....       2.067 sec
Sum of individual times     ....       2.047 sec  ( 99.1%)

SCF preparation             ....       0.720 sec  ( 34.8%)
Fock matrix formation       ....       1.175 sec  ( 56.8%)
  Startup                   ....       0.007 sec  (  0.6% of F)
  Split-RI-J                ....       0.078 sec  (  6.6% of F)
  Chain of spheres X        ....       0.841 sec  ( 71.6% of F)
  XC integration            ....       0.124 sec  ( 10.5% of F)
    Basis function eval.    ....       0.028 sec  ( 22.5% of XC)
    Density eval.           ....       0.026 sec  ( 21.4% of XC)
    XC-Functional eval.     ....       0.005 sec  (  3.8% of XC)
    XC-Potential eval.      ....       0.031 sec  ( 25.4% of XC)
  CPCM terms                ....       0.111 sec  (  9.5% of F)
Diagonalization             ....       0.000 sec  (  0.0%)
Density matrix formation    ....       0.011 sec  (  0.5%)
Total Energy calculation    ....       0.012 sec  (  0.6%)
Population analysis         ....       0.046 sec  (  2.2%)
Orbital Transformation      ....       0.013 sec  (  0.6%)
Orbital Orthonormalization  ....       0.000 sec  (  0.0%)
DIIS solution               ....       0.017 sec  (  0.8%)
SOSCF solution              ....       0.053 sec  (  2.5%)
Finished LeanSCF after   2.1 sec

Maximum memory used throughout the entire LEANSCF-calculation: 22.9 MB


-------------------------------------------------------------------------------
                          DFT DISPERSION CORRECTION                            
                                                                               
                                DFTD4 V3.4.0                                   
-------------------------------------------------------------------------------
The B3LYP functional is recognized
Active option DFTDOPT                   ...         5   

-------------------------   ----------------
Dispersion correction           -0.013376515
-------------------------   ----------------


-------------------------   --------------------
FINAL SINGLE POINT ENERGY      -323.737870568735
-------------------------   --------------------

                                *** OPTIMIZATION RUN DONE ***



           ************************************************************
           *        Program running with 30 parallel MPI-processes    *
           *              working on a common directory               *
           ************************************************************

------------------------------------------------------------------------------
                              ORCA PROPERTY CALCULATIONS
------------------------------------------------------------------------------

GBWName                                 ... 00_Alanine_zwitterion.gbw
Number of atoms                         ...     13
Number of basis functions               ...    228
Max core memory                         ...   3000 MB

Electric properties:
Dipole moment                           ... YES
Quadrupole moment                       ...  NO
Static polarizability (Dipole/Dipole)   ...  NO
Static polarizability (Dipole/Quad.)    ...  NO
Static polarizability (Quad./Quad.)     ...  NO
Static polarizability (Velocity)        ...  NO

Atomic electric properties:
Dipole moment                           ...  NO
Quadrupole moment                       ...  NO
Static polarizability                   ...  NO

Choice of electric origin               ... Center of mass
Position of electric origin             ...    -0.392484     0.982912    -1.642473

General magnetic properties:
Magnetizability                         ...  NO

EPR properties:
g-Tensor (aka g-matrix)                 ...  NO
Zero-Field splitting spin-orbit         ...  NO
Zero-field splitting spin-spin          ...  NO
Hyperfine couplings                     ...  NO (   0 nuclei)
Quadrupole couplings                    ...  NO (   0 nuclei)
Contact density                         ...  NO (   0 nuclei)

NMR properties:
Chemical shifts                         ...  NO (   0 nuclei)
Spin-rotation constants                 ...  NO (   0 nuclei)
Spin-spin couplings                     ...  NO (   0 nuclei,    0 pairs)

Choice of magnetic origin               ... GIAO
Position of magnetic origin             ...     0.000000     0.000000     0.000000

Properties with geometric perturbations:
SCF Hessian                             ...  NO
IR spectrum                             ...  NO
VCD spectrum                            ...  NO
X-ray spectroscopy properties:
SCF XES/XAS/RIXS spectra                ...  NO


-------------
DIPOLE MOMENT
-------------

Method             : SCF
Type of density    : Electron Density
Multiplicity       :   1
Irrep              :   0
Energy             :  -323.7244940539495701 Eh
Relativity type    : 
Basis              : AO
                                X                 Y                 Z
Electronic contribution:     -2.549944012       1.327332452       1.400963226
Nuclear contribution   :      9.416102353      -4.698523964      -4.876220964
                        -----------------------------------------
Total Dipole Moment    :      6.866158341      -3.371191512      -3.475257737
                        -----------------------------------------
Magnitude (a.u.)       :      8.401575978
Magnitude (Debye)      :     21.355109017



--------------------
Rotational spectrum 
--------------------
 
Rotational constants in cm-1:             0.307125             0.061321             0.052557 
Rotational constants in MHz :          9207.380268          1838.346909          1575.608975 

Dipole components along the rotational axes: 
x,y,z [a.u.] :     8.352950    -0.902507    -0.013639 
x,y,z [Debye]:    21.231512    -2.293990    -0.034667 

 

Dipole moment calculation done in   0.0 sec 

Maximum memory used throughout the entire PROP-calculation: 12.3 MB

--------------------------------
SUGGESTED CITATIONS FOR THIS RUN
--------------------------------

Below you find a list of papers that are relevant to this ORCA run
We neither can nor want to force you to cite these papers, but we appreciate if you do
You receive ORCA, which is the product of decades of hard work by many enthusiastic individuals, for free
The only thing we kindly ask in return is that you cite our papers,
We deeply appreciate it, if you show your appreciation for ORCA by not just citing the generic ORCA reference.

Please note that relegating all ORCA citations to the supporting information does *not* help us.
SI sections are not indexed - citations you put there will not count into any citation statistics
But we need these citations in order to attract the funding resources that allow us to do what we are doing

Therefore, if you are a happy ORCA user, please consider citing a few of the papers listed below in the main body of your paper

In addition to the list printed below, the program has created the file 00_Alanine_zwitterion.bibtex that contains the list in bibtex format
You can import this file easily into all common literature databanks and citation aid programs


List of essential papers. We consider these as the minimum necessary citations

  1. Neese,F.
     Software update: the ORCA program system, version 5.0
     WIRES Comput. Molec. Sci., 2022 12(1)e1606
     doi.org/10.1002/wcms.1606

List of papers to cite with high priority. The work reported in these papers was absolutely
necessary for this run to complete.
Our perspective: the developers of density functionals and basis sets usually get cited in chemistry papers
Good! But without the algorithms to do something with them, the functionals or basis sets would not do anything.
Hence, in our opinion, the algorithm design and method developments papers are equally worthy of getting cited

  1. Neese,F.
     An improvement of the resolution of the identity approximation for the formation of the Coulomb matrix
     J. Comp. Chem., 2003 24(14)1740-1747
     doi.org/10.1002/jcc.10318
  2. Neese,F.; Wennmohs,F.; Hansen,A.; Becker,U.
     Efficient, approximate and parallel Hartree-Fock and hybrid DFT calculations. A 'chain-of-spheres' algorithm for the Hartree-Fock exchange
     Chem. Phys., 2009 356(1-3)98-109
     doi.org/10.1016/j.chemphys.2008.10.036
  3. Garcia-Rates,M.; Neese,F.
     Effect of the Solute Cavity on the Solvation Energy and its Derivatives within the Framework of the Gaussian Charge Scheme
     J. Comput. Chem., 2020 41 922-939
     doi.org/10.1002/jcc.26139
  4. Helmich-Paris,B.; de Souza,B.; Neese,F.; Izsák,R.
     An improved chain of spheres for exchange algorithm
     J. Chem. Phys., 2021 155 104109
     doi.org/doi: 10.1063/5.0058766.
  5. Neese,F.
     The SHARK Integral Generation and Digestion System
     J. Comp. Chem., 2022  1-16
     doi.org/10.1002/jcc.26942
  6. Caldeweyher,E.; Bannwarth,C.; Grimme,S.
     Extension of the D3 dispersion coefficient model
     J. Chem. Phys., 2017 147 034112
     doi.org/10.1063/1.4993215
  7. Caldeweyher,E.; Ehlert,S.; Hansen,A.; Neugebauer,H.; Spicher,S.; Bannwarth,C.; Grimme,S.
     A generally applicable atomic-charge dependent London dispersion correction
     J. Chem. Phys., 2019 150 154122
     doi.org/10.1063/1.5090222
  8. Caldeweyher,E.; Mewes,J.; Ehlert,S.; Grimme,S.
     Extension and evaluation of the D4 London-dispersion model for periodic systems
     Phys. Chem. Chem. Phys., 2020 22(16)8499-8512
     doi.org/10.1039/D0CP00502A
  9. Wittmann,L.; Gordiy,I.; Friede,M.; Helmich-Paris,B.; Grimme,S.; Hansen,A.; Bursch,M.
     Extension of the D3 and D4 London Dispersion Corrections to the full Actinides Series
     Phys. Chem. Chem. Phys., 2024 26(32)21379-21394
     doi.org/https://doi.org/10.1039/D4CP01514B 

List of suggested additional citations. These are papers that are important in the 'surrounding' of 
of this run, or papers that preceded the highly important papers. If you like your results we are grateful for a citation.

  1. Izsak,R.; Neese,F.
     An overlap fitted chain of spheres exchange method
     J. Chem. Phys., 2011 135 144105
     doi.org/10.1063/1.3646921
  2. Izsak,R.; Hansen,A.; Neese,F.
     The resolution of identity and chain of spheres approximations for the LPNO-CCSD singles Fock term
     Molec. Phys., 2012 110 2413-2417
     doi.org/10.1080/00268976.2012.687466
  3. Neese,F.
     The ORCA program system
     WIRES Comput. Molec. Sci., 2012 2(1)73-78
     doi.org/10.1002/wcms.81
  4. Izsak,R.; Neese,F.; Klopper,W.
     Robust fitting techniques in the chain of spheres approximation to the Fock exchange: The role of the complementary space
     J. Chem. Phys., 2013 139 
     doi.org/10.1063/1.4819264
  5. Neese,F.
     Software update: the ORCA program system, version 4.0
     WIRES Comput. Molec. Sci., 2018 8(1)1-6
     doi.org/10.1002/wcms.1327
  6. Neese,F.; Wennmohs,F.; Becker,U.; Riplinger,C.
     The ORCA quantum chemistry program package
     J. Chem. Phys., 2020 152 Art. No. L224108
     doi.org/10.1063/5.0004608

List of optional additional citations

  1. Neese,F.
     Approximate second-order SCF convergence for spin unrestricted wavefunctions
     Chem. Phys. Lett., 2000 325(1-3)93-98
     doi.org/10.1016/s0009-2614(00)00662-x

Timings for individual modules:

Sum of individual times          ...      149.440 sec (=   2.491 min)
Startup calculation              ...       27.715 sec (=   0.462 min)  18.5 %
SCF iterations                   ...       77.167 sec (=   1.286 min)  51.6 %
Property calculations            ...        1.179 sec (=   0.020 min)   0.8 %
SCF Gradient evaluation          ...       43.312 sec (=   0.722 min)  29.0 %
Geometry relaxation              ...        0.067 sec (=   0.001 min)   0.0 %
                             ****ORCA TERMINATED NORMALLY****
TOTAL RUN TIME: 0 days 0 hours 2 minutes 48 seconds 752 msec
