22
 energy: -34.359447773892 gnorm: 0.146965113555 xtb: 6.7.1 (edcfbbe)
N            1.55717000000000       -0.08904000000000        0.48346000000000
C            2.96671000000000        0.10626000000000        0.14920000000000
C            3.11967000000000        0.73867000000000       -1.23952000000000
C            4.60047000000000        0.94651000000000       -1.58725000000000
C            4.80813000000000        1.59352000000000       -2.93081000000000
O            3.86326000000000        1.91158000000000       -3.63638000000000
O            6.06142000000000        1.83130000000000       -3.35999000000000
H            1.05653000000000        0.82916000000000        0.47952000000000
H            1.11230000000000       -0.73982000000000       -0.20362000000000
H            3.48777000000000       -0.87565000000000        0.17173000000000
H            3.43433000000000        0.76927000000000        0.91030000000000
H            2.59848000000000        1.71954000000000       -1.24806000000000
H            2.65078000000000        0.07634000000000       -2.00009000000000
H            5.11401000000000       -0.03773000000000       -1.58833000000000
H            5.07208000000000        1.59258000000000       -0.81635000000000
H            1.48743000000000       -0.50722000000000        1.43861000000000
O           -1.69071585460000        1.53201263170000        2.18601665410000
H           -0.70141585460000        1.56001263170000        2.15361665410000
H           -1.98011585460000        2.15081263170000        1.46911665410000
O            5.15477168740000        4.77860894710000       -4.38347791770000
H            6.14407168740000        4.80660894710000       -4.41587791770000
H            4.86537168740000        5.39740894710000       -5.10037791770000
22
 energy: -34.373527348058 gnorm: 0.076922322955 xtb: 6.7.1 (edcfbbe)
N            1.55465397159233       -0.09502907610365        0.48783371377174
C            2.97448831475120        0.10453100933651        0.15121754250761
C            3.12373885364032        0.73730103456924       -1.23240639555979
C            4.59795689015632        0.94469860618327       -1.57941660411729
C            4.80524298157863        1.59701740685657       -2.93756674500444
O            3.83997313911492        1.89155800013885       -3.65430168323151
O            6.03002781402609        1.78278338168594       -3.31334164723762
H            1.05843137570759        0.80877513362499        0.47115649365880
H            1.11049200625222       -0.72913960607949       -0.19522376078255
H            3.49351009045826       -0.86017291833742        0.17028520207627
H            3.44047684022463        0.75787584515488        0.89793536613594
H            2.61919068352248        1.71019771403784       -1.27144268490933
H            2.67069695674091        0.10142342240771       -2.00278409292114
H            5.12882320900578       -0.01594863321529       -1.58754730535473
H            5.08344619157508        1.58360584278345       -0.83068184760878
H            1.46981074703989       -0.50863305478041        1.42995910606286
O           -1.68479215763494        1.49533265957870        2.14828503065692
H           -0.71477614098928        1.60887955276394        2.19207312386161
H           -1.98221301486243        2.14810196731180        1.49036954411640
O            5.15629352192397        4.84470613786897       -4.35778967397244
H            6.12709791622863        4.78938515772970       -4.42904942534713
H            4.87993730834781        5.39348515288375       -5.11612704760167
22
 energy: -34.377320012431 gnorm: 0.032127456053 xtb: 6.7.1 (edcfbbe)
N            1.55160181285278       -0.10148588949699        0.49145569964273
C            2.98202694198533        0.10415453957282        0.15388898255497
C            3.13023934021502        0.73388318879925       -1.22533909981434
C            4.60057231273994        0.93464151069597       -1.57222177433568
C            4.81325019302342        1.55187745400184       -2.97299955336156
O            3.80863006234801        1.85638226215008       -3.65370313070886
O            5.99172864718878        1.78961530901042       -3.27408654375099
H            1.05849426097947        0.79209373610419        0.45841187818208
H            1.11234846322711       -0.72279612875070       -0.19260506447760
H            3.49595842145467       -0.85134894809893        0.16728980324833
H            3.43981755950835        0.75474195371461        0.89222321078532
H            2.64324444381663        1.70527687466264       -1.28326334879031
H            2.69139019586176        0.11086405860413       -2.00086416749899
H            5.14480842310195       -0.00839688047267       -1.58341884406735
H            5.09791870061875        1.58924376660882       -0.85637597213367
H            1.45239474604403       -0.51160851382124        1.42380926571991
O           -1.67692386034038        1.48758960947307        2.13530080878480
H           -0.72978220808200        1.65508042490176        2.22880094359144
H           -1.99838572343350        2.11778454300795        1.49138241272018
O            5.16472217651557        4.88965369560703       -4.35941018343906
H            6.11648688505715        4.80179795315765       -4.41883868233361
H            4.89196570371774        5.41169021696817       -5.11800043131835
22
 energy: -34.377079234382 gnorm: 0.075228870560 xtb: 6.7.1 (edcfbbe)
N            1.54875850944455       -0.10738446406165        0.48865151142117
C            2.98266125444238        0.10089742010298        0.15498912096758
C            3.13300482630109        0.73095824872935       -1.22265360353539
C            4.60188489305608        0.93835238032377       -1.56438697943998
C            4.81884518022319        1.58190110185309       -2.96532856449313
O            3.80084475608658        1.79290201045681       -3.67191209783968
O            5.99491919226088        1.74421315950261       -3.29896601365105
H            1.05554292939770        0.78684142546586        0.44753234131876
H            1.11474791230886       -0.72822185506655       -0.20019117813278
H            3.49684545968256       -0.85566241840155        0.16745025824584
H            3.43435410021060        0.75442674005413        0.89602261640244
H            2.64986781822905        1.70488360621914       -1.28023739197078
H            2.70060708149481        0.10785572606376       -2.00325213874503
H            5.15568110015543       -0.00097815164715       -1.58168640407561
H            5.09575690612577        1.60144402305654       -0.85466977805121
H            1.44288776688202       -0.51690119842698        1.42103017263442
O           -1.66623532079389        1.41613200420764        2.08498386374493
H           -0.72876711199897        1.74072021482195        2.29065783642984
H           -2.02207822129016        2.11550709813539        1.51493212532324
O            5.15866326895893        5.00025362781669       -4.29915656711583
H            6.10958466781712        4.77244187018406       -4.43311860447847
H            4.90413052940665        5.41015216700976       -5.15925431576036
22
 energy: -34.377627146577 gnorm: 0.041308175396 xtb: 6.7.1 (edcfbbe)
N            1.54755026627040       -0.10958407896037        0.48645373726244
C            2.98164117105006        0.09921359053263        0.15706780606661
C            3.13421632368273        0.72993137158229       -1.22080519049195
C            4.60220504905872        0.93939659563672       -1.56140964701181
C            4.81999637451695        1.59317745898385       -2.96116943794695
O            3.80405942654064        1.76035622477711       -3.68437869716498
O            6.01136498774452        1.71557053239597       -3.31985163035432
H            1.05290378428894        0.78716278210882        0.44231553650750
H            1.11674693093810       -0.73374842127891       -0.20543598103073
H            3.49807986569448       -0.85963562631902        0.17174119257880
H            3.43166774615094        0.75480359754265        0.90189476852030
H            2.65017910862130        1.70588522519440       -1.27692699907806
H            2.70207758120007        0.10473073495057       -2.00348164044862
H            5.15779536442415       -0.00183699641411       -1.57538167986343
H            5.09407039293160        1.60738628097411       -0.85256048749088
H            1.43857235807772       -0.51859936815565        1.42139698043491
O           -1.66316816689020        1.49709127212718        2.15407328815093
H           -0.74061552517938        1.68011963914977        2.22972845057063
H           -2.03977516013802        2.09968186000521        1.50815609341630
O            5.16384729490886        4.98590143598640       -4.33124630748804
H            6.11021519718189        4.80757053482715       -4.40662280998232
H            4.90887712732600        5.44616009075307       -5.14212113595724
22
 energy: -34.377793171050 gnorm: 0.042741678509 xtb: 6.7.1 (edcfbbe)
N            1.54740854341604       -0.10804099200948        0.48216580882052
C            2.97907895555262        0.10125168616349        0.15748972945959
C            3.13511905800655        0.73166992644658       -1.22212669578006
C            4.60430896385153        0.92760948137970       -1.57027432247755
C            4.81764427661314        1.50140046854332       -3.00110077346743
O            3.81436986472773        1.79872938798680       -3.66958559627696
O            6.01945418299998        1.76869692203838       -3.30189194457869
H            1.05006020082973        0.78961135408891        0.44103189729120
H            1.11835301607116       -0.73710871697376       -0.20940660444474
H            3.49760666386610       -0.85868270169272        0.17697092654354
H            3.43059116165544        0.75550303906227        0.90529162408217
H            2.64578699003933        1.70682167147091       -1.27931610878485
H            2.69582899245578        0.10197580359768       -1.99887152375841
H            5.14758051436472       -0.02008347902085       -1.55768945432368
H            5.10091632053249        1.60592157210515       -0.86853212611140
H            1.43959732025697       -0.51712776432235        1.41933744062109
O           -1.66263792561803        1.46206894954507        2.13324370310763
H           -0.73665743347988        1.71613446207830        2.24752315652150
H           -2.05103873051281        2.09934209258186        1.51973047876696
O            5.16922153424748        4.96000774675634       -4.35843134665633
H            6.11118655280640        4.83959628892249       -4.38988653787948
H            4.90872847571825        5.46543753765172       -5.12423552147551
22
 energy: -34.380530314245 gnorm: 0.015206518501 xtb: 6.7.1 (edcfbbe)
N            1.54616437124011       -0.11127283443142        0.47961530788532
C            2.98070297560071        0.10028849349336        0.15761756085416
C            3.13927743967011        0.73056142741073       -1.22040623348976
C            4.60853829999639        0.92977151892926       -1.56478505902404
C            4.82082963315793        1.52757832233048       -2.99100398675605
O            3.80679360861626        1.76061123872377       -3.67827361624401
O            6.00759648512067        1.71923659681536       -3.32302394905570
H            1.04842864083770        0.78360827132655        0.43349400441583
H            1.12060589886081       -0.73864920989032       -0.21273296662114
H            3.49828509850293       -0.85768003326399        0.17699469542695
H            3.42723909494254        0.75443390275832        0.90541675248894
H            2.65242121686610        1.70497219746290       -1.27713035828066
H            2.70249597286971        0.10405849149307       -1.99903637877655
H            5.15662196375778       -0.01409612275011       -1.55783464722095
H            5.10414854008466        1.60883790257851       -0.86758805250934
H            1.43375819914170       -0.51888716490207        1.41478285280193
O           -1.65849653201859        1.45675451981428        2.13069106747655
H           -0.74042371724835        1.74154551461139        2.26412152044408
H           -2.06170973605043        2.08644924358454        1.52382667645505
O            5.16284641782189        5.02633844717190       -4.32506552409195
H            6.10535522544807        4.82538231141733       -4.38818867670767
H            4.92102840118215        5.47089170171588       -5.15005478027224
22
 energy: -34.381217138376 gnorm: 0.025413601926 xtb: 6.7.1 (edcfbbe)
N            1.54368021694474       -0.11516438800449        0.47358230706508
C            2.98036075671975        0.09900061727933        0.15938415983679
C            3.14361487803759        0.72748848393761       -1.21875477972427
C            4.61244999720968        0.92619030732862       -1.56301203319224
C            4.82283547872081        1.51313329374140       -2.99888385830830
O            3.80360100698721        1.71132796006072       -3.69448142610974
O            6.00841699358249        1.69207923788436       -3.33922522282262
H            1.04337539855472        0.77805344644779        0.42136546812280
H            1.12453797996933       -0.74509247912025       -0.22034583592083
H            3.49927725365340       -0.85821833293007        0.18216929100521
H            3.42100504900588        0.75496385531168        0.90916057082874
H            2.65846899479980        1.70278102578630       -1.27710587798042
H            2.70809693982399        0.10099644072569       -1.99831280456741
H            5.16506532783852       -0.01555208913043       -1.54496280235950
H            5.10484423590671        1.61714003639232       -0.87557244748107
H            1.42514480038678       -0.52020533092096        1.40903379000739
O           -1.64909961844668        1.43275430105513        2.11906666562171
H           -0.74762264683319        1.77734179575190        2.27889384821429
H           -2.08334725809542        2.08525268313500        1.54955889620493
O            5.16760141619620        5.08443504330418       -4.30680136800090
H            6.10215441908515        4.84602848784331       -4.38212287284690
H            4.92804587835361        5.49600034052043       -5.15119745839437
22
 energy: -34.379988827247 gnorm: 0.064143687196 xtb: 6.7.1 (edcfbbe)
N            1.53902819401650       -0.12292442374243        0.45982507171151
C            2.97923697987486        0.09682567215582        0.16311264041611
C            3.15284813255444        0.72109699018513       -1.21589615734712
C            4.62134114256338        0.91451489536142       -1.56207260421600
C            4.82614694519535        1.46039547127814       -3.02263780724578
O            3.80097333364991        1.61696299218301       -3.72289813586183
O            6.01012499844962        1.64679914490941       -3.36761711981523
H            1.03220898609678        0.76649237453929        0.39557738500938
H            1.13380988591413       -0.75996482462720       -0.23648376803405
H            3.50170341868311       -0.85875515570246        0.19469410339360
H            3.40776197517595        0.75671421919904        0.91713751670178
H            2.67076158753081        1.69822097352536       -1.27694412013855
H            2.71700718883251        0.09423824057912       -1.99570825908273
H            5.17975846746621       -0.02428152443413       -1.51447838784119
H            5.10924672277911        1.63202399665323       -0.89784108421542
H            1.40806315447457       -0.52207820719619        1.39639906551434
O           -1.64099493193123        1.43555206856325        2.12046838253490
H           -0.77842349361981        1.81389654549650        2.31960250126501
H           -2.10005498281548        2.06929828234704        1.56328647135517
O            5.17661203099160        5.25009789840442       -4.23435296314399
H            6.09355014735829        4.87006369269829       -4.38440148746034
H            4.94179761516066        5.53554541402335       -5.16733503430207
22
 energy: -34.382972867708 gnorm: 0.032605169008 xtb: 6.7.1 (edcfbbe)
N            1.53662015889430       -0.12636697404458        0.45216608696755
C            2.97789784653895        0.09580915251068        0.16455956112480
C            3.15698001739469        0.71873196921831       -1.21473849372600
C            4.62555257151867        0.90973111831946       -1.56160028861446
C            4.82570695072064        1.44082572504068       -3.02872419670432
O            3.80077058359839        1.56710689313921       -3.73612224023158
O            6.00965978173376        1.61576825555806       -3.38623289243754
H            1.02618994474555        0.76102003998236        0.38288445547964
H            1.13820273438068       -0.76762451340692       -0.24468576365823
H            3.50256884418205       -0.85888489164860        0.20088462650232
H            3.40061136721667        0.75745648863487        0.92087647448363
H            2.67628920013922        1.69678216897995       -1.27481132634323
H            2.71939477041472        0.09289673010694       -1.99517268956410
H            5.18630542123582       -0.02774695742216       -1.50009789552359
H            5.11142762130574        1.63818694471887       -0.90857123682642
H            1.39961882660538       -0.52240872388417        1.38942641986260
O           -1.63617556155410        1.41275046239456        2.09367937870378
H           -0.80061674038941        1.85511105653387        2.37013952982289
H           -2.10326853786582        2.05931350658210        1.56594414086862
O            5.19225630690373        5.25166928703084       -4.26939508795147
H            6.09394303426820        4.92963446247770       -4.35719983306700
H            4.94257235641367        5.59097253557720       -5.13177251997070
22
 energy: -34.383214728155 gnorm: 0.033351543411 xtb: 6.7.1 (edcfbbe)
N            1.53630371981692       -0.12982641692811        0.44600783502375
C            2.97714509688800        0.09519907803790        0.16383885531670
C            3.15871494417086        0.71679876421962       -1.21589356294480
C            4.62778061975209        0.90230166100801       -1.56548863704172
C            4.82623060546300        1.41149053008034       -3.03634815764706
O            3.80623173930650        1.54881033759988       -3.73820250259122
O            6.00886083216464        1.60204680918304       -3.39000893947004
H            1.02389854356146        0.75612694522358        0.37443844922147
H            1.14153189039101       -0.77361327639655       -0.25029986798629
H            3.50387820683822       -0.85809377157293        0.20403203383460
H            3.39640605848819        0.75871778614773        0.92021544723444
H            2.67924524222072        1.69536603370978       -1.27679168690991
H            2.71861593962634        0.09082322767013       -1.99456230285760
H            5.18571313409234       -0.03479321198120       -1.49418583110534
H            5.11617136582497        1.63512933034553       -0.92011378512698
H            1.39697291167816       -0.52442210366719        1.38348423774779
O           -1.61044629202875        1.40538784540288        2.10721395411489
H           -0.79557710834550        1.85803490807792        2.32229281905950
H           -2.15337981375872        2.07017281033855        1.62153754352187
O            5.19886376306504        5.28766851603940       -4.26393240189951
H            6.09398352902371        4.96968895628663       -4.32891660752926
H            4.94536257016231        5.60771997757430       -5.13688068276835
22
 energy: -34.384708350147 gnorm: 0.018091666712 xtb: 6.7.1 (edcfbbe)
N            1.53360911868594       -0.13661891741871        0.43427518693290
C            2.97540660951136        0.09423335791238        0.16470330033631
C            3.16381156750837        0.71262488965641       -1.21582099769324
C            4.63326893929224        0.89168827460455       -1.56864644429152
C            4.82857770925631        1.36083788492907       -3.05249601037899
O            3.81114814474217        1.48392436672505       -3.75599225742242
O            6.00950326132492        1.56633254939143       -3.40521301388879
H            1.01595042268171        0.74574260482429        0.35540200501434
H            1.14846241123143       -0.78586778041894       -0.26216781470539
H            3.50615263708060       -0.85642180277448        0.21244536844183
H            3.38573978151504        0.76151376094478        0.92247272869668
H            2.68671930765737        1.69210603484775       -1.27917062169971
H            2.72174629741523        0.08639449603135       -1.99298955374461
H            5.19144712721494       -0.04297459691396       -1.47486144183434
H            5.12148136509624        1.63955916543613       -0.94042671983160
H            1.38684549150893       -0.52730810965035        1.37218164384337
O           -1.60360453734870        1.41559396277153        2.10985538650547
H           -0.82374243633753        1.91774972841031        2.39202451852021
H           -2.16355476563508        2.01029258973000        1.58850607060487
O            5.20420395739607        5.39057736055811       -4.23942536110300
H            6.08656471210822        4.99451159676860       -4.30526451187590
H            4.96277037649580        5.67624332003382       -5.12795525123023
22
 energy: -34.384350176510 gnorm: 0.056339354240 xtb: 6.7.1 (edcfbbe)
N            1.52870137087846       -0.14705082579118        0.41786210200756
C            2.97201783017290        0.09240718769886        0.16519971509613
C            3.16978498697734        0.70461297281968       -1.21705408525152
C            4.63987064149302        0.87789910965080       -1.57185619679139
C            4.83203921955781        1.29901283848458       -3.07077819656455
O            3.81431629781958        1.36588147185122       -3.79211414585634
O            6.01030721141874        1.51578349304975       -3.42694519553023
H            1.00362898860678        0.73009588948025        0.32724848422466
H            1.15762622328014       -0.80439635053022       -0.27871390189096
H            3.50885993363515       -0.85433462853825        0.22361807477808
H            3.36835130753090        0.76625481955197        0.92469492591904
H            2.69627544698865        1.68550382974459       -1.28405616826816
H            2.72676587442459        0.07754521138314       -1.99319708663891
H            5.20261256029895       -0.05154528264864       -1.44613174726974
H            5.12371628044059        1.64888850270193       -0.96788445093694
H            1.37128173783241       -0.53119560368961        1.35672740546496
O           -1.59840405159268        1.40474021966192        2.08041199225507
H           -0.87686274256234        1.96082692425714        2.48198901804358
H           -2.14889361256177        1.99905852735320        1.58780034519837
O            5.23482715484840        5.53114049908489       -4.19262083786664
H            6.08661551511873        5.10913301402988       -4.26254492682780
H            4.95906932379568        5.71047291679288       -5.13021891409912
22
 energy: -34.385654316261 gnorm: 0.036424919124 xtb: 6.7.1 (edcfbbe)
N            1.52790244336971       -0.15067299529638        0.41333574795833
C            2.97053161770193        0.09217057978563        0.16383753593196
C            3.16950258788306        0.70111123507520       -1.21970673078297
C            4.64010448428942        0.87214686782571       -1.57522390836078
C            4.83407185778794        1.28047473223886       -3.07210978525732
O            3.81845964276849        1.32498838838743       -3.80472905358870
O            6.01243913594423        1.50520225803984       -3.42713744407084
H            1.00089370152330        0.72491197798801        0.31941071232154
H            1.16023636060823       -0.81068388243460       -0.28229824054486
H            3.51009634075146       -0.85281003888397        0.22573595141715
H            3.36272855116973        0.76934128548335        0.92243494517806
H            2.69757789077897        1.68268966866666       -1.28846764129272
H            2.72616093963145        0.07306894300453       -1.99506837968203
H            5.20336354408122       -0.05525643091779       -1.44090262993052
H            5.12275268081094        1.64703770235274       -0.97718511773280
H            1.36912377584832       -0.53269506089154        1.35276206195916
O           -1.58973841789766        1.40795963773533        2.07995004252730
H           -0.89156670523710        1.95282218692760        2.47821615537603
H           -2.15062746666072        2.00762178843341        1.60676591908613
O            5.23534057460902        5.57232793929530       -4.19218341142192
H            6.08031882226690        5.08272379834467       -4.27570354113563
H            4.97283513637321        5.79625415523875       -5.08029697875968
22
 energy: -34.385620823083 gnorm: 0.034307847371 xtb: 6.7.1 (edcfbbe)
N            1.52761828169555       -0.15122662224392        0.41310006848873
C            2.96890603986608        0.09360434713334        0.16147571821753
C            3.16574309757883        0.70052885583843       -1.22313318430246
C            4.63678712397200        0.86545511613210       -1.58052285475772
C            4.83835802095832        1.27010535085621       -3.07062063079929
O            3.83106970342701        1.33649714797913       -3.79754809767468
O            6.01803252864106        1.49410165270648       -3.42310264848757
H            0.99982634209880        0.72354445246933        0.31833270900886
H            1.15977971804979       -0.81214963790272       -0.28106263440443
H            3.51017507009087       -0.85007038208551        0.22490177101760
H            3.36150825143968        0.77261877829588        0.91763574406394
H            2.69539424020367        1.68259930658877       -1.29422922736634
H            2.72132515892054        0.07174240036700       -1.99698303735340
H            5.19322316573525       -0.06369263153511       -1.44710313532237
H            5.12537091572740        1.63467435798667       -0.98256924246863
H            1.37091375904715       -0.53282782398010        1.35289914823701
O           -1.55368185025790        1.41986610373533        2.11623649245936
H           -0.86482876147131        1.99135314097395        2.43321829564995
H           -2.21682923609903        1.94365691279137        1.61276668170721
O            5.24423202340949        5.58102641726922       -4.18803793883751
H            6.08645950784651        5.13501414475701       -4.24822385745949
H            4.96312439752211        5.78431334826605       -5.08599393042156
22
 energy: -34.386412783187 gnorm: 0.034502677055 xtb: 6.7.1 (edcfbbe)
N            1.52375286332884       -0.15691597524601        0.40471225646146
C            2.96571892243590        0.09348618681407        0.16045588486744
C            3.16681235971028        0.69620886204282       -1.22542088095233
C            4.63861772750045        0.85606931404970       -1.58251241624206
C            4.84273660419259        1.23223218421235       -3.08180239267918
O            3.83725812803726        1.27428672613426       -3.81524133786250
O            6.02040160739751        1.46215003172593       -3.43285183182324
H            0.99123554318794        0.71437179645324        0.30311024360697
H            1.16360020545823       -0.82258106683387       -0.28905392024529
H            3.51067125807530       -0.84770799110665        0.22995348347140
H            3.35086197124159        0.77666280809494        0.91670610939634
H            2.69866071068365        1.67890865215779       -1.29922031305944
H            2.72196999378593        0.06636494863437       -1.99821046812333
H            5.19506658130466       -0.07142919540700       -1.43124732052080
H            5.12652796753692        1.63747603219545       -0.99837072154286
H            1.36211187858720       -0.53461118810756        1.34517485458227
O           -1.54159560432768        1.38777590200569        2.07710495757975
H           -0.89393014228337        2.01324943834554        2.47597284001644
H           -2.20508993327391        1.96269997900966        1.64000818933803
O            5.25473066302909        5.66922202406796       -4.16582495503153
H            6.08060677595280        5.16580520038303       -4.22884321523016
H            4.97178141684116        5.83701006677291       -5.07316283681327
22
 energy: -34.384132136452 gnorm: 0.086952195290 xtb: 6.7.1 (edcfbbe)
N            1.52209548582689       -0.15858860353421        0.40497795250507
C            2.96194957940132        0.09500059606273        0.15607651444354
C            3.16092169758596        0.69340222603691       -1.23177034714325
C            4.63421668952357        0.85367437963209       -1.58476580704706
C            4.84518504944629        1.22483781870246       -3.07652208398509
O            3.84370460096256        1.23928929447102       -3.82902591583269
O            6.02368992688898        1.46846166115326       -3.41811360291248
H            0.98859489305414        0.71135015505869        0.30425670329158
H            1.16115468565658       -0.82522939555899       -0.28641601542646
H            3.50931053006827       -0.84425184775417        0.22709550398506
H            3.34626798797211        0.78173455020386        0.90880525860403
H            2.69278929815002        1.67562669149605       -1.30849611255155
H            2.71709859485497        0.06066832961863       -2.00284160330732
H            5.19032884496739       -0.07259114456030       -1.42894130115354
H            5.11896653701418        1.63355183632022       -0.99948720962936
H            1.36466870967003       -0.53579496343300        1.34583073307610