37
 energy: -59.863584283927 gnorm: 0.000172271841 xtb: 6.7.1 (edcfbbe)
N            0.79106532552318       -0.07847422563207        1.84104948581720
C            0.44058460439243       -0.51068557164746        0.47319257255795
C            0.41477331759298        0.68034810543017       -0.47728020760227
C           -0.04079663058248        0.29142506155925       -1.87737721614188
C           -0.36577998577064        1.52888134488269       -2.75852554600708
O           -0.79853217379983        2.55315236868478       -2.18840259763976
O           -0.18588760617507        1.39980672714599       -3.99081047471340
H            1.68214595740434        0.42003843955486        1.83676602647646
H            0.06447387518222        0.57508391769851        2.19977473463582
H           -0.54198749985130       -0.98365474240056        0.49204065787304
H            1.17104930261663       -1.23956695507598        0.12284525390827
H            1.40197219513585        1.14233865501076       -0.55337637518771
H           -0.27881917953265        1.44492856905572       -0.12288777036710
H           -0.96662223267426       -0.28804248272660       -1.82872241935033
H            0.70400992242620       -0.29826408552502       -2.41332123205315
H            0.85614904952585       -0.90610271676658        2.48606170478489
O           -0.05093883583763       -2.13400675111508        5.96524637664161
H            0.26081252525351       -1.29416385286506        6.31515450003617
H            0.30778100065953       -2.19808370636077        5.05816465445365
O           -2.79944594629911       -2.59761207372584        6.15671743050959
H           -2.92538473796374       -2.93000690044920        7.04923190924454
H           -1.83591258124886       -2.46944062455834        6.05455114987320
O            1.07084819802336       -2.29607339408665        3.41912594180209
H            1.97813370553464       -2.61492870806063        3.45887120469164
H            0.56589881780363       -2.95953036736444        2.90447525112481
O           -2.19564348236753       -2.36683173929189        0.93282371660033
H           -2.98372894703447       -2.43282345656603        1.47814971894018
H           -1.56126759968480       -3.01448119619833        1.29234685117721
O            1.31778506659376       -4.52427762880774       -0.41288846922088
H            0.89923917603051       -4.63145253804763       -1.27092750436095
H            2.22476559690930       -4.83556910457418       -0.49082948869913
O           -1.11908916655844        1.74911121415494        2.73572104875856
H           -1.82563946684287        1.50091771772086        3.34054613354396
H           -1.49973405005178        2.32369448936011        2.06740727540202
O           -0.20817113642210       -4.12595268470472        1.86693747821080
H           -0.45944439859932       -5.00044859642585        2.17860889276408
H            0.32148702069188       -4.25432650726584        1.05958933160337
