34
 energy: -56.565511074689 gnorm: 0.190989762114 xtb: 6.7.1 (edcfbbe)
C            0.00071700000000       -0.52255800000000        0.67804400000000
C            0.00015500000000        0.09392700000000        2.05036800000000
O           -0.00019500000000       -0.63013100000000        3.03226200000000
O           -0.00079700000000        1.43155900000000        2.21643300000000
C            0.00098900000000        0.52531100000000       -0.44326000000000
N           -0.00030100000000       -0.11659100000000       -1.75665200000000
H            0.90259300000000       -1.16292800000000        0.57888800000000
H           -0.90264000000000       -1.16023800000000        0.57901700000000
H           -0.90200200000000        1.16741300000000       -0.35103700000000
H            0.90366600000000        1.16894900000000       -0.35172000000000
H           -0.85706900000000       -0.70553200000000       -1.86752300000000
H            0.85322800000000       -0.71006900000000       -1.86779500000000
H            0.00165600000000        0.62088700000000       -2.49702600000000
O           -3.19108500000000       -2.73874700000000        0.13091500000000
H           -2.84055300000000       -3.60248000000000        0.46513700000000
H           -2.52600800000000       -2.44445100000000       -0.54115300000000
O            2.59338500000000       -2.64562000000000        3.16549800000000
H            2.64647100000000       -3.61834800000000        2.98775000000000
H            3.31166800000000       -2.25213300000000        2.60885600000000
O           -1.28524000000000       -2.70639100000000       -4.69315400000000
H           -0.52579200000000       -2.13654600000000       -4.97444500000000
H           -1.26762300000000       -3.47132100000000       -5.32179100000000
O            0.77880800000000       -3.05898600000000        1.94421500000000
H            0.70552800000000       -3.96582900000000        1.55321900000000
H            0.06265400000000       -3.02470000000000        2.62726800000000
O           -0.72210000000000       -3.67280900000000       -0.12482000000000
H           -1.00125100000000       -4.61997300000000       -0.19942800000000
H            0.09795800000000       -3.61165400000000       -0.67652400000000
O           -2.42395400000000       -3.36984200000000        2.61714300000000
H           -2.04984800000000       -2.45400900000000        2.66080200000000
H           -1.88122400000000       -3.89051000000000        3.26131800000000
O           -1.26919600000000       -3.29961600000000       -2.57512700000000
H           -1.64700400000000       -4.21408000000000       -2.61548300000000
H           -2.05379300000000       -2.70268500000000       -2.66836500000000
34
 energy: -56.602832213292 gnorm: 0.093596291836 xtb: 6.7.1 (edcfbbe)
C           -0.00185988219500       -0.50271325075746        0.66959376859473
C           -0.00122955239474        0.10823527977820        2.06191255670549
O           -0.03867140285496       -0.63227524735623        3.05288808999947
O            0.00099340641777        1.40007149977405        2.17418256693952
C           -0.00036657516356        0.53534225881511       -0.44520543255040
N           -0.00038227824019       -0.11611659245364       -1.76593875153320
H            0.88055539999674       -1.15226688827443        0.60209673778211
H           -0.88692909544132       -1.14891277489229        0.59338786516811
H           -0.88704334904159        1.17053350510362       -0.34045844054139
H            0.88605847261797        1.17165465234772       -0.34097544592138
H           -0.83826914638460       -0.71084858829307       -1.87180257543333
H            0.83900681428082       -0.70765972931157       -1.86939529708270
H           -0.00105403777161        0.60478088404213       -2.50398358670739
O           -3.23065666899532       -2.74200024960924        0.07768026843408
H           -2.86665308677223       -3.54935771414120        0.49385204395903
H           -2.51698660073427       -2.45830792861723       -0.52556360511884
O            2.70900502383386       -2.64586906835312        3.24674012396069
H            2.67351964567964       -3.59360971470188        2.99734625313280
H            3.33346362129892       -2.25246701589687        2.60831729642998
O           -1.30034090336251       -2.66632718616771       -4.79897480330754
H           -0.51183330201370       -2.14330847158814       -5.01856380887496
H           -1.25208693100780       -3.46066323751785       -5.35549996886953
O            0.74110479926277       -3.09074521028363        1.90540288016442
H            0.65319538618345       -3.99066359917171        1.54915983578195
H            0.07171481944153       -3.00898386103001        2.60292193120993
O           -0.69439787343287       -3.71000414496374       -0.10433245638847
H           -0.98580436232438       -4.62872615312604       -0.20905280864171
H            0.08436852407334       -3.61957747564785       -0.67982992460607
O           -2.40558077024918       -3.37402412004633        2.63342047929889
H           -2.05254913507583       -2.46893667187981        2.66870196457072
H           -1.88596087591817       -3.88122659426878        3.27793881242584
O           -1.29767522418062       -3.30610399799342       -2.47531841624971
H           -1.64737420856051       -4.20394387728887       -2.61233129191972
H           -2.05747965097197       -2.72570971622889       -2.66648686081139
34
 energy: -56.618683732562 gnorm: 0.040259416410 xtb: 6.7.1 (edcfbbe)
C           -0.01079761172648       -0.49264787798213        0.66304385152940
C           -0.03781518808504        0.13476876563033        2.07041537465662
O           -0.10236919163420       -0.63259945269289        3.05607489392510
O            0.02345113653171        1.38012980366837        2.14288035080535
C           -0.00497017947963        0.54443000468047       -0.44058374784565
N           -0.00324831529681       -0.11462071435484       -1.76909552317461
H            0.86366390199161       -1.14242483434696        0.62830521790805
H           -0.88419369200114       -1.14176411121209        0.60118206539514
H           -0.88293936074757        1.17464832728508       -0.33376286371528
H            0.87180825245010        1.17656945391769       -0.33263592941803
H           -0.82430121464931       -0.72038518571099       -1.86677672004676
H            0.82766376753687       -0.70400631530569       -1.86309992681156
H           -0.01010467384426        0.59203337400332       -2.50878637505881
O           -3.26905306438950       -2.73406287901758        0.02033190528942
H           -2.91458316328854       -3.48156347200803        0.55034519065037
H           -2.49576949735031       -2.48873155845719       -0.51900874739053
O            2.81478763276550       -2.65326343208027        3.30444007922452
H            2.70770013058099       -3.57674895980434        3.01069098867019
H            3.36666234285612       -2.25580087420967        2.61334765306750
O           -1.30675796962732       -2.64027423793185       -4.88523153077543
H           -0.49918195877415       -2.15045631206631       -5.06113675202758
H           -1.24676792951178       -3.45127272994317       -5.39317113955209
O            0.79572336512403       -3.14185577661272        1.92352931732109
H            0.59748896552820       -4.01424540946482        1.55594221538990
H            0.11120805636386       -2.94399649706536        2.57463824971910
O           -0.67462913794608       -3.77640333475888       -0.06757899049405
H           -0.97905775482637       -4.67073576705087       -0.22345051056503
H            0.06357958829865       -3.63721239660992       -0.67208740441040
O           -2.37410152346539       -3.38088399437065        2.64258373228958
H           -2.05374320296218       -2.47673725453977        2.68799719828713
H           -1.89519795234465       -3.87422363763973        3.31214995528386
O           -1.33115135783183       -3.29188686849127       -2.49089665322228
H           -1.65078555836690       -4.18245793303596       -2.60606246246452
H           -2.08041664187888       -2.73204891242201       -2.69270296243957
34
 energy: -56.629104684445 gnorm: 0.072145998297 xtb: 6.7.1 (edcfbbe)
C           -0.02143143841933       -0.49843371697052        0.66211025577290
C           -0.04447142556878        0.15817773659964        2.07786729345314
O           -0.20829650522115       -0.63281085790074        3.05150713167195
O            0.02573244922852        1.38566813525056        2.12692463231444
C           -0.00958737380085        0.54190410033506       -0.43408338983898
N           -0.00561060680463       -0.11683343869371       -1.77001063695597
H            0.85285511735642       -1.14478145833646        0.65035069935668
H           -0.89747874459871       -1.13983895887140        0.60823501214919
H           -0.88571375936574        1.17355042789111       -0.33046848416379
H            0.86630866012338        1.17319396060417       -0.32622620041486
H           -0.81624255136432       -0.73547586623793       -1.86028818805669
H            0.82635664078741       -0.70259123789307       -1.85626221033628
H           -0.02052113450973        0.58299685758802       -2.51338866230223
O           -3.27167735291287       -2.70294394477682        0.00361880553672
H           -2.98614946538462       -3.42754732401942        0.58960244853628
H           -2.47709597927893       -2.53279330588480       -0.52610849503138
O            2.94787963435216       -2.65418639012458        3.37245080559447
H            2.74791328973197       -3.55380501164048        3.03270312256255
H            3.41945867894656       -2.25122104067837        2.61759109366353
O           -1.31998026336933       -2.60553489867924       -4.96787769756907
H           -0.47824437887135       -2.15743957327896       -5.10419960643585
H           -1.24556738525656       -3.45015452503745       -5.42172061916997
O            0.88882597979540       -3.20186588598210        1.95888398443093
H            0.50359657103186       -4.03124393998831        1.55234375803902
H            0.17119994708335       -2.84762771524741        2.54489694720729
O           -0.66918857416292       -3.85576130531531       -0.04068246635402
H           -0.98662012870674       -4.73431694035652       -0.25905850616274
H            0.03000711779778       -3.65594956511626       -0.68035063879473
O           -2.32413888314653       -3.39141355056985        2.62966678148728
H           -2.05299711395176       -2.47304000606283        2.71879582712679
H           -1.91175506571859       -3.86763646692302        3.36198595722957
O           -1.37207298439764       -3.25599530152685       -2.45722695627756
H           -1.63636108438062       -4.16518142154278       -2.62299738269812
H           -2.12713088704473       -2.72979857061477       -2.75675441557023
34
 energy: -56.637180653183 gnorm: 0.069514409192 xtb: 6.7.1 (edcfbbe)
C           -0.04749267683729       -0.51117641254191        0.66454137162628
C           -0.10795519440409        0.17325229704507        2.08736232213450
O           -0.29363864950050       -0.63808362658021        3.04079580771240
O            0.06905863813126        1.39834369527156        2.12554386068269
C           -0.02164287534403        0.53348505599895       -0.42680729081156
N           -0.01101806517744       -0.12093646005782       -1.76952833409989
H            0.83924986485197       -1.14196669266706        0.67982039198035
H           -0.92352984345184       -1.14959427410399        0.60549268665646
H           -0.89895593280458        1.16911667295438       -0.33057074226526
H            0.85663804464123        1.16599643699168       -0.31610811754571
H           -0.81324689554471       -0.75477857530264       -1.85318895481947
H            0.82844770791822       -0.69966584321422       -1.84855573150386
H           -0.03635103511646        0.57576904621729       -2.51724213808936
O           -3.28044905561736       -2.67956666180090       -0.03183077795038
H           -3.05534038718305       -3.35209682462109        0.65831507938717
H           -2.44595696575751       -2.59177653389002       -0.53517613014300
O            3.05286238460376       -2.64089208737914        3.37712414571420
H            2.80989495178641       -3.52063079720887        3.08167082377893
H            3.50693612850626       -2.24470606615464        2.64738106842557
O           -1.32648601078951       -2.57298513280159       -5.05724651419964
H           -0.45713766865240       -2.16201542289383       -5.15878417843160
H           -1.24881260537289       -3.44572688922554       -5.46327740063898
O            0.90910881792449       -3.20768367373872        1.96042647280492
H            0.48625251774453       -3.99114780306230        1.52810025429596
H            0.24224380898422       -2.84686624871148        2.54693865051896
O           -0.66083434014913       -3.95023711447727       -0.00860638548155
H           -0.99880899120423       -4.81078553233787       -0.29208852246526
H           -0.00406846103248       -3.68985741422262       -0.68249974918325
O           -2.27735991317620       -3.39475481715875        2.62669795863186
H           -2.04451620545582       -2.46471116500674        2.75427420358498
H           -1.92492043559519       -3.86159885628588        3.40597004722337
O           -1.41512380848481       -3.21394361021113       -2.42273904927553
H           -1.62694839907345       -4.14090925984948       -2.62990383156725
H           -2.16829744937058       -2.71760040897573       -2.81447129668668
34
 energy: -56.641544341272 gnorm: 0.081057405083 xtb: 6.7.1 (edcfbbe)
C           -0.07479952353062       -0.52190401330255        0.66730024358221
C           -0.16466386529358        0.17468982813588        2.09621074343384
O           -0.36197785974772       -0.64511553386429        3.02585752940093
O            0.08727078431683        1.40161197534145        2.14181849566604
C           -0.03602666921268        0.52202129475656       -0.42551164319325
N           -0.01683454454974       -0.12854444063881       -1.77090557362586
H            0.82596952859206       -1.13449797146561        0.70052604443233
H           -0.94942929039734       -1.16217474026981        0.60134002642380
H           -0.91486004364931        1.16322014898482       -0.33692074028953
H            0.84673387843756        1.15476683626283       -0.30925010477844
H           -0.81292261360830       -0.77690173194302       -1.84841097088498
H            0.83503786201639       -0.69591928663429       -1.84539532933840
H           -0.05402401826140        0.56773589732512       -2.52250289854846
O           -3.25221560950874       -2.65003167181251       -0.00065315565748
H           -3.09368524224510       -3.31023347907839        0.65171979844952
H           -2.46342694339516       -2.63406529173201       -0.55042532082134
O            3.20707838816098       -2.64483564283908        3.46099226169661
H            2.80808058794684       -3.49104263566360        3.09839375218556
H            3.53799654876387       -2.23440889155850        2.62167187891340
O           -1.31459868900690       -2.55430622746418       -5.14871359877094
H           -0.44190944870320       -2.16128830683147       -5.22728654044759
H           -1.25463603619188       -3.43331823406966       -5.52752471588965
O            0.95723837670374       -3.21738119076395        1.99036547350776
H            0.48692732637871       -3.93437153784401        1.52679528809849
H            0.30253575279752       -2.80740495128451        2.52831722436492
O           -0.67171197100726       -4.03250463033858       -0.02060492889942
H           -1.00859593657028       -4.88178211204944       -0.29491598126518
H           -0.02424528828414       -3.74954513311068       -0.66725148828174
O           -2.27192381221087       -3.37746808979534        2.67672020019482
H           -2.01216446348813       -2.46195512585057        2.77601575351089
H           -1.91524061137968       -3.86449775967557        3.41123237968260
O           -1.44923463811756       -3.18550393765119       -2.43215218092331
H           -1.65155883302022       -4.10593502852544       -2.60474007448103
H           -2.17238208273915       -2.68783938475305       -2.81028184744670
34
 energy: -56.647603215836 gnorm: 0.077126905836 xtb: 6.7.1 (edcfbbe)
C           -0.08551174728974       -0.52129143560154        0.67273703385015
C           -0.14197044488522        0.15620145484673        2.10300629592526
O           -0.40544143888168       -0.65405901412024        3.02152040563593
O            0.02763840286974        1.37911727290610        2.17500928625142
C           -0.04668014512777        0.51487016795079       -0.42769564066547
N           -0.02217110207389       -0.13744028112151       -1.76796562385931
H            0.81446633935133       -1.13189081946698        0.69906157526660
H           -0.96154463523143       -1.16417598440142        0.60716589707592
H           -0.92535615464229        1.15865018110816       -0.34104232895111
H            0.83873355769685        1.14504639034045       -0.30539744270560
H           -0.81606359989693       -0.79141915505409       -1.84368685381008
H            0.83967822057544       -0.69314711779078       -1.84531019578483
H           -0.06716252885002        0.56030756627859       -2.52030211892851
O           -3.25109869973209       -2.64181682140606       -0.03948847661284
H           -3.11899097834774       -3.24530444911867        0.72496908249932
H           -2.42480639202937       -2.70386533220746       -0.56967143956414
O            3.25345441448722       -2.63787024499070        3.44157950302622
H            2.86518700326677       -3.47331520185960        3.15325510352020
H            3.59807694482483       -2.22324181520060        2.64670961552686
O           -1.30176639858189       -2.54977043254025       -5.18858158437293
H           -0.44289309387134       -2.15501722507312       -5.27113079975804
H           -1.26773184697796       -3.41927128705021       -5.56786685004680
O            0.99845607746087       -3.25872912650748        1.98711372753884
H            0.43039545001787       -3.93505457540418        1.52976789078903
H            0.32611572562360       -2.70539230566934        2.48438650655281
O           -0.66537362658885       -4.09070197960550       -0.00947160419393
H           -1.01409454553112       -4.92824842415461       -0.29979867002648
H           -0.04317308616544       -3.78665300173319       -0.66766052849950
O           -2.25751338016649       -3.36257669912711        2.68279078132216
H           -1.98520815290583       -2.45381602582364        2.79341321971584
H           -1.92919865649594       -3.86227501326380        3.41874108294214
O           -1.46934567947109       -3.15641008904962       -2.44384334057442
H           -1.66473922780550       -4.07088850597641       -2.58142137781225
H           -2.17256557463009       -2.66128167011677       -2.81906213127192
34
 energy: -56.648670556521 gnorm: 0.093759383387 xtb: 6.7.1 (edcfbbe)
C           -0.09323669497668       -0.51720966988404        0.67278708756993
C           -0.13083072219107        0.12877065611708        2.10464387586346
O           -0.45533800073035       -0.67510466171397        3.01860567443470
O           -0.01843744896445        1.34079992348021        2.20214367863284
C           -0.05505483770439        0.51224034760295       -0.43205605938602
N           -0.02442761326631       -0.14898782083077       -1.76416866362059
H            0.79867426496086       -1.13575279812382        0.69356500986062
H           -0.96795028416312       -1.16271817192807        0.60325219081733
H           -0.93204208052641        1.15383378014176       -0.34926918111807
H            0.82782578414217        1.13906951472975       -0.30349403477812
H           -0.81325568910478       -0.80596301556593       -1.84102747860702
H            0.84185432555451       -0.69341699080181       -1.84609111647900
H           -0.07511708101256        0.54630155367321       -2.51647871584341
O           -3.23740559943331       -2.64379130226898       -0.03139484366835
H           -3.08925879882146       -3.22174117529831        0.72218915648784
H           -2.43843743730566       -2.72103428938697       -0.57480317032753
O            3.29203720608590       -2.63312386944593        3.44365350707684
H            2.87785749966343       -3.45361561677897        3.16584372205828
H            3.62250716937348       -2.21032185676193        2.65173173178893
O           -1.31776676011042       -2.52908078189656       -5.21512714362606
H           -0.42304223179767       -2.17293414609112       -5.28251403431726
H           -1.28316693000822       -3.42524545848268       -5.56415174321033
O            0.99440538855097       -3.23170619103094        1.98943939294930
H            0.46571443285049       -3.87978164972831        1.51795966696986
H            0.36950206984058       -2.71145127878311        2.51654798407067
O           -0.63359839301215       -4.16451294459387        0.05563439054199
H           -1.01128517585042       -4.98520253351314       -0.32398274491902
H           -0.08106298861559       -3.79435564795089       -0.69247054618786
O           -2.20317039976846       -3.35266174705103        2.63310483880825
H           -1.95607926197906       -2.43365433088134        2.83149281278590
H           -1.98219039331457       -3.85362800312496        3.46454738909078
O           -1.50155379993075       -3.09300519815762       -2.39645991044049
H           -1.63810593516996       -4.03241116439225       -2.58256796182239
H           -2.21676258327068       -2.63933446128214       -2.93925476145560
34
 energy: -56.653707648374 gnorm: 0.079112263698 xtb: 6.7.1 (edcfbbe)
C           -0.10710686933227       -0.52570261035635        0.67273795135054
C           -0.20480209331481        0.10674217616382        2.10635019484609
O           -0.47554139462080       -0.70195428749150        3.01297104907301
O            0.01401306604304        1.32805802532773        2.21698445832020
C           -0.06163172828435        0.50823854642996       -0.42957444312210
N           -0.02491123706953       -0.15643016883899       -1.75903893201095
H            0.78996116841123       -1.14167824569350        0.69909931796570
H           -0.97730295147936       -1.17392842408482        0.58717679135195
H           -0.94013989441789        1.14786668700204       -0.35451720149129
H            0.81890562310991        1.13688804091681       -0.29843374321085
H           -0.80920624886014       -0.81826686089923       -1.83754945111905
H            0.84443239148046       -0.69390681906436       -1.84335178942956
H           -0.08045602864526        0.53699382777668       -2.51224052001712
O           -3.24021542087428       -2.64900276501162       -0.06755730871538
H           -3.08028607413722       -3.17360976273239        0.77083699233207
H           -2.41431539719444       -2.76081588239160       -0.58632273055890
O            3.34848065785128       -2.63140382219025        3.47795281533986
H            2.86808936815384       -3.43736584715176        3.16890455239019
H            3.64471096513964       -2.20792753083822        2.65850206650585
O           -1.33234457167660       -2.50621766220939       -5.25536189052521
H           -0.40677192048282       -2.18208459646840       -5.30687903645220
H           -1.29070635944879       -3.42738764189078       -5.57699257540107
O            1.01563013406584       -3.22213513624186        2.00971475920622
H            0.43285582025471       -3.83276551881713        1.48664974140410
H            0.40936425194134       -2.69816425956684        2.52850421001069
O           -0.66778586520952       -4.17811681934786       -0.00627620344625
H           -1.00432829386472       -5.01501319442339       -0.28459842183693
H           -0.06603857620392       -3.84784616306465       -0.66568302261469
O           -2.22369922289618       -3.32684623894419        2.67009241624844
H           -1.92698801984116       -2.42427093945286        2.83308194003107
H           -1.96337796544537       -3.85263343113004        3.43988265074746
O           -1.51198930598631       -3.05971605028420       -2.39885583023159
H           -1.63890451696529       -4.00765514168027       -2.59188475189497
H           -2.22579249020679       -2.61267248335552       -2.93249405504497
34
 energy: -56.642048572181 gnorm: 0.183552721160 xtb: 6.7.1 (edcfbbe)
C           -0.11845657195524       -0.53532563425151        0.67127031013509
C           -0.27204429781415        0.08303394314236        2.10426221667401
O           -0.50995053293981       -0.73341967206779        3.00352087379107
O            0.03877263099443        1.32033031498919        2.23065387943331
C           -0.06893491475076        0.50659325927440       -0.42739177140234
N           -0.03089912039173       -0.16143948871652       -1.75426856510383
H            0.78373995982670       -1.14993458269854        0.69556556200014
H           -0.98764579350225       -1.18265018488390        0.57057907526447
H           -0.95018887736823        1.14432840559984       -0.35749900916688
H            0.80956799188168        1.13953085234739       -0.29833778813712
H           -0.81058568573051       -0.83071740635664       -1.83131079915462
H            0.84202353333132       -0.69180059286662       -1.84358065063624
H           -0.09452500478829        0.52936698135802       -2.51005425248423
O           -3.19811582175368       -2.62606585733856        0.01358815703161
H           -3.05845486197192       -3.18544774359885        0.69343206374629
H           -2.46315950466852       -2.75176664020934       -0.58471378828013
O            3.35986332480274       -2.63524041022543        3.45137304699620
H            2.92153705200592       -3.42577543453707        3.20447314495943
H            3.67515176494421       -2.19881598762419        2.69178025319416
O           -1.28566525442877       -2.53418182107633       -5.26853592422511
H           -0.42708841826633       -2.16212465493653       -5.36590967169004
H           -1.29220145425297       -3.40773818554899       -5.63679551318337
O            1.00756939101744       -3.23084386122703        1.98262290242882
H            0.38925057469310       -3.82915568318441        1.49067344362195
H            0.43030002374204       -2.63834890933002        2.50115451376172
O           -0.65411762959470       -4.21379742560650       -0.00014806815794
H           -0.99892921989205       -5.04987174936534       -0.28884892034159
H           -0.07458767791072       -3.86991962316684       -0.67206776562769
O           -2.24523554457080       -3.29822322075143        2.72227457219713
H           -1.89328944229714       -2.41463687715084        2.84246587488118
H           -1.93834286583148       -3.84556802671672        3.41312701731273
O           -1.50675976452366       -3.05751588587675       -2.44236400427016
H           -1.68045260358366       -3.98268883372326       -2.56779013765260
H           -2.18634438445863       -2.58090036368030       -2.80137027791514
34
 energy: -56.655571743319 gnorm: 0.088152420557 xtb: 6.7.1 (edcfbbe)
C           -0.12059515787488       -0.53898307496315        0.67080194179018
C           -0.22357029294041        0.07679190898362        2.10287384139241
O           -0.54298639909194       -0.74576125386538        3.00090611332965
O           -0.00418013598417        1.30163186801668        2.23791871205304
C           -0.07097786418621        0.50398664720749       -0.42619053034262
N           -0.03081258494524       -0.16373280780996       -1.75309962012641
H            0.77896522579025       -1.15495287020470        0.69018431645942
H           -0.99285661579665       -1.18489683951869        0.56931275391782
H           -0.95330234549718        1.14121840459642       -0.35660124821151
H            0.80812441860573        1.13704907511573       -0.29613454221486
H           -0.80875799646011       -0.83631620856841       -1.82916131103308
H            0.84443241351200       -0.69213817632852       -1.84106659603052
H           -0.09627385534316        0.52701701877628       -2.50923087636048
O           -3.21145415391493       -2.62562249034967       -0.04869017825713
H           -3.07028112718092       -3.14359118876463        0.78390699092747
H           -2.42170401333707       -2.79318421389526       -0.61039537743518
O            3.39390173217178       -2.63967783182264        3.49977133571335
H            2.89122396144604       -3.42449035793815        3.18937079996434
H            3.65133698702250       -2.19225004270604        2.66012621485545
O           -1.27354595023673       -2.54248263094039       -5.26137646836820
H           -0.42930248040317       -2.16027312772825       -5.37828954764579
H           -1.30164298078667       -3.39941107095969       -5.64840237214050
O            1.00746996385723       -3.21645497422386        1.98691034875899
H            0.42933276935265       -3.81263292491195        1.50451708803546
H            0.43070560480166       -2.64101993001756        2.50524295517338
O           -0.63454966783886       -4.23513761651380        0.04025802593013
H           -1.00283240611912       -5.06600837247018       -0.30826465681197
H           -0.09116454990862       -3.86051389469907       -0.69343206619339
O           -2.23471204691318       -3.28679294173874        2.70445999075310
H           -1.87638757583963       -2.40618275043942        2.85198691857984
H           -1.95479222924976       -3.84750721799724        3.41795935231749
O           -1.50647878944763       -3.04625936037065       -2.42517436003055
H           -1.68180145002217       -3.96729209464885       -2.56207931824178
H           -2.18872940724843       -2.56485965830661       -2.83708863050722
34