40
 energy: -54.792182537179 gnorm: 0.000258775161 xtb: 6.7.1 (edcfbbe)
N        0.7446258391      0.2308018608     -0.4082268699                 
C        2.1589242213     -0.1761213648     -0.4607522061                 
C        2.9280245649      0.7234886803     -1.4223394659                 
C        4.4340139050      0.5000111462     -1.3384507677                 
C        5.2454598213      1.5697261781     -2.0901284638                 
O        4.8739737297      2.7653129244     -2.0106129482                 
O        6.2567270240      1.1819651861     -2.7154326723                 
H        0.6747294326      1.2186419195     -0.0784266856                 
H        0.3241725406      0.1829986592     -1.3543124702                 
H        2.2279125688     -1.2146722335     -0.7844774042                 
H        2.5899152362     -0.0939342044      0.5373914931                 
H        2.7322672700      1.7666278621     -1.1780022263                 
H        2.5983850176      0.5518648048     -2.4481503180                 
H        4.7308644814     -0.4713689268     -1.7367177386                 
H        4.7665722593      0.5590753940     -0.2981022624                 
H        0.2124510286     -0.3835165374      0.2371151540                 
O        0.6985139362      2.8699896559      0.4252238069                 
H        0.7291797794      3.1517853001      1.3437228242                 
H        1.4053763961      3.3558215922     -0.0324856617                 
O        2.8367604618      4.1886502124     -0.7851571049                 
H        3.5935914344      3.7124970240     -1.1746334368                 
H        2.8032603067      5.0375366322     -1.2348572591                 
H       -1.2364853021     -2.0839386787      1.1182933875                 
O       -0.5421209050     -1.4722471133      1.3787239840                 
H       -0.7330049052     -1.1721820494      2.2718651130                 
O        7.9363506048      2.6713014610     -4.2560228226                 
H        8.8147335339      2.4586116074     -3.9245107230                 
H        7.3165832577      2.1076420257     -3.7409161573                 
H       -0.8909431283     -0.6211921328     -3.3038791901                 
O       -0.3730185766      0.1211690589     -2.9794045299                 
H       -0.7387597053      0.9232031959     -3.3616950330                 
H        6.9569152836      4.2669526631     -3.7970786811                 
O        6.3053449405      4.7851289389     -3.2968833059                 
H        5.7845224606      4.1066481441     -2.8222688518                 
H       -1.9271385468      1.5701790519      1.0644578645                 
O       -1.6826335185      1.0827019672      0.2727303653                 
H       -2.4898437028      0.8720840303     -0.2050020003                 
H        6.2451712135      2.7162398320     -3.0812976738                 
O        6.7035701688      3.1591779225     -3.8010615141                 
H        6.1630104161      3.0743871154     -4.5914583530                 
