40
 energy: -64.950207737201 gnorm: 0.020547077527 xtb: 6.7.1 (edcfbbe)
N            0.74462583910000        0.23080186080000       -0.40822686990000
C            2.15892422130000       -0.17612136480000       -0.46075220610000
C            2.92802456490000        0.72348868030000       -1.42233946590000
C            4.43401390500000        0.50001114620000       -1.33845076770000
C            5.24545982130000        1.56972617810000       -2.09012846380000
O            4.87397372970000        2.76531292440000       -2.01061294820000
O            6.25672702400000        1.18196518610000       -2.71543267230000
H            0.67472943260000        1.21864191950000       -0.07842668560000
H            0.32417254060000        0.18299865920000       -1.35431247020000
H            2.22791256880000       -1.21467223350000       -0.78447740420000
H            2.58991523620000       -0.09393420440000        0.53739149310000
H            2.73226727000000        1.76662786210000       -1.17800222630000
H            2.59838501760000        0.55186480480000       -2.44815031800000
H            4.73086448140000       -0.47136892680000       -1.73671773860000
H            4.76657225930000        0.55907539400000       -0.29810226240000
H            0.21245102860000       -0.38351653740000        0.23711515400000
O            0.69851393620000        2.86998965590000        0.42522380690000
H            0.72917977940000        3.15178530010000        1.34372282420000
H            1.40537639610000        3.35582159220000       -0.03248566170000
O            2.83676046180000        4.18865021240000       -0.78515710490000
H            3.59359143440000        3.71249702400000       -1.17463343680000
H            2.80326030670000        5.03753663220000       -1.23485725910000
H           -1.23648530210000       -2.08393867870000        1.11829338750000
O           -0.54212090500000       -1.47224711330000        1.37872398400000
H           -0.73300490520000       -1.17218204940000        2.27186511300000
O            7.93635060480000        2.67130146100000       -4.25602282260000
H            8.81473353390000        2.45861160740000       -3.92451072300000
H            7.31658325770000        2.10764202570000       -3.74091615730000
H           -0.89094312830000       -0.62119213280000       -3.30387919010000
O           -0.37301857660000        0.12116905890000       -2.97940452990000
H           -0.73875970530000        0.92320319590000       -3.36169503300000
H            6.95691528360000        4.26695266310000       -3.79707868110000
O            6.30534494050000        4.78512893890000       -3.29688330590000
H            5.78452246060000        4.10664814410000       -2.82226885180000
H           -1.92713854680000        1.57017905190000        1.06445786450000
O           -1.68263351850000        1.08270196720000        0.27273036530000
H           -2.48984370280000        0.87208403030000       -0.20500200030000
H            6.61750374370000        1.05625321630000        0.81217740910000
O            7.04352514800000        1.57084259110000        0.12073885180000
H            6.50873308120000        1.49597970660000       -0.67456894010000
40
 energy: -64.955304848017 gnorm: 0.017933745472 xtb: 6.7.1 (edcfbbe)
N            0.74602163852533        0.22814251049499       -0.40481340385609
C            2.15667873100452       -0.17995850693747       -0.46222471388587
C            2.91280824793790        0.72000486228480       -1.43254963745823
C            4.41420885698833        0.49053318790989       -1.35387125005382
C            5.22383793953805        1.56287918583271       -2.10893196056862
O            4.85468694609363        2.75850040424394       -2.02897519188485
O            6.23801391526087        1.17402668408509       -2.73411058564551
H            0.66696262358285        1.21516808875113       -0.07699095091800
H            0.31658845876540        0.18286243186517       -1.34500347551531
H            2.22602947835488       -1.21909941025889       -0.78394319310493
H            2.59156569855316       -0.09399108797788        0.53413227255201
H            2.72081712925658        1.76308221675019       -1.18469826751279
H            2.57975018224317        0.54917269594701       -2.45662908596819
H            4.71367607157846       -0.48099784344855       -1.74959664900233
H            4.72288039028550        0.54074419181334       -0.30659693159859
H            0.20727639132322       -0.37757235404322        0.24187725688694
O            0.70503126666466        2.87911100697398        0.43121705837544
H            0.75865022009088        3.15688105012444        1.34953311256139
H            1.40998634447212        3.35563966026998       -0.03797454175300
O            2.84245528899023        4.19288104417793       -0.78003040247051
H            3.59633443990831        3.71589957600647       -1.17285135877574
H            2.80911981212041        5.04231292511792       -1.22822804382707
H           -1.22826407514553       -2.09265446479667        1.11877796679870
O           -0.51928284353129       -1.50197397992212        1.38768032105578
H           -0.72594235606852       -1.17925207752503        2.26918399142501
O            7.92935732910256        2.66523108686732       -4.27006183580767
H            8.80894958261477        2.46001941964819       -3.93704998281671
H            7.31394722733965        2.10081461707534       -3.75184510166998
H           -0.88630040835818       -0.62003890007823       -3.31482827191989
O           -0.36690386351880        0.11873977489014       -2.98475802324691
H           -0.72425281600516        0.92404148427507       -3.36785349216563
H            6.95631138867941        4.26315219688816       -3.79973667821641
O            6.29603964406999        4.78195686014495       -3.31155927456148
H            5.78435525669803        4.10608186458038       -2.82378083300247
H           -1.95461797764836        1.61496617572475        1.04195235720350
O           -1.73558312949375        1.02785116797161        0.30656879579837
H           -2.54439345190690        0.91449371441497       -0.20680423126948
H            6.62207174486398        1.05532749354316        0.83802500581432
O            7.12075337851956        1.60282495152563        0.21311184189098
H            6.67634031665006        1.54851554438939       -0.64681855528700
40
 energy: -64.957910733972 gnorm: 0.028028899042 xtb: 6.7.1 (edcfbbe)
N            0.73738238656944        0.22521498106768       -0.40028905315304
C            2.14533181622853       -0.18171491574291       -0.46676907525141
C            2.89795370875811        0.71327809974605       -1.44405205025391
C            4.40048639768818        0.48608940235026       -1.36846213250422
C            5.20728890540109        1.55907040067266       -2.12260929919553
O            4.83913322544481        2.75349049922700       -2.04434257088297
O            6.23757414576144        1.17295442981477       -2.72667090008216
H            0.65073431545345        1.21073827091610       -0.07264528014202
H            0.29853378814275        0.18231812777591       -1.33489988912878
H            2.21399805773773       -1.22212774188431       -0.78450956462972
H            2.58684336518565       -0.09269255530779        0.52644343604141
H            2.70807735785138        1.75677945566694       -1.19667069202684
H            2.55440646584354        0.54115154267320       -2.46434293206754
H            4.70159223311634       -0.48506440597886       -1.76407238584693
H            4.70725020644026        0.53880323568896       -0.32144793257278
H            0.19257683851154       -0.37340822176920        0.24798122370780
O            0.70992876740386        2.89230463907158        0.43905834161129
H            0.80689556456840        3.15924311769302        1.35852664558671
H            1.41123376995390        3.35546485157728       -0.04923397613880
O            2.84714862556588        4.19805705796497       -0.77584028721033
H            3.59484312151529        3.71702885811514       -1.17470305337437
H            2.81761924796330        5.04947242869021       -1.22035826013250
H           -1.21581374234977       -2.09826288207694        1.11447583236986
O           -0.47665854537220       -1.55072219607355        1.40186094732582
H           -0.71723474996143       -1.18035825819753        2.25927443914625
O            7.92893790889332        2.66225276858209       -4.27584288639315
H            8.80880582634372        2.45789806444833       -3.94249223681775
H            7.31357755876085        2.09290442645110       -3.76417782895734
H           -0.87935514327939       -0.61724664012227       -3.33454247210698
O           -0.36226427420849        0.11807117502379       -2.99337018110917
H           -0.70203221201715        0.92573877809425       -3.38777442807842
H            6.94969164960710        4.25570290225680       -3.80984270101213
O            6.30843208879708        4.77976687470578       -3.30265367045349
H            5.76051561814436        4.10592584262378       -2.85317999685671
H           -1.99363390257681        1.65571342849779        1.02179712214040
O           -1.81165636532164        0.98734558010169        0.33640368632979
H           -2.62185840368327        0.95993936861886       -0.19753117204615
H            6.67060992992229        1.06771965088958        0.87401596999856
O            7.19288446825631        1.63792478549377        0.28759009171648
H            6.81618499734023        1.54955422225420       -0.60515677095013
40
 energy: -64.958706053134 gnorm: 0.040576315034 xtb: 6.7.1 (edcfbbe)
N            0.72367853541766        0.22377384050978       -0.39536055617814
C            2.12859256539400       -0.18315713256507       -0.47150316173144
C            2.87788620764987        0.70548285477474       -1.45772019308000
C            4.38244751035063        0.48210671307344       -1.38537062451386
C            5.19018517679906        1.55655757188566       -2.13178079963452
O            4.80628590739371        2.74610517137302       -2.08145798727044
O            6.23949958661624        1.17349723680617       -2.70926909504794
H            0.63143202754894        1.20728373729751       -0.06678831478955
H            0.27556825411774        0.18269239619953       -1.32476226262989
H            2.19471501903694       -1.22548567413900       -0.78387923938806
H            2.57832523335440       -0.09111123835866        0.51789318159653
H            2.69041881495991        1.75037138141879       -1.21371794742622
H            2.52438526690822        0.52916421143935       -2.47396365803298
H            4.68577803468862       -0.48882898124178       -1.78029254413946
H            4.69109887893822        0.53970504083166       -0.33973842591201
H            0.17318963184136       -0.36888489779707        0.25443023166120
O            0.71836353757282        2.90801558108552        0.45041822112675
H            0.86672851990026        3.16159659909428        1.36997181090666
H            1.41212997114378        3.35979544654811       -0.06020950975135
O            2.85244001426538        4.20313143896849       -0.77153298585395
H            3.59195863937461        3.71679277397844       -1.17877108223701
H            2.83344678237052        5.06113972933417       -1.20421174057879
H           -1.19546556055072       -2.10612002430503        1.10844114159768
O           -0.43479333758979       -1.59475136280939        1.41333262181277
H           -0.70349640496709       -1.18652391600624        2.24821597701648
O            7.92391349702852        2.65142283615867       -4.29033779217725
H            8.80514799649443        2.45445868952126       -3.95557750405220
H            7.31090858094982        2.08347941741060       -3.77608392850312
H           -0.86733304349951       -0.61253270399419       -3.36171507282574
O           -0.35837518126707        0.12074045632787       -3.00378203507504
H           -0.67479791181032        0.92908944672811       -3.41775587692332
H            6.95757996646927        4.24873630178073       -3.80813271802923
O            6.29349522684919        4.77146333216808       -3.32940096461956
H            5.76018538676649        4.10126040579622       -2.86135873283604
H           -2.05530250215446        1.63063510794463        1.03594340999220
O           -1.89870059195588        1.06049261758177        0.30742087719983
H           -2.71081573270004        0.95239824211408       -0.15639407666483
H            6.74664148336137        1.09767445247031        0.92694435097422
O            7.29494352648398        1.66545557802587        0.36745061371551
H            6.97367550484918        1.54919677216985       -0.54064955109928
40
 energy: -64.960493089961 gnorm: 0.018781182339 xtb: 6.7.1 (edcfbbe)
N            0.71159016159176        0.22708788130572       -0.39648623830832
C            2.11691489326398       -0.18128054622705       -0.47388571263715
C            2.86822993292743        0.70473256645218       -1.46225337904413
C            4.37447706128771        0.48356775930409       -1.38923799683720
C            5.19039201857207        1.55828007858235       -2.12509220511990
O            4.78824330317012        2.74397988453906       -2.10445458581473
O            6.24882266175671        1.17717028032750       -2.68615111945027
H            0.62301309316404        1.20979322684429       -0.06545866138023
H            0.26382135248570        0.18559977959457       -1.32677496175169
H            2.17973220955730       -1.22454309936025       -0.78440192484919
H            2.56886627331736       -0.08972148720722        0.51455479207639
H            2.67993445403610        1.75106303483582       -1.22413032409339
H            2.51663497040927        0.52302854957455       -2.47828283852820
H            4.67788150268678       -0.48712598945322       -1.78475483903165
H            4.68994691103362        0.54278231995666       -0.34524106392698
H            0.16553745225083       -0.37028941136176        0.25318702956312
O            0.72950893971860        2.90728950415715        0.45844820756163
H            0.88510944763396        3.16272999280826        1.37376708711658
H            1.41188324611162        3.36754808073470       -0.05936686040279
O            2.85477578562423        4.20466642809424       -0.77087991760604
H            3.58766338221777        3.71470285660115       -1.18661927446989
H            2.84370534700373        5.06859783942574       -1.19281197101898
H           -1.17276112412980       -2.12600689938149        1.11267731286499
O           -0.44164438148025       -1.58162118928113        1.40601432988337
H           -0.68296358268956       -1.21169022191494        2.25466450009831
O            7.92000756635594        2.64158961952643       -4.29707511155184
H            8.80307332860833        2.45024186710585       -3.96393982965624
H            7.30998241936465        2.08033580175442       -3.77231796585735
H           -0.85649646555869       -0.60977025149840       -3.37907231391183
O           -0.35727200335670        0.12530798153596       -3.01055249013507
H           -0.66471053837472        0.93124413407139       -3.43609733955442
H            6.96450607053403        4.24424910579462       -3.80649457965079
O            6.28252645146882        4.76501350117573       -3.34901290638976
H            5.76483558203919        4.09575166327990       -2.86287565871291
H           -2.04381756997905        1.67304025057001        1.01542354339343
O           -1.94888531048095        1.00320001213719        0.32824628563350
H           -2.78129830874722        0.98617150558636       -0.14431401566807
H            6.80113376875843        1.12363074895770        0.95725071573218
O            7.35048494571564        1.65493236685821        0.37835738282498
H            7.01257977053166        1.54103992379406       -0.50561104479116
40
 energy: -64.960808676905 gnorm: 0.037440091685 xtb: 6.7.1 (edcfbbe)
N            0.69533354615914        0.23266343010871       -0.39753259269163
C            2.10235098129991       -0.17699579963878       -0.47657656706335
C            2.85752922475665        0.70643673900084       -1.46589183673680
C            4.36494238426501        0.48558595194937       -1.39185735548799
C            5.18953112976849        1.55860940832091       -2.12197909549343
O            4.78059538012161        2.74263494776972       -2.11546804141744
O            6.27048091822628        1.18361327330842       -2.64440793423386
H            0.61395184129352        1.21429548618983       -0.06228987758976
H            0.24932982874579        0.19098176983704       -1.32975360198004
H            2.16081749215387       -1.22079946198462       -0.78645462679630
H            2.55537329466114       -0.08693100970634        0.51136183830981
H            2.66677961966955        1.75424698390553       -1.23571181673112
H            2.51153894706512        0.51794068107143       -2.48260286317668
H            4.66669524705270       -0.48439157549116       -1.78968436201303
H            4.68656682252940        0.54114341161218       -0.34852241542449
H            0.15837954151134       -0.37445732379417        0.25241556656794
O            0.74173939506662        2.90512260215528        0.47173637365313
H            0.90922376215619        3.16041589241132        1.38249517971143
H            1.41134587539141        3.37379813509155       -0.05512026724356
O            2.85646006826272        4.20643183301811       -0.77251112486454
H            3.57859632019588        3.71186803970138       -1.20333743516189
H            2.85146313561232        5.07600007387207       -1.18326682136290
H           -1.15231254626808       -2.13380937271088        1.10488322211925
O           -0.42689084467834       -1.58513425352104        1.40406982754427
H           -0.66705769094147       -1.22195218061205        2.25514478628667
O            7.91680684917743        2.63282349807142       -4.29714453774503
H            8.80363813215435        2.44481493633240       -3.97250277198656
H            7.31262482544987        2.07724115035671       -3.75937682911467
H           -0.83772646120975       -0.60985748686956       -3.39787049039073
O           -0.34930420189459        0.12941013672203       -3.02357873597749
H           -0.65380824861972        0.93030017769262       -3.45868267391353
H            6.95138046312654        4.23428145230835       -3.82717107544794
O            6.30379998846706        4.76087589913996       -3.33245484835338
H            5.73705763168178        4.09064486892115       -2.90055778997141
H           -2.04679727901602        1.68886456385949        1.00608060089470
O           -2.00424092308079        0.96161243411140        0.34638218284665
H           -2.85112316813838        1.02565249966258       -0.13753438804422
H            6.81535280300123        1.12234414414354        0.97572691559182
O            7.38587760119253        1.67577970037899        0.42734972461675
H            7.11966333203223        1.52421379290501       -0.49885938513038
40
 energy: -64.961661488198 gnorm: 0.011639160247 xtb: 6.7.1 (edcfbbe)
N            0.68750923747997        0.23729160609967       -0.39943780532763
C            2.09495682654490       -0.17403597634787       -0.47906180117400
C            2.85117978998496        0.70798880819206       -1.46879708857322
C            4.35807940911070        0.48700549586366       -1.39247114928508
C            5.18346806855300        1.55976864066155       -2.12313747104147
O            4.77292318134632        2.74298470355086       -2.12322969318489
O            6.27874647195761        1.18843072939146       -2.62022263257308
H            0.60961319026140        1.21853352535032       -0.06279526919227
H            0.24220846676740        0.19601175280469       -1.33204533147026
H            2.15158165704340       -1.21791493032554       -0.78886870249803
H            2.54762352466431       -0.08413009200592        0.50892564116190
H            2.65856594597726        1.75597176646845       -1.24167043969047
H            2.50815176180341        0.51655404465676       -2.48592281115231
H            4.65965635383985       -0.48269452414620       -1.79103491545500
H            4.67936377194250        0.53977025753100       -0.34852540855276
H            0.15397784032922       -0.37319448605266        0.25082668377101
O            0.74609226968260        2.90653651756117        0.47721791317951
H            0.92249046960792        3.15942692543143        1.38688635150400
H            1.41319307490599        3.37410611343768       -0.05355460630313
O            2.85863074123899        4.20826628444008       -0.77197452954230
H            3.57500109636206        3.71172470453146       -1.21051521728410
H            2.85914135372630        5.08189603204393       -1.17437701655398
H           -1.14427564359102       -2.13548237136817        1.09934784505917
O           -0.41696441267504       -1.58851727017881        1.40299778244434
H           -0.65912637712773       -1.22575057898606        2.25586017824536
O            7.91537984909127        2.62465183034566       -4.29618238412495
H            8.80532317711647        2.44038646247075       -3.97763848620765
H            7.31653672130483        2.07185398324943       -3.74913554376650
H           -0.82886121132149       -0.61082028114727       -3.40624900583047
O           -0.34327349817182        0.13034275750724       -3.03290634755532
H           -0.64842038122668        0.92900799202624       -3.47029465276119
H            6.94573679187171        4.22661078209471       -3.83759902465456
O            6.31169064759834        4.75669808536626       -3.32875252286319
H            5.72558798078832        4.08702856237473       -2.91748962365353
H           -2.08707960974050        1.67723668357610        1.01637544431578
O           -2.02360504271543        0.99556350567148        0.34116489354484
H           -2.86101958079063        1.00786957850830       -0.13289349189149
H            6.84116079970130        1.13509510216657        0.99301927614118
O            7.42767276383093        1.65817275257450        0.43267424845302
H            7.14734754132771        1.52607397421123       -0.47956922905907
40
 energy: -64.962090759774 gnorm: 0.014196599128 xtb: 6.7.1 (edcfbbe)
N            0.67424117491909        0.24535246506957       -0.40171727933278
C            2.08203512576422       -0.16847067478677       -0.48370303503640
C            2.84080622635678        0.71019103075756       -1.47429048209306
C            4.34720329444499        0.48929929780781       -1.39208775912215
C            5.18023432981674        1.56348855533992       -2.11206806509001
O            4.74652566823171        2.74069010558901       -2.15495468212343
O            6.28719392322189        1.19578985629477       -2.58233484537335
H            0.60075523862446        1.22578384587274       -0.06289072640107
H            0.22918813602014        0.20478373338486       -1.33406877224136
H            2.13565338945335       -1.21259169421187       -0.79277148863613
H            2.53450888620684       -0.07860513271084        0.50418317038441
H            2.64593797457736        1.75827780777168       -1.25092980587603
H            2.50063875936002        0.51493348532215       -2.49173321177181
H            4.64951512348370       -0.47971580547067       -1.79218681576699
H            4.66675003229103        0.53783755700408       -0.34727990990458
H            0.14529321078087       -0.36918788991477        0.24957524962965
O            0.74895001537638        2.91232402515495        0.48605290455957
H            0.95373935690109        3.15313264326383        1.39665412155131
H            1.41456754666777        3.37201287058166       -0.05366003116339
O            2.86018519127475        4.20974662030668       -0.77344104594965
H            3.56969820420499        3.71183219417037       -1.22100901708881
H            2.87683273398966        5.09410551815120       -1.15433450252942
H           -1.13096678664677       -2.13306096413586        1.08552203267916
O           -0.38958567131478       -1.60459696688092        1.40260959096485
H           -0.64672661734993       -1.22810967282097        2.25100804775263
O            7.90754999665879        2.60360607193588       -4.30400758535627
H            8.80341964997122        2.43321489789242       -3.99286426491028
H            7.32007507212856        2.06041219573739       -3.73391977248563
H           -0.81465840346497       -0.61137980433656       -3.42074724580320
O           -0.33401484172779        0.13226246390395       -3.04651603460494
H           -0.63133931018534        0.92773278720945       -3.49660101778715
H            6.95851329583916        4.21833875499243       -3.83200346610125
O            6.27152030716870        4.74179144533343       -3.38435452303463
H            5.75129987072748        4.07679723671170       -2.89899568738026
H           -2.12596160026446        1.69996320026609        1.00592665751077
O           -2.07231455304674        0.99255798647163        0.35572224370986
H           -2.90285688621520        1.00202629399117       -0.11720824775379
H            6.88759340731029        1.15396239549366        1.02363613233925
O            7.48207893726697        1.65853517116593        0.45935079503489
H            7.21188560957799        1.51125554192247       -0.44861756880039
40
 energy: -64.962656176258 gnorm: 0.011716609837 xtb: 6.7.1 (edcfbbe)
N            0.66056598802298        0.25611755656587       -0.40713377483606
C            2.06874907426577       -0.16177435483269       -0.48889278492548
C            2.83102941191581        0.71502948477466       -1.47839005321739
C            4.33645938307246        0.49234433119066       -1.39041211447599
C            5.17821691826793        1.56789600397328       -2.09938772584987
O            4.73243518611488        2.73974143166924       -2.16915398934697
O            6.30209410082406        1.20711936604739       -2.53366467044390
H            0.59364428149167        1.23567562590366       -0.06513181580390
H            0.21814022530439        0.21675187970891       -1.34053367105401
H            2.11843767000062       -1.20586630360485       -0.79825109215849
H            2.51952317792404       -0.07356506678709        0.49970924423724
H            2.63449649950446        1.76347674902554       -1.25907416489924
H            2.49602203526212        0.51695227028861       -2.49704134157408
H            4.63809314898476       -0.47516412678233       -1.79481839884561
H            4.65413409415770        0.53223373628758       -0.34430056542315
H            0.13669557266207       -0.36367715874175        0.24392468406156
O            0.75774478115409        2.91286643324557        0.49631167698630
H            0.97125827883605        3.14768080572452        1.40442987862070
H            1.41733532828850        3.37621678140270       -0.04639653390416
O            2.86216805915222        4.21243336732658       -0.77521431073381
H            3.56235904018877        3.71265742835239       -1.23581226965543
H            2.88943823010582        5.10355792491129       -1.13953288440668
H           -1.11136020480652       -2.13956177161436        1.07851528048139
O           -0.38105799107242       -1.59752008058679        1.39148707212971
H           -0.62442638870960       -1.24319869963882        2.25088651990940
O            7.90332246830789        2.58422950031078       -4.30178652997384
H            8.80450994749141        2.42143719880421       -4.00170190711113
H            7.32593890087194        2.05044977381327       -3.71152477863258
H           -0.79879334337846       -0.61233967685191       -3.43656218519357
O           -0.32473005609639        0.13494322308414       -3.06114554621002
H           -0.61136436258797        0.92570418310925       -3.52876475921050
H            6.94671066617351        4.20146971681995       -3.85285992300394
O            6.28150903892122        4.73197188160028       -3.38529467583286
H            5.73066269072186        4.06962248314346       -2.92901785636558
H           -2.15777423208963        1.70685417081705        1.00464168002833
O           -2.12096623718059        0.98218170039109        0.37261428976076
H           -2.94965916361998        1.00964516936268       -0.10735377207636
H            6.93232944595009        1.16246538853411        1.04761175306464
O            7.53092019396346        1.66085963788347        0.48494772499226
H            7.28115316004021        1.48840148497011       -0.42698165250963
40
 energy: -64.963186521774 gnorm: 0.011516868823 xtb: 6.7.1 (edcfbbe)
N            0.64237038728525        0.27591791049998       -0.41861554065842
C            2.05068545858311       -0.14898593402288       -0.49648893608795
C            2.82113817416205        0.72595987392066       -1.48058341259943
C            4.32451654130293        0.49889043608605       -1.38254334659540
C            5.17634288999762        1.57680194706610       -2.07692115032968
O            4.72153401838973        2.73942268262196       -2.17785363599345
O            6.32435595503896        1.22894148543357       -2.45363792168201
H            0.58501106931132        1.25503634635993       -0.07315901655166
H            0.20646179181198        0.23851442213596       -1.35464608400553
H            2.09524442370492       -1.19251761282644       -0.80751951295602
H            2.49671236004700       -0.06458417631799        0.49435726645016
H            2.62384239024974        1.77471551394754       -1.26490719722714
H            2.49406589969124        0.52744680917196       -2.50171058504437
H            4.62500897546506       -0.46526546371907       -1.79621322073451
H            4.63631178912415        0.52221443555948       -0.33389044957515