40
 energy: -64.254136177950 gnorm: 0.852181938254 xtb: 6.7.1 (edcfbbe)
N            0.74462583910000        0.23080186080000       -0.40822686990000
C            2.15892422130000       -0.17612136480000       -0.46075220610000
C            2.92802456490000        0.72348868030000       -1.42233946590000
C            4.43401390500000        0.50001114620000       -1.33845076770000
C            5.24545982130000        1.56972617810000       -2.09012846380000
O            4.87397372970000        2.76531292440000       -2.01061294820000
O            6.25672702400000        1.18196518610000       -2.71543267230000
H            0.67472943260000        1.21864191950000       -0.07842668560000
H            0.32417254060000        0.18299865920000       -1.35431247020000
H            2.22791256880000       -1.21467223350000       -0.78447740420000
H            2.58991523620000       -0.09393420440000        0.53739149310000
H            2.73226727000000        1.76662786210000       -1.17800222630000
H            2.59838501760000        0.55186480480000       -2.44815031800000
H            4.73086448140000       -0.47136892680000       -1.73671773860000
H            4.76657225930000        0.55907539400000       -0.29810226240000
H            0.21245102860000       -0.38351653740000        0.23711515400000
O            0.69851393620000        2.86998965590000        0.42522380690000
H            0.72917977940000        3.15178530010000        1.34372282420000
H            1.40537639610000        3.35582159220000       -0.03248566170000
O            2.83676046180000        4.18865021240000       -0.78515710490000
H            3.59359143440000        3.71249702400000       -1.17463343680000
H            2.80326030670000        5.03753663220000       -1.23485725910000
H           -1.23648530210000       -2.08393867870000        1.11829338750000
O           -0.54212090500000       -1.47224711330000        1.37872398400000
H           -0.73300490520000       -1.17218204940000        2.27186511300000
O            7.93635060480000        2.67130146100000       -4.25602282260000
H            8.81473353390000        2.45861160740000       -3.92451072300000
H            7.31658325770000        2.10764202570000       -3.74091615730000
H           -0.89094312830000       -0.62119213280000       -3.30387919010000
O           -0.37301857660000        0.12116905890000       -2.97940452990000
H           -0.73875970530000        0.92320319590000       -3.36169503300000
H            6.95691528360000        4.26695266310000       -3.79707868110000
O            6.30534494050000        4.78512893890000       -3.29688330590000
H            5.78452246060000        4.10664814410000       -2.82226885180000
H           -1.92713854680000        1.57017905190000        1.06445786450000
O           -1.68263351850000        1.08270196720000        0.27273036530000
H           -2.48984370280000        0.87208403030000       -0.20500200030000
H            6.24517121350000        2.71623983200000       -3.08129767380000
O            6.70357016880000        3.15917792250000       -3.80106151410000
H            6.16301041610000        3.07438711540000       -4.59145835300000
40
 energy: -64.621131283722 gnorm: 0.408232222338 xtb: 6.7.1 (edcfbbe)
N            0.74685226939012        0.22982069809748       -0.40852395746187
C            2.15890594544194       -0.17629468768129       -0.46101042204375
C            2.92667502985741        0.72231446943370       -1.42163228939279
C            4.43067898846549        0.49629522266218       -1.33397472569350
C            5.23170700838096        1.55311585220167       -2.07925495555497
O            4.86481075339090        2.78050794016379       -2.00491380002963
O            6.26896003677620        1.15495378743516       -2.71338240997665
H            0.67308399707278        1.21707252755847       -0.07885929968731
H            0.32381292341060        0.18355169307808       -1.35261552288964
H            2.22824186973703       -1.21483284641786       -0.78458967239934
H            2.59020685237269       -0.09389095216948        0.53717308079769
H            2.73263557796074        1.76622228711625       -1.17789293069595
H            2.59844106228697        0.55158087199087       -2.44810123033694
H            4.73064065941029       -0.47289447923713       -1.73606672204079
H            4.76459579063023        0.55610090304858       -0.29331508307207
H            0.21142597261992       -0.38148247760887        0.23635833812274
O            0.69836578786176        2.87150415834251        0.42551497615536
H            0.73051416833260        3.15206202623150        1.34380612387153
H            1.40564058796320        3.35558736672064       -0.03259407707721
O            2.83680770097769        4.18901036280541       -0.78498219135774
H            3.59401780087300        3.71176935018536       -1.17469313744423
H            2.80357263367375        5.03770432343661       -1.23505276001009
H           -1.23639832576142       -2.08409854661050        1.11851851150897
O           -0.54133832814287       -1.47401092313949        1.37957964918295
H           -0.73291675265846       -1.17238587413067        2.27155967405866
O            8.09456376902837        2.57726668204028       -4.30604070419785
H            8.95693965738886        2.40655839020620       -3.93320813534621
H            7.37963734233620        2.06960118766433       -3.76610615811624
H           -0.89089526388591       -0.62127908505830       -3.30437211393281
O           -0.37301519675747        0.12105329202262       -2.98011943716093
H           -0.73829706448769        0.92339713487810       -3.36191691080632
H            6.91511387813289        4.32587379392296       -3.77538963818244
O            6.26888939157697        4.92322973808594       -3.24436487697113
H            5.76762444251521        4.17515120132474       -2.80846676011992
H           -1.92842785029320        1.57120597813256        1.06259077453150
O           -1.68503937424922        1.08071082136659        0.27413205015451
H           -2.49141895877980        0.87419122514642       -0.20409733538319
H            6.18171497353577        2.70061683511226       -3.06695316148006
O            6.58174142672539        3.14249995246458       -3.81870358435892
H            6.09888366079008        3.06368860467775       -4.62125998026344
40
 energy: -64.772473604644 gnorm: 0.186137452242 xtb: 6.7.1 (edcfbbe)
N            0.75097655619138        0.22868367118299       -0.40920965456867
C            2.15972390302210       -0.17732113511024       -0.46072111847830
C            2.92408233735591        0.72324332322796       -1.42148720172449
C            4.42427538434471        0.48866602391024       -1.32864685171718
C            5.22555726020703        1.53060830882897       -2.05347863387763
O            4.86681783254255        2.73654466741679       -1.99363862745365
O            6.23693143146386        1.11808311277420       -2.66552631197795
H            0.66988967121041        1.21473014104045       -0.07927982848974
H            0.32286318333917        0.18425843915895       -1.35013963693665
H            2.22870316783669       -1.21564365810541       -0.78442579118150
H            2.59014261317653       -0.09438674989241        0.53757287181731
H            2.73010395913551        1.76644533151520       -1.17701238461822
H            2.59710055227748        0.55131024313448       -2.44770234303595
H            4.72898737595685       -0.47565773309749       -1.73373955475951
H            4.76391645365693        0.55572108704040       -0.29365074440246
H            0.21001008528319       -0.37806341527458        0.23495974101316
O            0.69915414846285        2.87299018265330        0.42618572792447
H            0.73302505915930        3.15271710050838        1.34408062143218
H            1.40561577032695        3.35642686195588       -0.03285226510793
O            2.83613558667822        4.18906671875449       -0.78555261350495
H            3.59375120073076        3.71391397099373       -1.17395807165875
H            2.80376593096203        5.03796360149351       -1.23429950494493
H           -1.23603398834868       -2.08457667770517        1.11883475221568
O           -0.53931857619366       -1.47746540455831        1.38091415104019
H           -0.73259967500664       -1.17280401373671        2.27104504897962
O            8.21681688200087        2.51350494056134       -4.34052032755917
H            9.02674564210304        2.39652287761382       -3.92151685449964
H            7.45758787216101        2.03643970258108       -3.80423942897143
H           -0.89050391181012       -0.62117305801361       -3.30537132300365
O           -0.37253595471415        0.12094870498553       -2.98145668468430
H           -0.73726502841284        0.92367280738786       -3.36244542067650
H            6.88854800423530        4.38672670839935       -3.75058574062730
O            6.27580912456363        5.04960697550440       -3.18531815485941
H            5.76500922736574        4.27633887545916       -2.79503295210861
H           -1.93102574137671        1.57428936113756        1.05954912131616
O           -1.68952861119913        1.07569283977659        0.27704024224892
H           -2.49558505846264        0.87839391153838       -0.20325434632989
H            6.14167884819371        2.68793926499699       -3.08405943054592
O            6.48289321743862        3.11244283085692       -3.86790913416091
H            6.04573310804222        3.03624806460504       -4.68637214662248
40
 energy: -64.846685607779 gnorm: 0.113018781467 xtb: 6.7.1 (edcfbbe)
N            0.74956989004555        0.22729345186870       -0.40820230799807
C            2.15496297305719       -0.18066976396529       -0.45798454986557
C            2.91727520375436        0.71820950015784       -1.41709518758897
C            4.41113358873498        0.47007753889911       -1.31108274429589
C            5.22048084307425        1.50643474102546       -2.03255337380747
O            4.86872179464133        2.70858547020443       -1.96910332686093
O            6.23677111779398        1.08433147850746       -2.61824989355200
H            0.66472842040937        1.21264262126284       -0.07905937601463
H            0.31980012980331        0.18467852887804       -1.34768743503120
H            2.22774654339396       -1.21799166282223       -0.78336059566866
H            2.58888863950809       -0.09594151806749        0.53851828294236
H            2.72905215366014        1.76315678870879       -1.17458112712150
H            2.59579422281542        0.54879944653975       -2.44565212668741
H            4.71926023399543       -0.49016777730210       -1.72236372237005
H            4.75275683536483        0.54084249186417       -0.27734458706246
H            0.20362651234700       -0.37443589131195        0.23508820626164
O            0.69891347250144        2.87677622441594        0.42689262182213
H            0.73834179366571        3.15452253858388        1.34508042425652
H            1.40613663740432        3.35691091936523       -0.03400056989868
O            2.83634653302764        4.19002727120797       -0.78567408442060
H            3.59355040150689        3.71432096480548       -1.17129229398562
H            2.80574657032515        5.03924642092245       -1.23402853341606
H           -1.23599468866657       -2.08571164661128        1.11943608784607
O           -0.53530552344254       -1.48412328313719        1.38351199246788
H           -0.73233379307002       -1.17325625438754        2.27062753581842
O            8.30152808625593        2.46666100884874       -4.37880687177113
H            9.10088739292663        2.40385258741367       -3.87463648423985
H            7.54988369592020        2.01644587066140       -3.85214302984245
H           -0.89015496855972       -0.62085726312202       -3.30776974844297
O           -0.37196973093436        0.12090235274863       -2.98343553829138
H           -0.73540694181030        0.92440350125834       -3.36395623380660
H            6.86826044648839        4.46155580598998       -3.72965850328943
O            6.29011201980776        5.13505619394629       -3.14393026137337
H            5.77081734603333        4.38253654491978       -2.76442183309068
H           -1.93562516867014        1.58217053671382        1.05502703429798
O           -1.69827047454751        1.06515222303938        0.28317548564326
H           -2.50516355084207        0.88676525201019       -0.20311645619688
H            6.10262113464247        2.67563456751818       -3.12540120763563
O            6.40818770338507        3.09383992950345       -3.94318316122595
H            5.98627734815309        3.00437109443774       -4.78080331160417
40
 energy: -64.891357240213 gnorm: 0.074326825941 xtb: 6.7.1 (edcfbbe)
N            0.74221401553906        0.22532049903246       -0.40537895862718
C            2.14489985841811       -0.18529065216722       -0.45376257281424
C            2.91052584994546        0.70960153054202       -1.41016002302936
C            4.39904716022261        0.44784163196892       -1.29113969935662
C            5.23459648645636        1.48597653995885       -1.99637612790025
O            4.87463174135236        2.68864386182421       -1.94806605221925
O            6.25545941793311        1.06224881493144       -2.57748570933819
H            0.65738218354165        1.21063507914435       -0.07774429041437
H            0.31380186529089        0.18431624477563       -1.34514894041638
H            2.22181692079730       -1.22205666267738       -0.77995611868212
H            2.58284843570124       -0.09952874407739        0.54097856646812
H            2.72888662326526        1.75674598462093       -1.17004639408645
H            2.59467558597525        0.54413105163420       -2.44142496794631
H            4.70412657505095       -0.51280106834527       -1.70403058248370
H            4.73329036228799        0.51495088910728       -0.25444669283873
H            0.19178036189715       -0.37180588104534        0.23728939626478
O            0.69820344557398        2.88203250429719        0.42808600433269
H            0.74707144574664        3.15694195310276        1.34686941753735
H            1.40649594766858        3.35754291039437       -0.03592452051091
O            2.83714084903308        4.19138640154188       -0.78621279583914
H            3.59394754384405        3.71217576770180       -1.16721527304966
H            2.80953132260730        5.04083308222290       -1.23480990450906
H           -1.23611115176831       -2.08752584195640        1.12031418907768
O           -0.52883152698182       -1.49487415066446        1.38772734129313
H           -0.73227631765578       -1.17377994308370        2.26998577211953
O            8.38829298710500        2.42296923764230       -4.41450631817188
H            9.16065102776815        2.40000532979387       -3.83721176492329
H            7.65524011253064        2.01243529117067       -3.90215981138619
H           -0.88958346421570       -0.62001854846628       -3.31159140221885
O           -0.37109134702022        0.12108892683347       -2.98613334308706
H           -0.73249630003960        0.92552124962866       -3.36669521467632
H            6.84647998819504        4.55087371454904       -3.70024636482167
O            6.30245364723268        5.20010846370932       -3.11011617399460
H            5.77474349224766        4.48231679189680       -2.72482644390472
H           -1.94227639116190        1.59568221029287        1.04798628538694
O           -1.71288573319908        1.04755105344331        0.29370725160011
H           -2.52068390178270        0.90047694091154       -0.20366827146811
H            6.05876656850166        2.67056450940461       -3.20211158919951
O            6.34788478472290        3.08843657846756       -4.02914321354076
H            5.92730437127301        2.97137525343829       -4.86842549372561
40
 energy: -64.919111366708 gnorm: 0.050667804199 xtb: 6.7.1 (edcfbbe)
N            0.73085541597247        0.22328948347958       -0.40170657577067
C            2.13227115673580       -0.19066921282596       -0.44783899701285
C            2.90748276092441        0.69981583584009       -1.40086679236454
C            4.39333993615139        0.42657407587910       -1.26911055113075
C            5.24148170064620        1.46582428055800       -1.97483166664536
O            4.88751767619274        2.67198149005675       -1.92222611781397
O            6.28042363520710        1.05307590532741       -2.53556627911561
H            0.64842978138115        1.20895751903378       -0.07555535072909
H            0.30542725139228        0.18314432328808       -1.34290636627132
H            2.20968877106903       -1.22781421339117       -0.77346667579745
H            2.57053806115973       -0.10606837686711        0.54699368473296
H            2.73004240559781        1.74851924712394       -1.16343169838311
H            2.59577798228132        0.53667812431205       -2.43410158026719
H            4.68924075741272       -0.53783314773569       -1.68056483455735
H            4.71297970198964        0.48278262335697       -0.22598270352924
H            0.17647756981976       -0.37078783914540        0.24082325472721
O            0.69732422026074        2.88800064998201        0.43036312610858
H            0.76016585697759        3.15929570274154        1.34975101405125
H            1.40591936950817        3.35828929908852       -0.03878084077514
O            2.83874481930391        4.19213122396329       -0.78723880467551
H            3.59542974117339        3.70753951926949       -1.16201853831377
H            2.81504436358918        5.04134903527251       -1.23693639724484
H           -1.23589723601583       -2.08979966581595        1.12086624957539
O           -0.51891446083984       -1.51063244365568        1.39353526970327
H           -0.73226966291208       -1.17427411701970        2.26830622780887
O            8.48347323686173        2.38245506682589       -4.44536921333038
H            9.21774701939841        2.37969056099119       -3.81590985418748
H            7.74958429512885        2.01512204822354       -3.94989140362955
H           -0.88844802802346       -0.61859136975536       -3.31715120452975
O           -0.36992195996658        0.12149767781322       -2.98931431318739
H           -0.72772219450148        0.92680728530477       -3.37152774904976
H            6.83193583917262        4.65408527555634       -3.66586664447109
O            6.32141813336389        5.25797690729383       -3.07416593699891
H            5.77072029128316        4.57225663055516       -2.67908209396020
H           -1.95159553405967        1.61398270163062        1.03823487221102
O           -1.73587710751876        1.02413293316521        0.30864772839152
H           -2.54295321266196        0.91904422787078       -0.20415839344979
H            6.00843927245308        2.67096526306765       -3.30531707677211
O            6.30335784721140        3.09683630913785       -4.11976567661717
H            5.87027537078000        2.93741796570302       -4.95009190182902
40
 energy: -64.935581575050 gnorm: 0.039914284779 xtb: 6.7.1 (edcfbbe)
N            0.71631859415129        0.22182087562456       -0.39793428122284
C            2.11743244244609       -0.19725906872831       -0.44041497252586
C            2.90672850762866        0.68891866836546       -1.38936907356041
C            4.39322928132371        0.40977381161867       -1.24744387622605
C            5.26853106161951        1.45577339240351       -1.92772268846894
O            4.89270647499870        2.65873836234520       -1.91332930132725
O            6.29671110483268        1.05094530883017       -2.50835665808593
H            0.63753835608586        1.20779523938069       -0.07251733577590
H            0.29403415956119        0.18159159611338       -1.34078727115984
H            2.19081467272626       -1.23532054600093       -0.76476697179996
H            2.55137590394446       -0.11613860615180        0.55673105706887
H            2.73233374381128        1.73816915415467       -1.15254598363043
H            2.59945571885858        0.52723208766231       -2.42429543754946
H            4.67881690819494       -0.55966355260800       -1.65677591556164
H            4.69286258731389        0.44820763574300       -0.19690980999861
H            0.15897661358706       -0.37108580231045        0.24477078443264
O            0.69632351519818        2.89406317906738        0.43424842065942
H            0.77860902430534        3.16061528476425        1.35405091850570
H            1.40348467779332        3.35897230588061       -0.04279098704287
O            2.84011758161185        4.19028655047098       -0.79000794690259
H            3.59775313417226        3.69962008542813       -1.15588859868800
H            2.82362941172668        5.03996159655710       -1.23954430035481
H           -1.23436381205519       -2.09242930548838        1.12001765744408
O           -0.50532856349285       -1.53101447940444        1.40013417832753
H           -0.73161743951188       -1.17529234408103        2.26479800860295
O            8.58028079816748        2.34240940722360       -4.47581290768947
H            9.27523851171126        2.35536212739444       -3.80158369561023
H            7.81548253257303        2.01886536687795       -3.99315694719616
H           -0.88606943483101       -0.61658439543640       -3.32502861143081
O           -0.36816830816757        0.12227374371619       -2.99335282659807
H           -0.72030132877521        0.92817632950392       -3.37973907950509
H            6.82666346564892        4.75700446370345       -3.65033193270919
O            6.35104523801463        5.31457210134049       -3.03166072593319
H            5.77510691131327        4.65440776034683       -2.62295079456069
H           -1.96530158449689        1.63120039778224        1.02822732038037
O           -1.76960044897768        1.00528992013139        0.32267762129517
H           -2.57324161591807        0.93681125720797       -0.20166939673018
H            5.96088790865228        2.67807509272041       -3.41319821482694
O            6.26980553816052        3.11424417476181       -4.21496377471322
H            5.80965299999330        2.89665962858914       -5.02402645443247
40
 energy: -64.945258237675 gnorm: 0.025654480080 xtb: 6.7.1 (edcfbbe)
N            0.70207281639051        0.22163845164524       -0.39418723732486
C            2.10338213957340       -0.20480156721551       -0.42908439259020
C            2.90800854376981        0.67703534723756       -1.37314334660781
C            4.39668767434606        0.39766109282171       -1.22652758164114
C            5.25607018470510        1.44147704236967       -1.93943984783277
O            4.90441497131973        2.64909794513907       -1.89613110151542
O            6.31837437287926        1.05439154580706       -2.47632041163614
H            0.62628843218618        1.20766548582612       -0.06909325682322
H            0.28300782688134        0.18043281379696       -1.33876593572658
H            2.16870372799976       -1.24381896971269       -0.75272936863785
H            2.52848561037305       -0.12886714439540        0.57224447586440
H            2.73403323623388        1.72690888276424       -1.13992434585369
H            2.60536996784762        0.51271348644910       -2.40885315407799
H            4.67616820804396       -0.57620581717932       -1.63096055178211
H            4.68536927489667        0.42735357385049       -0.17184112084834
H            0.14208263170102       -0.37151171507437        0.24809587793233
O            0.69666077521643        2.89940190429425        0.44043322582230
H            0.80289034028710        3.16134450892766        1.35976836460213
H            1.39902173131571        3.35990265173971       -0.04832217922912
O            2.84289741807952        4.18565196436920       -0.79266667009215
H            3.59919700480623        3.68711510155140       -1.15156596647791
H            2.83438382559910        5.03478088564488       -1.24359688799626
H           -1.23012984723817       -2.09574549593641        1.11735725474923
O           -0.49178138766795       -1.55034931710194        1.40535368191347
H           -0.72999610683798       -1.17737703854208        2.25976614309766
O            8.67058254545837        2.30324622199736       -4.50858986431735
H            9.32869188349504        2.33002038831532       -3.80422187087508
H            7.86648831156083        2.02330708017915       -4.04173897136579
H           -0.88187733287151       -0.61327248341586       -3.33580129797983
O           -0.36652766349151        0.12436016907580       -2.99729950557099
H           -0.70946023835518        0.93047183340049       -3.39190407910673
H            6.82195625404733        4.85299403588253       -3.65403263884270
O            6.39194142821773        5.37009100019610       -2.96137012988276
H            5.80348952602345        4.72628578585028       -2.54196735468715
H           -1.98218545986923        1.65020903734695        1.01806108648651
O           -1.81424900615772        0.98733686794197        0.33811131303488
H           -2.61305211877442        0.95556352831329       -0.19715391628016
H            5.92088433398281        2.68799007148758       -3.51307431821002
O            6.23949247104998        3.13519469972418       -4.30884257213967
H            5.74011653687701        2.85335495012851       -5.08326235265169
40
 energy: -64.949655931039 gnorm: 0.027807454738 xtb: 6.7.1 (edcfbbe)
N            0.68903063683827        0.22367355452056       -0.39092762671351
C            2.09015272580491       -0.21201961360272       -0.41825853508259
C            2.91053221046688        0.66555546363475       -1.35639063401016
C            4.40291950332036        0.38905414652395       -1.20597589157656
C            5.28448634137860        1.43978561858363       -1.89426292736120
O            4.89140562926868        2.63874396662052       -1.91433868087588
O            6.31859994138497        1.05276890157347       -2.47403475577701
H            0.61621632640265        1.20928137865277       -0.06499528724017
H            0.27213123586025        0.18200892743589       -1.33660002297532
H            2.14528874644062       -1.25172501310854       -0.74172475136694
H            2.50467580644670       -0.14284982911327        0.58808773325493
H            2.73697615455115        1.71501240943219       -1.12218396374888
H            2.61276643045516        0.50121552909364       -2.39338484278369
H            4.68145286748574       -0.58598852016833       -1.61009321215381
H            4.68251285458222        0.40983546490325       -0.14920494577999
H            0.12693558859810       -0.37041625408895        0.25028166044272
O            0.69890285228490        2.90412763644040        0.44816223623052
H            0.83090090004534        3.16159627598590        1.36599626575554
H            1.39400568180357        3.36126962621565       -0.05436825177256
O            2.84683898734923        4.17656779182305       -0.79792842554681
H            3.60168471089990        3.67141766199345       -1.15111641600598
H            2.84978659351846        5.02713589051146       -1.24630458489639
H           -1.22229664655103       -2.09977539203883        1.11249461125021
O           -0.48018332777936       -1.56439984727343        1.40769612174566
H           -0.72723114472798       -1.17991897038722        2.25382668960396
O            8.75044281595842        2.26960548020314       -4.53705886241103
H            9.37890685511126        2.30854061143231       -3.80815845656125
H            7.91080945871140        2.02510537217393       -4.10100255750734
H           -0.87456521155216       -0.60949443167622       -3.34886630987530
O           -0.36422132655885        0.12787961199104       -3.00203298250668
H           -0.69552917852138        0.93298886991890       -3.40927117005331
H            6.81026631382819        4.93841852702564       -3.65432385178229
O            6.42249464599164        5.41487110641656       -2.88915595879311
H            5.83971264889396        4.77550426632191       -2.46274347124167
H           -2.00314940465682        1.66213838131421        1.01335713226970
O           -1.86760641463962        0.98269935751744        0.34808887817925
H           -2.66267311138153        0.97109744763410       -0.18761878049866
H            5.88821105871961        2.69659340489049       -3.60153499699741
O            6.20974100214904        3.15361681812390       -4.39451581719269
H            5.67662308571912        2.82152717804976       -5.13283516274489
40
 energy: -64.950622127971 gnorm: 0.047639513023 xtb: 6.7.1 (edcfbbe)
N            0.68118144413625        0.22642151617225       -0.38653036686776
C            2.08155916320620       -0.21788966074450       -0.40505302075496
C            2.91066904863649        0.65630973467710       -1.33940504844272
C            4.40543099700567        0.38642973935459       -1.19449859981722
C            5.26832087576935        1.43385294972902       -1.91280679070727
O            4.88414447210653        2.63312497759988       -1.92319384891525
O            6.31153863348154        1.04922170054982       -2.47987049744334
H            0.61022558070584        1.21181899849513       -0.06024749535536
H            0.26697465965736        0.18503009310763       -1.33348560367002
H            2.12870555932012       -1.25780658210581       -0.72901283731733
H            2.48759258034845       -0.15345967402372        0.60498865316908
H            2.73638357818125        1.70602235873738       -1.10742133200497
H            2.61539979468290        0.48927354812290       -2.37638512582487
H            4.68764084037759       -0.58980296470384       -1.59309161140023
H            4.69403354324301        0.41763681051003       -0.14154830904717