34
 energy: -56.551092848659 gnorm: 0.212228278138 xtb: 6.7.1 (edcfbbe)
H            1.42053100000000       -0.69343900000000       -0.45759400000000
C            0.31562500000000       -0.64091500000000       -0.57275600000000
H            0.37944700000000        0.34125600000000       -2.37510200000000
H           -0.02020400000000       -1.57726700000000       -1.06978300000000
N           -0.04283300000000        0.48932200000000       -1.43082700000000
H           -0.10434400000000       -1.52577500000000        1.34227500000000
C           -0.35607200000000       -0.58177200000000        0.80987700000000
O           -0.15503900000000        1.84564400000000        1.27779400000000
C            0.09900500000000        0.57829600000000        1.65429800000000
H            0.33459400000000        1.38391400000000       -1.05046800000000
O            0.66999200000000        0.37333800000000        2.71201200000000
H           -1.08151800000000        0.54834700000000       -1.53303300000000
H           -1.45918500000000       -0.54094800000000        0.69330800000000
O            2.24272200000000       -3.36383900000000       -1.06640800000000
H            2.95984500000000       -2.86373200000000       -0.60139300000000
H            1.80688600000000       -2.69032300000000       -1.64695600000000
O           -0.38818600000000        4.01623800000000        1.64781000000000
H           -1.20592000000000        3.88385500000000        1.10522700000000
H            0.31119600000000        4.25440800000000        0.98845200000000
O            1.30668300000000        2.46828800000000        2.88135100000000
H            2.15294800000000        2.39123400000000        3.38978800000000
H            0.82678600000000        3.22048600000000        3.31089900000000
O            2.04669200000000       -2.61330400000000        2.89256400000000
H            2.51671400000000       -1.94469000000000        2.33341700000000
H            1.45232200000000       -3.09116300000000        2.26090900000000
O            1.23356900000000       -0.08945600000000        6.16393000000000
H            1.73054800000000       -0.24863700000000        5.32233400000000
H            1.48076900000000        0.83253400000000        6.42744400000000
O            2.81828300000000        1.15771500000000        0.20636600000000
H            3.39826700000000        0.36402800000000        0.32590400000000
H            3.16069100000000        1.81620900000000        0.86192400000000
O           -1.26309400000000        1.13469500000000       -6.18510300000000
H           -0.46744200000000        1.20911000000000       -6.76992000000000
H           -0.91664700000000        0.74501000000000       -5.34324100000000
34
 energy: -56.596197862896 gnorm: 0.105714282883 xtb: 6.7.1 (edcfbbe)
H            1.39964396568120       -0.68250970817826       -0.44983298363210
C            0.31008868076816       -0.65961953515798       -0.58418149508762
H            0.37946300855422        0.36422610316709       -2.36709298795483
H           -0.01931839350100       -1.58237791811189       -1.07747080787753
N           -0.04124572628571        0.48794369837952       -1.43305697068284
H           -0.11747994485938       -1.52226560296139        1.33961493698155
C           -0.36602096363310       -0.60983593576262        0.78427490697753
O           -0.17343173134289        1.73621742351446        1.22017303847476
C            0.08204781894040        0.54635868782195        1.65013719232689
H            0.32195830194924        1.36523637934432       -1.01762771674503
O            0.65829720893091        0.30368880343340        2.71517547554986
H           -1.06720325411414        0.55706304330025       -1.52590169322088
H           -1.45642523617185       -0.54943866017291        0.68285569939094
O            2.23595495456191       -3.35364531929538       -1.05452958611060
H            2.95773715886951       -2.87436049239769       -0.61558962107319
H            1.82610047654903       -2.70507007218953       -1.65283950819436
O           -0.42596077508775        4.15598057399872        1.64780205818139
H           -1.19773803446555        3.88524058157356        1.10756136403906
H            0.29767009851536        4.24793810447287        0.99123283147668
O            1.38921446369283        2.55109242633444        2.89635485572759
H            2.18029472061854        2.43411821673719        3.45193466731756
H            0.84749994409646        3.24163344159400        3.31870905606275
O            2.05886033047178       -2.62779910905205        2.88060183775531
H            2.49616139331319       -1.94550510949162        2.34409982556679
H            1.46105970550001       -3.08938125357146        2.26812735568147
O            1.25408074487579       -0.09104643623233        6.17528405772802
H            1.70173041648807       -0.24300229813900        5.32465433332161
H            1.47613966157660        0.82329602146437        6.42006673960323
O            2.84378372139397        1.15393332206436        0.18754983138034
H            3.40999052093039        0.37849457212079        0.33411009872258
H            3.13084538762148        1.80180461576288        0.85215988437108
O           -1.25384256796412        1.13254289832176       -6.18581256182100
H           -0.47673766124186        1.21066192495597       -6.76415519477547
H           -0.91958739523170        0.74705361235223       -5.35908991946173
34
 energy: -56.614106645599 gnorm: 0.037716058693 xtb: 6.7.1 (edcfbbe)
H            1.38228748700050       -0.67880435809281       -0.44191489873225
C            0.30376538964751       -0.68384807465849       -0.59165683227826
H            0.38476012410833        0.40032863494713       -2.35040141813835
H           -0.01571829942699       -1.59213447120314       -1.09729702139946
N           -0.04279545482364        0.48710839723984       -1.42413753430876
H           -0.13861756204573       -1.53815478339660        1.32871701692168
C           -0.37503623917314       -0.63752001644735        0.76768214491767
O           -0.18572059514391        1.67388707829015        1.16675749189287
C            0.08306204986319        0.55314594886285        1.63027977159597
H            0.30350385786173        1.34158922038119       -0.95383860530235
O            0.63871241803647        0.28080482243046        2.71213546412333
H           -1.05974731319575        0.56716397194154       -1.51102769908842
H           -1.45693166778853       -0.56091319640997        0.66692795410037
O            2.22378740471793       -3.34678547619284       -1.03645920468413
H            2.96521633464430       -2.89265725464565       -0.62917356715186
H            1.85355727495164       -2.72658143884334       -1.67529391623637
O           -0.44484808379875        4.22309125019258        1.65163735838362
H           -1.19292163741923        3.89327444304826        1.13601149017282
H            0.27920192140463        4.26344218925175        1.01520968754370
O            1.48215785849767        2.62880832286020        2.88570972833585
H            2.20443938496363        2.47756172940100        3.51440730630318
H            0.86303502212361        3.25227010062035        3.29829641937111
O            2.08394796948402       -2.65971097269813        2.86905108834013
H            2.46420473814379       -1.93372789985666        2.36097116042592
H            1.46748807685253       -3.09968939844254        2.27712211230667
O            1.27693927619744       -0.09807482673055        6.19667557098597
H            1.65291102067166       -0.24368549624518        5.31841158766366
H            1.47217807563535        0.81650190742272        6.41816565187856
O            2.86997649102381        1.14138491622346        0.15760439023846
H            3.44320534479230        0.39327660478590        0.34136187791315
H            3.07544814441103        1.79434191149803        0.83693868828909
O           -1.24722417472319        1.13133317955118       -6.19076027050755
H           -0.48554505513059        1.21786554707009       -6.76813410373731
H           -0.92504858236372        0.74377448784555       -5.37467989013892
34
 energy: -56.624041466553 gnorm: 0.075434848775 xtb: 6.7.1 (edcfbbe)
H            1.37426785897205       -0.68581116825170       -0.43371062243250
C            0.29916119326378       -0.70766113311345       -0.59314758939009
H            0.39885493873932        0.45003775453818       -2.32150996597611
H           -0.00572140066574       -1.60541364726013       -1.12532795116728
N           -0.04749878832540        0.48869482513068       -1.40049651099281
H           -0.16047822622549       -1.57193039920751        1.32477723960878
C           -0.39010126012087       -0.67413047599457        0.76111345417324
O           -0.16296451285480        1.65947651014661        1.09326652636540
C            0.05173405990850        0.56027127189825        1.62311088017075
H            0.27707489711119        1.32058264768436       -0.86834304735872
O            0.62163796526272        0.28365779366504        2.69847065614446
H           -1.06187358314438        0.57186629391462       -1.49350458644955
H           -1.46947399918356       -0.59038709988784        0.65028511716984
O            2.18847132131946       -3.33987109646643       -0.99498820256611
H            2.99106413719125       -2.92195842052389       -0.65133830551826
H            1.89695288058362       -2.75441000526107       -1.72187281627560
O           -0.47858732973928        4.33454982715426        1.66220704723992
H           -1.19331810073765        3.87252782935377        1.15961401247119
H            0.27622357335591        4.25313868803947        1.03597255151340
O            1.59572870642492        2.71439351664248        2.85738185858573
H            2.23430508954006        2.52517595034658        3.58331092650757
H            0.89108041935553        3.26423939915470        3.26279302210831
O            2.13582860785929       -2.71701209999893        2.85677932798477
H            2.41046643246273       -1.90071241341497        2.38300012343714
H            1.46426170753845       -3.11516229593369        2.28950078967197
O            1.31523000156446       -0.11895538058994        6.23719449228059
H            1.57913873132047       -0.24677902698294        5.30030976977194
H            1.46184032011347        0.81821338311467        6.41360632385898
O            2.89853352642646        1.12346610271456        0.11027400147815
H            3.49642355045306        0.40809909969615        0.35841642140815
H            2.98432344810122        1.79194005204277        0.82113806408518
O           -1.24701185061296        1.13275217740079       -6.20087592446545
H           -0.49131556037529        1.23383188099637       -6.78180707737360
H           -0.93062775488268        0.73194665925397       -5.39030100607002
34
 energy: -56.632667182778 gnorm: 0.045080579965 xtb: 6.7.1 (edcfbbe)
H            1.36766848811357       -0.70426409523909       -0.42912368858728
C            0.29430831941322       -0.73850352749341       -0.59803036625057
H            0.42032255917935        0.51095829777704       -2.28303652782405
H            0.00579028836455       -1.62483448885261       -1.16155512350911
N           -0.05402331798150        0.48818310610156       -1.37090778917328
H           -0.18858754359641       -1.62382651218389        1.31963420949825
C           -0.40935137265438       -0.72993976633292        0.74960286243425
O           -0.13924947047704        1.62201182390626        1.00689232942919
C            0.04423724986252        0.54093341091159        1.59971654302058
H            0.23940568845576        1.29287322758725       -0.76317262003722
O            0.57728048169466        0.27020979617391        2.69408092810489
H           -1.06705151882790        0.57028726258581       -1.47879049843289
H           -1.48814122372068       -0.63004175882264        0.62975255002001
O            2.19386206414791       -3.34515749997611       -1.00390995546554
H            3.00399456592720       -2.95612625267076       -0.65869815504669
H            1.92200794851371       -2.78033297339882       -1.74102138301722
O           -0.49839506551651        4.38914827105457        1.67110315978215
H           -1.20661032656781        3.94295003194320        1.21430515615293
H            0.25791269428956        4.31194693824018        1.08878289201038
O            1.69678960260637        2.78284124981926        2.86847863785849
H            2.29679665548091        2.61370141762894        3.59291479572182
H            0.95788577389873        3.30534658296465        3.21048965105432
O            2.13326656574550       -2.71752773934679        2.85467634056668
H            2.39530778023047       -1.91271041184449        2.39650375465835
H            1.47186157108848       -3.14271610055976        2.30484588213561
O            1.29848670933154       -0.11746967802907        6.23149823729677
H            1.54914844132449       -0.26471923393158        5.31616984181773
H            1.45240366407743        0.80919485710173        6.42158111369094
O            2.89149239314039        1.09798935553553        0.10386047513383
H            3.54609627364396        0.43280656376870        0.35766864371321
H            2.92185003701673        1.78981294776485        0.78512594899042
O           -1.24940375381578        1.13505522485047       -6.21464533353284
H           -0.49699565104675        1.25612626997948       -6.79921212588315
H           -0.93673557134212        0.71446040299021       -5.41028138633146
34
 energy: -56.637718380320 gnorm: 0.068700580279 xtb: 6.7.1 (edcfbbe)
H            1.36216407811942       -0.72588554216148       -0.43045686371053
C            0.28808121281206       -0.75607134835504       -0.60340108207072
H            0.44440887845042        0.55767207699599       -2.24282390377677
H            0.00948810612692       -1.63743317611865       -1.18166942393488
N           -0.06411150699951        0.48420828263449       -1.34940494326845
H           -0.20453414606532       -1.63957123014033        1.31586819405702
C           -0.42261400038584       -0.74815398235396        0.73890658840668
O           -0.14269272449258        1.61144161103990        0.98298431484879
C            0.07937672891089        0.53550365126980        1.56048353468376
H            0.18724563600561        1.26836932501474       -0.67780645860688
O            0.53687308113960        0.28670583172936        2.69048608649562
H           -1.07652605671968        0.55140367355353       -1.48438668368218
H           -1.50333673398402       -0.65033858424782        0.61929908325722
O            2.19858999021257       -3.35318341741183       -1.01620544752420
H            3.01773140415233       -2.99797201488521       -0.66748960386173
H            1.95238299523369       -2.80680363112415       -1.76246631757405
O           -0.52282098402942        4.47582486072689        1.68733253059237
H           -1.20905268351463        3.92463048073604        1.26252365008052
H            0.25504534157581        4.31939276572905        1.12939695877517
O            1.81885345529275        2.86691631472158        2.83853618433014
H            2.32782221429072        2.65908195740098        3.65728821231914
H            1.01930182658600        3.33666757498805        3.13791932475615
O            2.16746750151070       -2.74863320690665        2.84582931660568
H            2.34796645342626       -1.89495006627281        2.41432577775151
H            1.47094098095822       -3.16346231809554        2.32348742287252
O            1.32756795862337       -0.14012950717264        6.26536807551509
H            1.47730465462022       -0.27131336846807        5.30752721177767
H            1.43146093056984        0.80994506316379        6.41695279267444
O            2.86615947907303        1.07934649037427        0.11788561259717
H            3.57883733614840        0.46432418131357        0.33818805920376
H            2.88511006610484        1.77642488810853        0.75790752863025
O           -1.25649917861075        1.13932644528025       -6.23256536115951
H           -0.50292519413769        1.28207139973277       -6.81576162072167
H           -0.94143610100409        0.69331151920492       -5.43875975033993
34
 energy: -56.639973586255 gnorm: 0.092575037103 xtb: 6.7.1 (edcfbbe)
H            1.35655370484608       -0.74232110865631       -0.43305351905977
C            0.28040409905709       -0.76011723435608       -0.60789670274073
H            0.46369011734099        0.58282332901216       -2.20649113105948
H            0.01007730432296       -1.64173400853963       -1.19043960391721
N           -0.07606161581903        0.47720565696946       -1.33877890730505
H           -0.20990627100981       -1.64107936180839        1.30708187018818
C           -0.43534725311998       -0.74810898800773        0.73155283737870
O           -0.11809710508075        1.61031565870038        0.99270568073872
C            0.06452666751152        0.51794285477958        1.56083956349415
H            0.12919998628771        1.25003030329237       -0.62841085418183
O            0.52064021117458        0.29569557086375        2.68308730253095
H           -1.08704619799210        0.52080762016505       -1.50785292973761
H           -1.51700027942955       -0.67519132211783        0.60966857242162
O            2.14207772843460       -3.34333438417934       -0.96057468920497
H            3.05006098066774       -3.04754685346355       -0.69533439708140
H            2.02227462158551       -2.83914212025887       -1.83247294788215
O           -0.53604196966915        4.52774993589744        1.70219867193073
H           -1.21226244264534        3.92716880155016        1.30453887866954
H            0.26010031752836        4.32324507014919        1.16685604647132
O            1.89294262405390        2.91354791660592        2.84494532091816
H            2.39045646317039        2.73229859139709        3.63662815292016
H            1.08650156665631        3.36809148876245        3.10387796523778
O            2.19041926631570       -2.76860839044767        2.84119716705647
H            2.30821264470725       -1.88289636660176        2.42903467939640
H            1.47270297228287       -3.18383972061973        2.33991262525735
O            1.31183631081757       -0.14615158866142        6.26468418710115
H            1.44518388121592       -0.28097762388283        5.31779113391475
H            1.41683562941292        0.79935615655812        6.42604682150516
O            2.89694880777464        1.06704273290000        0.06552734674029
H            3.63483879951834        0.49657663909802        0.35423206054784
H            2.76686796423688        1.75579265971432        0.77292383979209
O           -1.26581772725039        1.14437274973349       -6.25081222370503
H           -0.50883290001588        1.30278386347078       -6.82838381429755
H           -0.94330790688763        0.67686847198688       -5.46953000403986
34
 energy: -56.641001755973 gnorm: 0.094737046486 xtb: 6.7.1 (edcfbbe)
H            1.35242267933913       -0.75577408316088       -0.43954685585187
C            0.27312548761512       -0.75223691547494       -0.61263512462404
H            0.47340612515832        0.59171602860803       -2.17415386582705
H            0.00494765747902       -1.63783606365920       -1.18969478587334
N           -0.08453908482531        0.47198434738431       -1.33570287330785
H           -0.20334318154408       -1.63438615770919        1.29906577846899
C           -0.44068130862238       -0.73593558126056        0.73027325657739
O           -0.05103528631574        1.61782102547213        0.99888929448834
C           -0.01337685451624        0.48865370982251        1.60068529521098
H            0.08011932634375        1.23846422688349       -0.61493105652628
O            0.53431619034264        0.31087707484122        2.66729177207033
H           -1.09216946023557        0.49274272603465       -1.53868740629073
H           -1.52161494607323       -0.70039150083906        0.60226543998650
O            2.22552152291791       -3.37474013326809       -1.05629583786035
H            3.02779997716479       -3.05916420862056       -0.66837157238625
H            1.99687876614678       -2.85004005007283       -1.79715366205401
O           -0.53352927551840        4.51864787660768        1.70456905861715
H           -1.21890436925576        3.96823304752081        1.33575818976960
H            0.26314565668495        4.34566536251072        1.19519649836081
O            1.95694052219816        2.95347866104667        2.82876918695864
H            2.41728150074791        2.77267802860689        3.64481548218991
H            1.11446350777299        3.36567953230399        3.07809089203266
O            2.17518979135962       -2.75242095779032        2.84373181914217
H            2.30224782279997       -1.89908020254293        2.43743583094405
H            1.48226951624396       -3.20300446429846        2.34728889204307
O            1.30995899277950       -0.15556488499922        6.27014730796551
H            1.41128697539610       -0.28124136302172        5.31980824303442
H            1.40668344636757        0.78987395824225        6.43356850295970
O            2.90322626828357        1.06649887117752        0.05215848416424
H            3.64166071755446        0.52012662253903        0.35048148083519
H            2.73999173800291        1.73704018072265        0.78415401994072
O           -1.27528005478204        1.14869210193363       -6.26428042312017
H           -0.51336813554593        1.31169869924160       -6.83235338525696
H           -0.94141123146406        0.66991148522450       -5.49533887678297
34
 energy: -56.642937061811 gnorm: 0.114170235453 xtb: 6.7.1 (edcfbbe)
H            1.34824478176648       -0.75452362956006       -0.44366468030226
C            0.26981972701173       -0.75780969181743       -0.61419998351534
H            0.48584464052778        0.61937568217438       -2.16332287992556
H           -0.00295145193984       -1.64300845243119       -1.18803698556546
N           -0.08969412042247        0.47450914334072       -1.33226624336763
H           -0.20333356991970       -1.64306230310163        1.30757732330790
C           -0.43266588784069       -0.74638026850664        0.73521464550237
O           -0.07205360158635        1.60594515164065        0.98893426482272
C            0.01745530418906        0.48711957277959        1.58098323551639
H            0.05238334189488        1.23686748629651       -0.58994375150847
O            0.51026580519214        0.30854630886290        2.69040961427124
H           -1.09188143986162        0.48430846314008       -1.55471350364102
H           -1.51378064840616       -0.69097731440394        0.60826419125650
O            2.18695143709098       -3.36763773784762       -1.01984947387681
H            3.04283982345056       -3.08560730743285       -0.67858002912072
H            2.04163113888959       -2.86131529967970       -1.84620390099333
O           -0.52895896941177        4.52209452997952        1.70961237904019
H           -1.21485861395987        3.97516828209858        1.35982037750860
H            0.25898891663560        4.35627740571206        1.20762105071464
O            1.99669706037034        2.98013005684205        2.80330387155958
H            2.42489472342860        2.77940772490702        3.65577696459517
H            1.13308603157175        3.36884600158379        3.04627603121593
O            2.18790934046250       -2.76808972402507        2.83996102709287
H            2.27064566283029       -1.88111921411031        2.44963435213608
H            1.49023024624517       -3.21644112880785        2.35223564056666
O            1.29747865887012       -0.15660074802531        6.26625929303293
H            1.39530153498990       -0.28280186003559        5.32332418070160
H            1.40189565478414        0.77869003927742        6.44441681982818
O            2.82091055928746        1.05801864242874        0.14680405556343
H            3.60787641840190        0.53444622967870        0.30852813650973
H            2.85144552897823        1.73970147837943        0.73288702059893
O           -1.27681377592135        1.15011186683145       -6.27212687480627
H           -0.51831178343612        1.31972105261788       -6.83991015297019
H           -0.94386147416269        0.66475656122067       -5.50972701575033
34
 energy: -56.636043631585 gnorm: 0.131455304451 xtb: 6.7.1 (edcfbbe)
H            1.34357440598681       -0.74670389858755       -0.44435851044407
C            0.26756092144282       -0.76815193197317       -0.61115749244278
H            0.50016895714438        0.65245741251769       -2.15901506799602
H           -0.01435138194881       -1.65133493522535       -1.18192118885378
N           -0.09600696566938        0.47952695676919       -1.32824464748751
H           -0.20920517087804       -1.65220498576827        1.32012768095617
C           -0.42489019450591       -0.75970335982312        0.74261618488983
O           -0.14363424082323        1.59661511019491        0.99415623353902
C            0.12548285857310        0.50804776206594        1.51809863946921
H            0.03109611920849        1.23820284527713       -0.55806995657719
O            0.45329957944477        0.29409750430612        2.73654495368794
H           -1.09080842522733        0.48178632856161       -1.56795292912544
H           -1.50842912699769       -0.66450021982217        0.62006101001790
O            2.20878161803513       -3.38199189450348       -1.05390698087953
H            3.04756553387411       -3.10451134899650       -0.68006909064882
H            2.03661468475508       -2.85893522990164       -1.83406193068337
O           -0.53845522520855        4.59719265510244        1.72302072326187
H           -1.20149343717408        3.90855765892328        1.37633291349350
H            0.26755823472669        4.31558541739951        1.20615471306084
O            2.00175112463868        2.98517508062519        2.81225454346033
H            2.44947462435923        2.79635700361552        3.62065881685510
H            1.17473811422568        3.39747006314972        3.02276956372819
O            2.17503673958032       -2.75873271531208        2.84241890475092
H            2.26591592475254       -1.88819095864939        2.45179400478571
H            1.49579957193213       -3.22777016090863        2.35944372118212
O            1.32436839041855       -0.17456092207640        6.29393699091534
H            1.34964535160795       -0.27747315554260        5.30619703823933
H            1.38782865563956        0.77809719523715        6.44442040760637
O            2.84243482613429        1.02377705274424        0.11557428438110
H            3.68182844914891        0.55040581310644        0.34394651457469
H            2.74700547244663        1.76114960499405        0.72483505778723
O           -1.27495191234505        1.15061394367206       -6.27883320758145
H           -0.52313943546242        1.33219381265660       -6.85120189596070
H           -0.94853364183476        0.65612349617845       -5.52127100196405
34
 energy: -56.646735083629 gnorm: 0.080585180366 xtb: 6.7.1 (edcfbbe)
H            1.34528944153515       -0.75101653529047       -0.44861781416353
C            0.26720527605418       -0.76243636817342       -0.61050160563913
H            0.49507672476700        0.64870575656282       -2.14368540839263
H           -0.01480661047738       -1.64708872054106       -1.18152549248501
N           -0.09824931362107        0.47943295522619       -1.32353601462976
H           -0.20069616230747       -1.65005862627232        1.31812203961698
C           -0.42489479027234       -0.75412249746368        0.74581180394651
O           -0.10946295180672        1.59618191358423        0.99091157774302
C            0.05935619667902        0.49071567148352        1.55702360421734
H            0.02231259150484        1.23724668223201       -0.56350849626593
O            0.49207606413880        0.30666049632389        2.70710881139544
H           -1.09192707207713        0.47709669320399       -1.57328757968278
H           -1.50765496325466       -0.67773793888098        0.62556883615760
O            2.19016039639410       -3.37915029332249       -1.03894034067918
H            3.05737719915388       -3.11952807285045       -0.69265046105243
H            2.05679713265495       -2.86302220002697       -1.84973807699926
O           -0.52314674254618        4.53826156145387        1.72228569324016
H           -1.20866015857566        3.96291256280230        1.38949109870728
H            0.26059731432550        4.35545326726123        1.22063112215862
O            2.04424879448791        3.01071239264273        2.76785942425027
H            2.43968097867064        2.78866585514113        3.66511353027384
H            1.16214597187810        3.38236944349519        2.99356538264526
O            2.20238319540437       -2.78106372484917        2.83918568788583
H            2.23889594487054       -1.87065304189535        2.45521010852567
H            1.48896981980563       -3.22887813129499        2.36615289448987
O            1.29670281303927       -0.17008684593662        6.27638928592126
H            1.36516019937541       -0.28337207437940        5.32353418488267
H            1.38005167260072        0.77258224447720        6.44979074761514
O            2.87254521070789        1.02401338113829        0.08570374496025
H            3.68087784339237        0.54850773419298        0.35540185233210
H            2.71755799639423        1.76669020033198        0.74494823889068
O           -1.27971879017067        1.15216962364809       -6.28400030791648
H           -0.52504896044250        1.33798651967220       -6.85324858801381
H           -0.94757126228207        0.65051711631111       -5.53127048393806
34