
                                 *****************
                                 * O   R   C   A *
                                 *****************

                                            #,                                       
                                            ###                                      
                                            ####                                     
                                            #####                                    
                                            ######                                   
                                           ########,                                 
                                     ,,################,,,,,                         
                               ,,#################################,,                 
                          ,,##########################################,,             
                       ,#########################################, ''#####,          
                    ,#############################################,,   '####,        
                  ,##################################################,,,,####,       
                ,###########''''           ''''###############################       
              ,#####''   ,,,,##########,,,,          '''####'''          '####       
            ,##' ,,,,###########################,,,                        '##       
           ' ,,###''''                  '''############,,,                           
         ,,##''                                '''############,,,,        ,,,,,,###''
      ,#''                                            '''#######################'''  
     '                                                          ''''####''''         
             ,#######,   #######,   ,#######,      ##                                
            ,#'     '#,  ##    ##  ,#'     '#,    #''#        ,####,   ,####,        
            ##       ##  ##   ,#'  ##            #'  '#       #'       #'  '#        
            ##       ##  #######   ##           ,######,      #####,   #    #        
            '#,     ,#'  ##    ##  '#,     ,#' ,#      #,     #,   #   #,  ,#        
             '#######'   ##     ##  '#######'  #'      '#     '####' # '####'        



                #########################################################
                #                        -***-                          #
                #          Department of theory and spectroscopy        #
                #                                                       #
                #                      Frank Neese                      #
                #                                                       #
                #     Directorship, Architecture, Infrastructure        #
                #                    SHARK, DRIVERS                     #
                #        Core code/Algorithms in most modules           #
                #                                                       #
                #        Max Planck Institute fuer Kohlenforschung      #
                #                Kaiser Wilhelm Platz 1                 #
                #                 D-45470 Muelheim/Ruhr                 #
                #                      Germany                          #
                #                                                       #
                #                  All rights reserved                  #
                #                        -***-                          #
                #########################################################


                         Program Version 6.0.1  -  RELEASE   -


 With contributions from (in alphabetic order):
[Max-Planck-Institut fuer Kohlenforschung]                               
  Daniel Aravena         : Magnetic Suceptibility                        
  Michael Atanasov       : Ab Initio Ligand Field Theory (pilot matlab implementation)
  Alexander A. Auer      : GIAO ZORA, VPT2 properties, NMR spectrum      
  Ute Becker             : All parallelization in ORCA, NUMFREQ, NUMCALC 
  Giovanni Bistoni       : ED, misc. LED, open-shell LED, HFLD           
  Martin Brehm           : Molecular dynamics                            
  Dmytro Bykov           : pre 5.0 version of the SCF Hessian            
  Marcos Casanova-Páez   : Triplet and SCS-CIS(D). UHF-(DLPNO)-IP/EA/STEOM-CCSD. UHF-CVS-IP/STEOM-CCSD   
  Vijay G. Chilkuri      : MRCI spin determinant printing, contributions to CSF-ICE 
  Pauline Colinet        : FMM embedding                                 
  Dipayan Datta          : RHF DLPNO-CCSD density                        
  Achintya Kumar Dutta   : EOM-CC, STEOM-CC                              
  Nicolas Foglia         : Exact transition moments, OPA infrastructure, MCD improvements    
  Dmitry Ganyushin       : Spin-Orbit,Spin-Spin,Magnetic field MRCI      
  Miquel Garcia-Rates    : C-PCM and meta-GGA Hessian, CCSD/C-PCM, Gaussian charge scheme 
  Tiago L. C. Gouveia    : GS-ROHF, GS-ROCIS                             
  Yang Guo               : DLPNO-NEVPT2, F12-NEVPT2, CIM, IAO-localization        
  Andreas Hansen         : Spin unrestricted coupled pair/coupled cluster methods 
  Ingolf Harden          : AUTO-CI MPn and infrastructure                
  Benjamin Helmich-Paris : MC-RPA, TRAH-(SCF,CASSCF), AVAS, COSX integrals, SCF dyn. polar. 
  Lee Huntington         : MR-EOM, pCC                                   
  Robert Izsak           : Overlap fitted RIJCOSX, COSX-SCS-MP3, EOM     
  Riya Kayal             : Wick's Theorem for AUTO-CI, AUTO-CI UHF-CCSDT 
  Emily Kempfer          : AUTO-CI, RHF CISDT and CCSDT                  
  Christian Kollmar      : KDIIS, OOCD, Brueckner-CCSD(T), CCSD density, CASPT2, CASPT2-K, improved NEVPT2 
  Axel Koslowski         : Symmetry handling                             
  Simone Kossmann        : meta-GGA functionals, TD-DFT gradient, OOMP2, (MP2 Hessian; deprecated post 5.0) 
  Lucas Lang             : DCDCAS                                        
  Marvin Lechner         : AUTO-CI (C++ implementation), FIC-MRCC        
  Spencer Leger          : CASSCF response                               
  Dagmar Lenk            : GEPOL surface, SMD, ORCA-2-JSON               
  Dimitrios Liakos       : Extrapolation schemes; Compound Job, initial MDCI parallelization 
  Dimitrios Manganas     : Further ROCIS development; embedding schemes. LFT, Crystal Embedding 
  Dimitrios Pantazis     : SARC Basis sets                               
  Anastasios Papadopoulos: AUTO-CI, single reference methods and gradients 
  Taras Petrenko         : pre 6.0 DFT Hessian and TD-DFT gradient, (ASA, deprecated), ECA, 1-Electron XAS/XES, NRVS 
  Peter Pinski           : DLPNO-MP2, DLPNO-MP2 Gradient                 
  Christoph Reimann      : Effective Core Potentials                     
  Marius Retegan         : Local ZFS, SOC                                
  Christoph Riplinger    : Optimizer, TS searches, QM/MM, DLPNO-CCSD(T), (RO)-DLPNO pert. Triples 
  Michael Roemelt        : Original ROCIS implementation                 
  Masaaki Saitow         : Open-shell DLPNO-CCSD energy and density      
  Barbara Sandhoefer     : DKH picture change effects                    
  Kantharuban Sivalingam : CASSCF convergence/infrastructure, NEVPT2 and variants, FIC-MRCI 
  Bernardo de Souza      : ESD, SOC TD-DFT                               
  Georgi L. Stoychev     : AutoAux, RI-MP2 NMR, DLPNO-MP2 response, X2C  
  Van Anh Tran           : RI-MP2 g-tensors                              
  Willem Van den Heuvel  : Paramagnetic NMR                              
  Zikuan Wang            : NOTCH, Electric field optimization            
  Frank Wennmohs         : Technical directorship and infrastructure     
  Hang Xu                : AUTO-CI-Response properties                   
                                                                         
[FACCTs GmbH]                                                            
  Markus Bursch, Miquel Garcia-Rates, Christoph Riplinger, Bernardo de Souza, Georgi L. Stoychev 
                                                                 
  APM, Basis sets (HGBS, AHGBS, def-TZVP (Ac-Lr), def2-XVPD (La-Lu)), CI-OPT, improved COSX, DLPNO-Multilevel,           
  DOCKER, DRACO, updates on ESD, GOAT, IRC, LR-CPCM, MBIS, meta-GGA TD-DFT gradient, ML-optimized integration grids, 
  MM, NACMEs, nearIR, NEB, NEB-TS, NL-DFT gradient (VV10), 2- and 3-layer-ONIOM, interface openCOSMO-RS, QMMM,   
  Crystal-QMMM, SF, symmetry and pop. for TD-DFT, r2SCAN hybrids, SOLVATOR                                   
                                                                         
[Other institutions]                                                     
  V. Asgeirsson          : NEB                                           
  Christoph Bannwarth    : sTDA-DFT, sTD-DFT, PBEh-3c, B97-3c, D3        
  Sebastian Ehlert       : rSCAN, r2SCAN, r2SCAN-3c, D4, dhf basis sets  
  Marvin Friede          : D4 for Fr, Ra, Ac-Lr                          
  Lars Goerigk           : TD-DFT with DH, B97 family of functionals     
  Stefan Grimme          : VdW corrections, initial TS optimization, DFT functionals, gCP, sTDA/sTD-DF 
  Waldemar Hujo          : DFT-NL                                        
  H. Jonsson             : NEB                                           
  Holger Kruse           : gCP                                           
  Marcel Mueller         : wB97X-3c, vDZP basis set                      
  Hagen Neugebauer       : wr2SCAN                                       
  Tobias Risthaus        : range-separated hybrid DFT                    
  Lukas Wittmann         : regularized MP2, r2SCAN double-hybrids, wr2SCAN        
                                                                         
We gratefully acknowledge several colleagues who have allowed us to      
interface, adapt or use parts of their codes:                            
  Ed Valeev, F. Pavosevic, A. Kumar             : LibInt (2-el integral package), F12 methods 
  Garnet Chan, S. Sharma, J. Yang, R. Olivares  : DMRG                   
  Ulf Ekstrom                                   : XCFun DFT Library      
  Mihaly Kallay                                 : mrcc  (arbitrary order and MRCC methods)
  Frank Weinhold                                : gennbo (NPA and NBO analysis)           
  Simon Mueller                                 : openCOSMO-RS                            
  Christopher J. Cramer and Donald G. Truhlar   : smd solvation model                     
  S Lehtola, MJT Oliveira, MAL Marques          : LibXC Library                           
  Liviu Ungur et al                             : ANISO software                          


 Your calculation uses the libint2 library for the computation of 2-el integrals
 For citations please refer to: http://libint.valeyev.net

 Your ORCA version has been built with support for libXC version: 6.2.2
 For citations please refer to: https://libxc.gitlab.io

 This ORCA versions uses:
   CBLAS   interface :  Fast vector & matrix operations
   LAPACKE interface :  Fast linear algebra routines
   SCALAPACK package :  Parallel linear algebra routines
   Shared memory     :  Shared parallel matrices
   BLAS/LAPACK       :  OpenBLAS 0.3.27  USE64BITINT DYNAMIC_ARCH NO_AFFINITY SkylakeX SINGLE_THREADED
        Core in use  :  SkylakeX
   Copyright (c) 2011-2014, The OpenBLAS Project


NOTE: MaxCore=5000 MB was set to SCF,MP2,MDCI,CIPSI,MRCI and CIS
      => If you want to overwrite this, your respective input block should be placed after the MaxCore statement
Your calculation utilizes the atom-pairwise dispersion correction
based on EEQ partial charges (D4)


Warning: RI is on but no J-basis has been assigned. Assigning Def2/J (nothing to worry about!)
================================================================================

----- Orbital basis set information -----
Your calculation utilizes the basis: def2-TZVP
   F. Weigend and R. Ahlrichs, Phys. Chem. Chem. Phys. 7, 3297 (2005).

----- AuxJ basis set information -----
Your calculation utilizes the auxiliary basis: def2/J
   F. Weigend, Phys. Chem. Chem. Phys. 8, 1057 (2006).

================================================================================
                                        WARNINGS
                       Please study these warnings very carefully!
================================================================================

WARNING: Old DensityContainer found on disk!
         Will remove this file - 
         If you want to keep old densities, please start your calculation with a different basename. 


================================================================================
                                       INPUT FILE
================================================================================
NAME = input.inp
|  1> ! SP B3LYP D4 def2-TZVP TightSCF CPCM(water)
|  2> 
|  3> %maxcore 5000
|  4> 
|  5> %pal
|  6> nprocs 25
|  7> end
|  8> 
|  9> %geom
| 10>     MaxIter 500
| 11> end
| 12> 
| 13> * xyz 0 1
| 14> N           -0.61612643870305       -0.06662315454949        1.76271896019514
| 15> C            0.38247469224743        0.73603963423235        1.03842878866593
| 16> C           -0.25947031117247        1.75155948974665        0.10222818518664
| 17> C           -0.61919639758544        1.16030959211621       -1.27023870507455
| 18> C            0.65409372879762        0.85261898792638       -2.03003249340670
| 19> O            1.03183777556084        1.60150427504879       -2.96994994720882
| 20> O            1.33327250733048       -0.13706257432748       -1.64921269816018
| 21> H           -0.11928267614262       -0.77588888747730        2.30723378943155
| 22> H           -1.14300855786996        0.56042583659145        2.40629358273994
| 23> H            0.99199084578628        1.26162449063533        1.76782809739120
| 24> H            1.02704972505703        0.07702968761779        0.46234290667871
| 25> H            0.42310338699581        2.58676916556923       -0.05549816720530
| 26> H           -1.16742193313835        2.15411489327485        0.54631484445242
| 27> H           -1.18062017173356        0.23995893220700       -1.14464311302165
| 28> H           -1.20929740123193        1.87455864100706       -1.83680580947813
| 29> H           -1.28392285623760       -0.54500613994324        1.13662268585854
| 30> O            2.54186749501621        2.28457276676919        2.76828455044880
| 31> H            3.04194303626615        2.21561889984188        3.58935545899728
| 32> H            3.19538719063479        2.47971102990789        2.07124019778669
| 33> O           -4.50542000371613       -0.13816243499731       -2.98679233153136
| 34> H           -4.31199140143906        0.16490448113494       -2.07376324164598
| 35> H           -3.70177436812182        0.07004878140444       -3.49302741246447
| 36> O           -3.12602123672764       -5.43878242194097        0.60761798111264
| 37> H           -3.13205182994653       -6.23466226581538        1.13988194482879
| 38> H           -2.40580915809361       -4.85447618248172        0.98112734774428
| 39> O            0.33894144597293        3.82513887026950        2.68965244705081
| 40> H            0.33927538429445        4.22879525249843        3.57120005921048
| 41> H            1.16234801452664        3.28368694614923        2.66758635461385
| 42> O            3.77649061982541       -2.43710848394452        3.89740159000271
| 43> H            4.40957570649459       -2.19189648523180        3.21670383841056
| 44> H            3.31368061390079       -3.23046644567287        3.57894942234783
| 45> O            2.00581882335280       -4.27142861169247        2.78020841313111
| 46> H            1.57163183983666       -5.00718462010055        2.31133793454172
| 47> H            1.26898437396365       -3.79779151034775        3.22967705976031
| 48> O           -0.09457503218197        0.58529019077769        7.24160556954930
| 49> H            0.39687059600408        0.90493299676217        7.99874209249821
| 50> H            0.39921445437834        0.87927477494890        6.42610993225657
| 51> O            1.73554878913232       -0.72225122949968        3.24170492346406
| 52> H            2.49640914718668       -1.16493021633933        3.65663882926213
| 53> H            1.52194954470919        0.05375377268120        3.79128533625547
| 54> O           -4.57132369767304       -3.17100412311984        0.06863471460137
| 55> H           -4.51080104159292       -3.05622432873317       -0.90327900777458
| 56> H           -4.22734707888142       -4.06669911745817        0.23244345812863
| 57> O            0.19915863056297       -2.66737830165353        4.12199169998112
| 58> H            0.75622561557797       -1.95247274027086        3.71094453170977
| 59> H            0.44283709053993       -2.62833880503365        5.06474422033784
| 60> O            0.62826363713224       -2.02161780340996        6.75728233225277
| 61> H           -0.16928476203364       -2.48825241986549        7.06151770634682
| 62> H            0.37846307832456       -1.07990588490942        6.88359650674563
| 63> O            0.23349559070085       -2.37965207542917       -0.13932154795570
| 64> H            0.36356078768966       -1.67739674702768       -0.79055782119708
| 65> H            1.13817590226347       -2.60980277069658        0.16200410197520
| 66> O           -2.44298039506154       -1.44786536513892        0.08757817139606
| 67> H           -2.01549328756729       -1.69163592541016       -0.74837218324293
| 68> H           -3.14940304964701       -2.10790933643558        0.23096754758771
| 69> O           -2.05432795307329       -2.51296637151902        6.91109014047357
| 70> H           -2.09376882403657       -1.67398569174613        6.41961532294372
| 71> H           -2.20005730069794       -3.19397768409460        6.21836278550943
| 72> O           -3.68358714807040       -2.77381711325438        2.74360705566453
| 73> H           -4.30708161477601       -2.95689160017718        2.03361569517817
| 74> H           -3.60171837678291       -1.78643056401052        2.78356532383719
| 75> O            3.82138862924343       -0.61758385759726        1.49887262560784
| 76> H            3.85505888376155       -0.12102097114811        0.66822263696375
| 77> H            2.97559885189455       -0.38047267222569        1.94377758303402
| 78> O           -1.80151534966285        2.53730884398665        5.97771877669317
| 79> H           -1.47840333206596        1.76571345658260        6.47040132729755
| 80> H           -1.82876389380687        2.24988738291910        5.03164904862764
| 81> O            5.33801867878229        0.99674507291537        3.06231569951599
| 82> H            4.86262643346293        0.33212249000817        2.51118218270059
| 83> H            5.39961669583590        1.77152606240504        2.49160207704317
| 84> O            2.77577237065175       -2.93316594562026        0.54515992466157
| 85> H            2.57484102742788       -3.48233181558428        1.33299588863869
| 86> H            3.22469236397911       -2.13396494605591        0.89488799069142
| 87> O            3.37641367814386        5.10553093484088       -0.15007421779578
| 88> H            2.39982447439716        5.12344720638772       -0.03770114570986
| 89> H            3.68467496012113        5.96131492592929        0.15858703610793
| 90> O            3.36184474179833       -1.33805245325367        6.40314964435461
| 91> H            2.46952228603136       -1.65034111827071        6.62804150275708
| 92> H            3.62520435225217       -1.85976666114779        5.62579724628876
| 93> O            3.74414964638677        1.15100985283031        5.31471499663177
| 94> H            4.41323675670005        1.04347157647353        4.61157417186927
| 95> H            3.72384165837273        0.29601306445311        5.79094364045208
| 96> O           -0.81053382829850       -0.36253486380778       -6.55537586809810
| 97> H           -0.04367988910172       -0.92897639693586       -6.30215456854584
| 98> H           -1.30048754789820       -0.87717920533109       -7.20409754439681
| 99> O           -0.99184516957076        2.92568785635503       -4.08349251596133
|100> H           -0.81966422252124        2.97155639228638       -5.03920184903354
|101> H           -0.17476710891075        2.52957476012912       -3.69719067685643
|102> O           -1.25358993377848        4.55946546486977       -1.63033876642975
|103> H           -1.09604717329047        4.22133767756026       -2.52190629903299
|104> H           -2.10211101799810        4.16370033885562       -1.35560365047436
|105> O           -1.57222558265979        1.99422113043189        3.34335982569697
|106> H           -2.38482987385812        2.22521922529441        2.86049579604759
|107> H           -0.90059619548411        2.65107052219872        3.06775521106146
|108> O           -2.01798088713592        0.34283887203233       -4.17078834388279
|109> H           -1.75867913344088        1.28065915456872       -4.08261900000127
|110> H           -1.65413048158649        0.06042150845142       -5.02928697645190
|111> O           -1.38971723731867       -3.74222894399976        1.66745033865765
|112> H           -0.97744725019322       -3.11535566155344        1.04526639597653
|113> H           -2.12646028269046       -3.26272896328235        2.10331017159589
|114> O            3.79912360549068        0.71306755038786       -0.94082989566380
|115> H            2.89021548670938        0.42836687848137       -1.17822432940755
|116> H            4.24124108369422        0.81865702841648       -1.78978118613680
|117> O           -3.72755192426802        2.46764588318982        1.72396983121823
|118> H           -3.77944183703729        3.23183340440995        1.14293446301230
|119> H           -3.72882237188217        1.69441558864396        1.12656717507671
|120> O           -3.67560259132458        3.26817209116880       -1.07359755080347
|121> H           -3.70302209320361        2.30059557373937       -0.96010149687871
|122> H           -4.36989594558878        3.48482035554885       -1.69889352873725
|123> O            3.54616351275332       -1.35452813142029       -4.74067710012600
|124> H            3.59552575453291       -0.42122151533476       -4.45881214472348
|125> H            3.49150853908735       -1.85702949854486       -3.90983817753898
|126> O            0.62430197778002       -3.30553777184997       -3.44694370174094
|127> H            1.46525854832410       -2.97014851389812       -3.06581980321496
|128> H            0.41563260467652       -4.08064792056441       -2.88086156636464
|129> O            1.13391262806531       -2.06863344992429       -5.86372881023586
|130> H            0.84736955306686       -2.63773375915312       -5.12576311288944
|131> H            2.03176868778532       -1.77649139575275       -5.60769762057132
|132> O            0.33542859282316        4.04564002947797        5.44210695884108
|133> H           -0.51522655468319        3.61487958434960        5.71018755113560
|134> H            0.57536696874347        4.65134605052581        6.14309333746138
|135> O           -1.43702217636516       -1.80180995274426       -2.49817730592477
|136> H           -1.57688312200483       -1.04485899543120       -3.09065610887090
|137> H           -0.71787659721237       -2.33856669733822       -2.89062094054833
|138> O            0.71418604674779        5.23659282862513        0.34066444897476
|139> H            0.46890468382918        4.77063382837601        1.16887870135141
|140> H            0.02454134874368        5.03330813306325       -0.31045952270118
|141> O            4.39576168408258        2.75563148039514        0.85527632659533
|142> H            4.12194652504764        3.60727235923720        0.46830288928419
|143> H            4.21363818743124        2.08667730844551        0.17046823430529
|144> O            0.35938397481971       -5.80487861518046        1.24257429906695
|145> H            0.39886857814755       -5.66150718119068        0.27978105079238
|146> H           -0.29827697922211       -5.14311336278615        1.53832822961047
|147> O            3.56287099974248        1.24648307062632       -3.76540479036248
|148> H            2.61667189699299        1.36705594771472       -3.49465095545281
|149> H            3.75753544706435        1.98005474108818       -4.35334946447483
|150> O           -0.06114692372024       -4.81306526223030       -1.33577119024946
|151> H           -0.98103968756694       -5.01700922806837       -1.59361128466197
|152> H           -0.08675747977088       -3.92314532145757       -0.90269399753862
|153> O           -2.65343787187044       -5.33422907163844       -2.05794803287257
|154> H           -3.19134082927867       -4.59657953035414       -2.37888655585046
|155> H           -2.91804047596259       -5.46765650285178       -1.12307481120507
|156> O           -0.56040956233997        2.42715896748473       -6.79698911441977
|157> H           -0.54332506922857        1.45340422741718       -6.75652490761473
|158> H           -1.12284315227404        2.65714807690812       -7.54219795009037
|159> O           -1.51350711227121       -0.58954837792961        4.78822129313286
|160> H           -1.03377385340566       -1.39267306690296        4.50083914993823
|161> H           -0.85785108926459        0.12009598365116        4.77144954071595
|162> O           -3.94815836933614       -2.78340631055070       -2.54133669000351
|163> H           -2.99597369278322       -2.52353832841879       -2.52607099986088
|164> H           -4.38855366573104       -1.96130909132041       -2.82851914120560
|165> O            1.06525621044536        1.29761913776278        4.99363483235811
|166> H            2.02328301135794        1.30644420131263        5.19220114124666
|167> H            0.81030107706034        2.22527316264967        4.88662383105575
|168> O           -4.05255236311670        0.56257062591323       -0.33645033246400
|169> H           -4.88399483283137        0.22506453020282        0.00542075130000
|170> H           -3.38165369963439       -0.15943705772824       -0.14533507926099
|171> O           -2.21894505224344       -4.06486368254290        4.69717780697052
|172> H           -2.89007704218566       -3.67678825937242        4.10824481273023
|173> H           -1.37089121159691       -3.77162746574287        4.32060225940467
|174> O            2.83487161941392       -2.33681447702962       -2.21405782211658
|175> H            2.36992501425516       -1.49700721981900       -2.03156685519354
|176> H            2.96511026502196       -2.74485612259931       -1.34045724215085
|177> O           -3.35555846465277       -0.16986026370170        2.89995415217349
|178> H           -4.04038742007564        0.41744108693430        3.21787414837796
|179> H           -2.69855386378218       -0.24977656754861        3.63428462851811
|180> *
|181> 
|182>                          ****END OF INPUT****
================================================================================

                       ****************************
                       * Single Point Calculation *
                       ****************************

---------------------------------
CARTESIAN COORDINATES (ANGSTROEM)
---------------------------------
  N     -0.616126   -0.066623    1.762719
  C      0.382475    0.736040    1.038429
  C     -0.259470    1.751559    0.102228
  C     -0.619196    1.160310   -1.270239
  C      0.654094    0.852619   -2.030032
  O      1.031838    1.601504   -2.969950
  O      1.333273   -0.137063   -1.649213
  H     -0.119283   -0.775889    2.307234
  H     -1.143009    0.560426    2.406294
  H      0.991991    1.261624    1.767828
  H      1.027050    0.077030    0.462343
  H      0.423103    2.586769   -0.055498
  H     -1.167422    2.154115    0.546315
  H     -1.180620    0.239959   -1.144643
  H     -1.209297    1.874559   -1.836806
  H     -1.283923   -0.545006    1.136623
  O      2.541867    2.284573    2.768285
  H      3.041943    2.215619    3.589355
  H      3.195387    2.479711    2.071240
  O     -4.505420   -0.138162   -2.986792
  H     -4.311991    0.164904   -2.073763
  H     -3.701774    0.070049   -3.493027
  O     -3.126021   -5.438782    0.607618
  H     -3.132052   -6.234662    1.139882
  H     -2.405809   -4.854476    0.981127
  O      0.338941    3.825139    2.689652
  H      0.339275    4.228795    3.571200
  H      1.162348    3.283687    2.667586
  O      3.776491   -2.437108    3.897402
  H      4.409576   -2.191896    3.216704
  H      3.313681   -3.230466    3.578949
  O      2.005819   -4.271429    2.780208
  H      1.571632   -5.007185    2.311338
  H      1.268984   -3.797792    3.229677
  O     -0.094575    0.585290    7.241606
  H      0.396871    0.904933    7.998742
  H      0.399214    0.879275    6.426110
  O      1.735549   -0.722251    3.241705
  H      2.496409   -1.164930    3.656639
  H      1.521950    0.053754    3.791285
  O     -4.571324   -3.171004    0.068635
  H     -4.510801   -3.056224   -0.903279
  H     -4.227347   -4.066699    0.232443
  O      0.199159   -2.667378    4.121992
  H      0.756226   -1.952473    3.710945
  H      0.442837   -2.628339    5.064744
  O      0.628264   -2.021618    6.757282
  H     -0.169285   -2.488252    7.061518
  H      0.378463   -1.079906    6.883597
  O      0.233496   -2.379652   -0.139322
  H      0.363561   -1.677397   -0.790558
  H      1.138176   -2.609803    0.162004
  O     -2.442980   -1.447865    0.087578
  H     -2.015493   -1.691636   -0.748372
  H     -3.149403   -2.107909    0.230968
  O     -2.054328   -2.512966    6.911090
  H     -2.093769   -1.673986    6.419615
  H     -2.200057   -3.193978    6.218363
  O     -3.683587   -2.773817    2.743607
  H     -4.307082   -2.956892    2.033616
  H     -3.601718   -1.786431    2.783565
  O      3.821389   -0.617584    1.498873
  H      3.855059   -0.121021    0.668223
  H      2.975599   -0.380473    1.943778
  O     -1.801515    2.537309    5.977719
  H     -1.478403    1.765713    6.470401
  H     -1.828764    2.249887    5.031649
  O      5.338019    0.996745    3.062316
  H      4.862626    0.332122    2.511182
  H      5.399617    1.771526    2.491602
  O      2.775772   -2.933166    0.545160
  H      2.574841   -3.482332    1.332996
  H      3.224692   -2.133965    0.894888
  O      3.376414    5.105531   -0.150074
  H      2.399824    5.123447   -0.037701
  H      3.684675    5.961315    0.158587
  O      3.361845   -1.338052    6.403150
  H      2.469522   -1.650341    6.628042
  H      3.625204   -1.859767    5.625797
  O      3.744150    1.151010    5.314715
  H      4.413237    1.043472    4.611574
  H      3.723842    0.296013    5.790944
  O     -0.810534   -0.362535   -6.555376
  H     -0.043680   -0.928976   -6.302155
  H     -1.300488   -0.877179   -7.204098
  O     -0.991845    2.925688   -4.083493
  H     -0.819664    2.971556   -5.039202
  H     -0.174767    2.529575   -3.697191
  O     -1.253590    4.559465   -1.630339
  H     -1.096047    4.221338   -2.521906
  H     -2.102111    4.163700   -1.355604
  O     -1.572226    1.994221    3.343360
  H     -2.384830    2.225219    2.860496
  H     -0.900596    2.651071    3.067755
  O     -2.017981    0.342839   -4.170788
  H     -1.758679    1.280659   -4.082619
  H     -1.654130    0.060422   -5.029287
  O     -1.389717   -3.742229    1.667450
  H     -0.977447   -3.115356    1.045266
  H     -2.126460   -3.262729    2.103310
  O      3.799124    0.713068   -0.940830
  H      2.890215    0.428367   -1.178224
  H      4.241241    0.818657   -1.789781
  O     -3.727552    2.467646    1.723970
  H     -3.779442    3.231833    1.142934
  H     -3.728822    1.694416    1.126567
  O     -3.675603    3.268172   -1.073598
  H     -3.703022    2.300596   -0.960101
  H     -4.369896    3.484820   -1.698894
  O      3.546164   -1.354528   -4.740677
  H      3.595526   -0.421222   -4.458812
  H      3.491509   -1.857029   -3.909838
  O      0.624302   -3.305538   -3.446944
  H      1.465259   -2.970149   -3.065820
  H      0.415633   -4.080648   -2.880862
  O      1.133913   -2.068633   -5.863729
  H      0.847370   -2.637734   -5.125763
  H      2.031769   -1.776491   -5.607698
  O      0.335429    4.045640    5.442107
  H     -0.515227    3.614880    5.710188
  H      0.575367    4.651346    6.143093
  O     -1.437022   -1.801810   -2.498177
  H     -1.576883   -1.044859   -3.090656
  H     -0.717877   -2.338567   -2.890621
  O      0.714186    5.236593    0.340664
  H      0.468905    4.770634    1.168879
  H      0.024541    5.033308   -0.310460
  O      4.395762    2.755631    0.855276
  H      4.121947    3.607272    0.468303
  H      4.213638    2.086677    0.170468
  O      0.359384   -5.804879    1.242574
  H      0.398869   -5.661507    0.279781
  H     -0.298277   -5.143113    1.538328
  O      3.562871    1.246483   -3.765405
  H      2.616672    1.367056   -3.494651
  H      3.757535    1.980055   -4.353349
  O     -0.061147   -4.813065   -1.335771
  H     -0.981040   -5.017009   -1.593611
  H     -0.086757   -3.923145   -0.902694
  O     -2.653438   -5.334229   -2.057948
  H     -3.191341   -4.596580   -2.378887
  H     -2.918040   -5.467657   -1.123075
  O     -0.560410    2.427159   -6.796989
  H     -0.543325    1.453404   -6.756525
  H     -1.122843    2.657148   -7.542198
  O     -1.513507   -0.589548    4.788221
  H     -1.033774   -1.392673    4.500839
  H     -0.857851    0.120096    4.771450
  O     -3.948158   -2.783406   -2.541337
  H     -2.995974   -2.523538   -2.526071
  H     -4.388554   -1.961309   -2.828519
  O      1.065256    1.297619    4.993635
  H      2.023283    1.306444    5.192201
  H      0.810301    2.225273    4.886624
  O     -4.052552    0.562571   -0.336450
  H     -4.883995    0.225065    0.005421
  H     -3.381654   -0.159437   -0.145335
  O     -2.218945   -4.064864    4.697178
  H     -2.890077   -3.676788    4.108245
  H     -1.370891   -3.771627    4.320602
  O      2.834872   -2.336814   -2.214058
  H      2.369925   -1.497007   -2.031567
  H      2.965110   -2.744856   -1.340457
  O     -3.355558   -0.169860    2.899954
  H     -4.040387    0.417441    3.217874
  H     -2.698554   -0.249777    3.634285

----------------------------
CARTESIAN COORDINATES (A.U.)
----------------------------
  NO LB      ZA    FRAG     MASS         X           Y           Z
   0 N     7.0000    0    14.007   -1.164310   -0.125900    3.331056
   1 C     6.0000    0    12.011    0.722772    1.390913    1.962346
   2 C     6.0000    0    12.011   -0.490328    3.309968    0.193183
   3 C     6.0000    0    12.011   -1.170112    2.192667   -2.400403
   4 C     6.0000    0    12.011    1.236058    1.611216   -3.836205
   5 O     8.0000    0    15.999    1.949891    3.026404   -5.612392
   6 O     8.0000    0    15.999    2.519520   -0.259011   -3.116560
   7 H     1.0000    0     1.008   -0.225412   -1.466218    4.360040
   8 H     1.0000    0     1.008   -2.159973    1.059051    4.547236
   9 H     1.0000    0     1.008    1.874591    2.384125    3.340711
  10 H     1.0000    0     1.008    1.940843    0.145565    0.873701
  11 H     1.0000    0     1.008    0.799550    4.888285   -0.104876
  12 H     1.0000    0     1.008   -2.206108    4.070687    1.032385
  13 H     1.0000    0     1.008   -2.231049    0.453457   -2.163062
  14 H     1.0000    0     1.008   -2.285241    3.542402   -3.471060
  15 H     1.0000    0     1.008   -2.426263   -1.029912    2.147906
  16 O     8.0000    0    15.999    4.803433    4.317217    5.231300
  17 H     1.0000    0     1.008    5.748439    4.186913    6.782899
  18 H     1.0000    0     1.008    6.038407    4.685975    3.914077
  19 O     8.0000    0    15.999   -8.514010   -0.261089   -5.644220
  20 H     1.0000    0     1.008   -8.148483    0.311624   -3.918845
  21 H     1.0000    0     1.008   -6.995340    0.132373   -6.600865
  22 O     8.0000    0    15.999   -5.907324  -10.277809    1.148232
  23 H     1.0000    0     1.008   -5.918720  -11.781804    2.154065
  24 H     1.0000    0     1.008   -4.546320   -9.173631    1.854062
  25 O     8.0000    0    15.999    0.640507    7.228465    5.082707
  26 H     1.0000    0     1.008    0.641138    7.991265    6.748590
  27 H     1.0000    0     1.008    2.196519    6.205269    5.041008
  28 O     8.0000    0    15.999    7.136533   -4.605468    7.365022
  29 H     1.0000    0     1.008    8.332890   -4.142084    6.078689
  30 H     1.0000    0     1.008    6.261949   -6.104697    6.763234
  31 O     8.0000    0    15.999    3.790448   -8.071830    5.253832
  32 H     1.0000    0     1.008    2.969954   -9.462208    4.367796
  33 H     1.0000    0     1.008    2.398033   -7.176786    6.103205
  34 O     8.0000    0    15.999   -0.178721    1.106038   13.684651
  35 H     1.0000    0     1.008    0.749977    1.710076   15.115432
  36 H     1.0000    0     1.008    0.754406    1.661589   12.143588
  37 O     8.0000    0    15.999    3.279712   -1.364857    6.125935
  38 H     1.0000    0     1.008    4.717530   -2.201399    6.910046
  39 H     1.0000    0     1.008    2.876068    0.101580    7.164491
  40 O     8.0000    0    15.999   -8.638550   -5.992329    0.129701
  41 H     1.0000    0     1.008   -8.524179   -5.775427   -1.706950
  42 H     1.0000    0     1.008   -7.988528   -7.684948    0.439254
  43 O     8.0000    0    15.999    0.376355   -5.040614    7.789435
  44 H     1.0000    0     1.008    1.429059   -3.689639    7.012669
  45 H     1.0000    0     1.008    0.836841   -4.966841    9.570980
  46 O     8.0000    0    15.999    1.187246   -3.820304   12.769413
  47 H     1.0000    0     1.008   -0.319902   -4.702116   13.344335
  48 H     1.0000    0     1.008    0.715192   -2.040726   13.008112
  49 O     8.0000    0    15.999    0.441243   -4.496891   -0.263280
  50 H     1.0000    0     1.008    0.687030   -3.169820   -1.493938
  51 H     1.0000    0     1.008    2.150841   -4.931813    0.306143
  52 O     8.0000    0    15.999   -4.616564   -2.736069    0.165499
  53 H     1.0000    0     1.008   -3.808730   -3.196729   -1.414218
  54 H     1.0000    0     1.008   -5.951509   -3.983371    0.436465
  55 O     8.0000    0    15.999   -3.882117   -4.748818   13.060068
  56 H     1.0000    0     1.008   -3.956650   -3.163375   12.131315
  57 H     1.0000    0     1.008   -4.157506   -6.035743   11.751003
  58 O     8.0000    0    15.999   -6.960971   -5.241755    5.184666
  59 H     1.0000    0     1.008   -8.139205   -5.587715    3.842977
  60 H     1.0000    0     1.008   -6.806261   -3.375865    5.260176
  61 O     8.0000    0    15.999    7.221378   -1.167064    2.832459
  62 H     1.0000    0     1.008    7.285006   -0.228696    1.262758
  63 H     1.0000    0     1.008    5.623067   -0.718989    3.673207
  64 O     8.0000    0    15.999   -3.404371    4.794819   11.296251
  65 H     1.0000    0     1.008   -2.793777    3.336715   12.227286
  66 H     1.0000    0     1.008   -3.455863    4.251671    9.508439
  67 O     8.0000    0    15.999   10.087393    1.883575    5.786938
  68 H     1.0000    0     1.008    9.189032    0.627621    4.745447
  69 H     1.0000    0     1.008   10.203797    3.347699    4.708446
  70 O     8.0000    0    15.999    5.245450   -5.542880    1.030203
  71 H     1.0000    0     1.008    4.865744   -6.580653    2.518997
  72 H     1.0000    0     1.008    6.093785   -4.032609    1.691093
  73 O     8.0000    0    15.999    6.380497    9.648055   -0.283599
  74 H     1.0000    0     1.008    4.535011    9.681912   -0.071245
  75 H     1.0000    0     1.008    6.963027   11.265253    0.299686
  76 O     8.0000    0    15.999    6.352966   -2.528553   12.100199
  77 H     1.0000    0     1.008    4.666721   -3.118693   12.525183
  78 H     1.0000    0     1.008    6.850643   -3.514450   10.631216
  79 O     8.0000    0    15.999    7.075417    2.175093   10.043356
  80 H     1.0000    0     1.008    8.339809    1.971876    8.714612
  81 H     1.0000    0     1.008    7.037041    0.559384   10.943298
  82 O     8.0000    0    15.999   -1.531687   -0.685092  -12.387865
  83 H     1.0000    0     1.008   -0.082543   -1.755511  -11.909346
  84 H     1.0000    0     1.008   -2.457565   -1.657628  -13.613771
  85 O     8.0000    0    15.999   -1.874316    5.528749   -7.716683
  86 H     1.0000    0     1.008   -1.548941    5.615428   -9.522711
  87 H     1.0000    0     1.008   -0.330262    4.780204   -6.986678
  88 O     8.0000    0    15.999   -2.368942    8.616141   -3.080894
  89 H     1.0000    0     1.008   -2.071229    7.977172   -4.765712
  90 H     1.0000    0     1.008   -3.972414    7.868253   -2.561720
  91 O     8.0000    0    15.999   -2.971076    3.768532    6.318034
  92 H     1.0000    0     1.008   -4.506675    4.205055    5.405554
  93 H     1.0000    0     1.008   -1.701880    5.009797    5.797217
  94 O     8.0000    0    15.999   -3.813431    0.647872   -7.881648
  95 H     1.0000    0     1.008   -3.323422    2.420095   -7.715032
  96 H     1.0000    0     1.008   -3.125854    0.114180   -9.503975
  97 O     8.0000    0    15.999   -2.626185   -7.071788    3.151024
  98 H     1.0000    0     1.008   -1.847108   -5.887169    1.975267
  99 H     1.0000    0     1.008   -4.018428   -6.165664    3.974680
 100 O     8.0000    0    15.999    7.179303    1.347502   -1.777911
 101 H     1.0000    0     1.008    5.461716    0.809496   -2.226521
 102 H     1.0000    0     1.008    8.014784    1.547038   -3.382196
 103 O     8.0000    0    15.999   -7.044052    4.663175    3.257831
 104 H     1.0000    0     1.008   -7.142110    6.107280    2.159833
 105 H     1.0000    0     1.008   -7.046453    3.201981    2.128903
 106 O     8.0000    0    15.999   -6.945882    6.175950   -2.028805
 107 H     1.0000    0     1.008   -6.997698    4.347496   -1.814329
 108 H     1.0000    0     1.008   -8.257907    6.585356   -3.210444
 109 O     8.0000    0    15.999    6.701278   -2.559687   -8.958581
 110 H     1.0000    0     1.008    6.794559   -0.795993   -8.425934
 111 H     1.0000    0     1.008    6.597995   -3.509277   -7.388523
 112 O     8.0000    0    15.999    1.179760   -6.246561   -6.513780
 113 H     1.0000    0     1.008    2.768937   -5.612767   -5.793560
 114 H     1.0000    0     1.008    0.785432   -7.711307   -5.444039
 115 O     8.0000    0    15.999    2.142784   -3.909151  -11.080842
 116 H     1.0000    0     1.008    1.601296   -4.984594   -9.686289
 117 H     1.0000    0     1.008    3.839486   -3.357082  -10.597013
 118 O     8.0000    0    15.999    0.633868    7.645152   10.284092
 119 H     1.0000    0     1.008   -0.973637    6.831132   10.790691
 120 H     1.0000    0     1.008    1.087286    8.789770   11.608764
 121 O     8.0000    0    15.999   -2.715578   -3.404927   -4.720871
 122 H     1.0000    0     1.008   -2.979877   -1.974497   -5.840494
 123 H     1.0000    0     1.008   -1.356590   -4.419251   -5.462482
 124 O     8.0000    0    15.999    1.349616    9.895726    0.643763
 125 H     1.0000    0     1.008    0.886101    9.015191    2.208861
 126 H     1.0000    0     1.008    0.046376    9.511574   -0.586683
 127 O     8.0000    0    15.999    8.306786    5.207389    1.616238
 128 H     1.0000    0     1.008    7.789350    6.816757    0.884964
 129 H     1.0000    0     1.008    7.962622    3.943249    0.322138
 130 O     8.0000    0    15.999    0.679137  -10.969631    2.348125
 131 H     1.0000    0     1.008    0.753752  -10.698698    0.528710
 132 H     1.0000    0     1.008   -0.563662   -9.719076    2.907019
 133 O     8.0000    0    15.999    6.732850    2.355512   -7.115584
 134 H     1.0000    0     1.008    4.944793    2.583361   -6.603933
 135 H     1.0000    0     1.008    7.100713    3.741761   -8.226638
 136 O     8.0000    0    15.999   -0.115551   -9.095375   -2.524242
 137 H     1.0000    0     1.008   -1.853896   -9.480773   -3.011489
 138 H     1.0000    0     1.008   -0.163948   -7.413670   -1.705844
 139 O     8.0000    0    15.999   -5.014271  -10.080232   -3.888958
 140 H     1.0000    0     1.008   -6.030760   -8.686276   -4.495444
 141 H     1.0000    0     1.008   -5.514297  -10.332373   -2.122304
 142 O     8.0000    0    15.999   -1.059021    4.586666  -12.844448
 143 H     1.0000    0     1.008   -1.026736    2.746536  -12.767982
 144 H     1.0000    0     1.008   -2.121866    5.021282  -14.252689
 145 O     8.0000    0    15.999   -2.860114   -1.114085    9.048427
 146 H     1.0000    0     1.008   -1.953549   -2.631771    8.505353
 147 H     1.0000    0     1.008   -1.621104    0.226949    9.016733
 148 O     8.0000    0    15.999   -7.460938   -5.259876   -4.802430
 149 H     1.0000    0     1.008   -5.661570   -4.768796   -4.773582
 150 H     1.0000    0     1.008   -8.293165   -3.706337   -5.345127
 151 O     8.0000    0    15.999    2.013043    2.452145    9.436602
 152 H     1.0000    0     1.008    3.823451    2.468822    9.811838
 153 H     1.0000    0     1.008    1.531247    4.205157    9.234381
 154 O     8.0000    0    15.999   -7.658214    1.063104   -0.635799
 155 H     1.0000    0     1.008   -9.229413    0.425310    0.010244
 156 H     1.0000    0     1.008   -6.390399   -0.301292   -0.274643
 157 O     8.0000    0    15.999   -4.193198   -7.681479    8.876380
 158 H     1.0000    0     1.008   -5.461454   -6.948123    7.763458
 159 H     1.0000    0     1.008   -2.590609   -7.127343    8.164755
 160 O     8.0000    0    15.999    5.357131   -4.415939   -4.183963
 161 H     1.0000    0     1.008    4.478509   -2.828934   -3.839105
 162 H     1.0000    0     1.008    5.603246   -5.187026   -2.533097
 163 O     8.0000    0    15.999   -6.341087   -0.320989    5.480119
 164 H     1.0000    0     1.008   -7.635226    0.788849    6.080901
 165 H     1.0000    0     1.008   -5.099528   -0.472009    6.867803

--------------------------------
INTERNAL COORDINATES (ANGSTROEM)
--------------------------------
 N      0   0   0     0.000000000000     0.00000000     0.00000000
 C      1   0   0     1.471756781471     0.00000000     0.00000000
 C      2   1   0     1.523103914483   112.34283633     0.00000000
 C      3   2   1     1.537089673232   113.01711131   275.24328170
 C      4   3   2     1.514340732675   109.23082942   290.91608469
 O      5   4   3     1.259747815277   120.37708972   255.72880943
 O      5   4   3     1.259276428877   117.48037002    72.92712723
 H      1   2   3     1.022940860245   108.09237616   175.21959518
 H      1   2   3     1.041625412311   108.60000774   293.96352023
 H      2   1   3     1.086173436553   108.31099098   120.53173717
 H      2   1   3     1.087035430004   109.42108796   238.57642990
 H      3   2   1     1.090119102785   109.62523318   154.48332162
 H      3   2   1     1.087952187221   110.33720844    36.46757570
 H      4   3   2     1.085364567377   110.11506195    50.22199832
 H      4   3   2     1.085987652848   109.87764424   171.15580175
 H      1   2   3     1.032859564861   113.13968654    55.17734304
 O     10   2   1     2.109372873140   164.90150153   156.21269532
 H     17  10   2     0.963840038380   138.63902935   232.85240345
 H     17  10   2     0.975211650812   104.50218055     9.27594409
 O     14   4   3     3.819788401776   118.57905515   128.01846504
 H     20  14   4     0.981267699871    49.39217602   265.25307793
 H     20  14   4     0.972353935258    60.69165328    55.36856135
 O     16   1   2     5.255684419682   135.96356503   130.32013368
 H     23  16   1     0.957478992465   136.07429283    15.04542564
 H     23  16   1     0.999814216064    33.46190771   341.34250657
 O     17  10   2     2.689314058360    70.24903751   120.42718341
 H     26  17  10     0.969569378092   102.21756533   140.02425450
 H     26  17  10     0.985725862350     3.38142718   270.59680826
 O      8   1   2     4.523862702961   149.31495492     9.72277223
 H     29   8   1     0.961392261410   102.97597197   329.16654182
 H     29   8   1     0.972122286601    76.97090994   224.57972803
 O     31  29   8     1.852590589975   159.37438818     4.42255074
 H     32  31  29     0.974522840295   161.11980326   151.66405656
 H     32  31  29     0.984519768151    93.50891024   313.75158853
 O      9   1   2     4.947734138338   119.97730072   257.68840640
 H     35   9   1     0.957572996311   152.02430912    88.39306651
 H     35   9   1     0.997641281830    46.17268988    68.20619618
 O      8   1   2     2.077621973138   130.93000422    33.05285280
 H     38   8   1     0.973161505624   151.40633795   196.40010308
 H     38   8   1     0.974600959753    94.50373069    57.03734215
 O     23  16   1     2.742666690978    55.56763287   147.46640052
 H     41  23  16     0.980537442855   105.01385260    98.34465581
 H     41  23  16     0.973356430920    11.42670745   187.98540186
 O     34  32  31     1.794041961824   167.55338095    15.52837367
 H     44  34  32     0.995175040902    85.03212656    34.31427883
 H     44  34  32     0.974518131587   110.93419555   291.90923666
 O     46  44  34     1.807533855361   160.90116123   155.65635156
 H     47  46  44     0.972826026141    92.73567250    95.83475593
 H     47  46  44     0.982434184719   114.58594564   351.10267713
 O     11   2   1     2.650851479244   120.30579282    20.09842128
 H     50  11   2     0.966534109756    55.89537556   113.00137426
 H     50  11   2     0.980924541424    82.62449795   226.34022524
 O     16   1   2     1.805287664653   177.42770234   136.28715285
 H     53  16   1     0.970042426160   110.09089618   255.31657770
 H     53  16   1     0.977369696768   135.76965757    38.05521718
 O     48  47  46     1.891197256784   142.99202364   291.38499849
 H     56  48  47     0.973134964741    93.97395538   351.32006389
 H     56  48  47     0.982285416226   102.29988315    96.20027500
 O     55  53  16     2.653703660129   116.99210920     3.04422825
 H     59  55  53     0.962470440969    58.64560912   162.22435390
 H     59  55  53     0.991580232021    76.80073161    44.13760982
 O     30  29   8     2.403199609490   120.79881411    12.38410427
 H     62  30  29     0.968342805969   160.15018756   196.64837380
 H     62  30  29     0.984643327728    92.57954164     9.14607684
 O     37  35   9     2.791656009051    85.18862470    58.17262032
 H     65  37  35     0.970822802291    35.32087034   343.62356720
 H     65  37  35     0.989141804698    90.15813860   226.74741841
 O     18  17  10     2.652430521276   108.22430721    97.71133192
 H     68  18  17     0.985631329645    90.19776711   315.66867803
 H     68  18  17     0.964258231106    78.67760085    59.89623901
 O     52  50  11     1.712627899058   174.20664609   290.05277992
 H     71  52  50     0.981143243140    95.13517413   185.55084350
 H     71  52  50     0.981101991784   111.31319449    76.95089926
 O     19  17  10     3.444116504301   130.44905431    85.32789028
 H     74  19  17     0.983196406112    83.56767208   332.53965776
 H     74  19  17     0.960553500348   119.26626221    76.62963274
 O     29   8   1     2.767422749536    92.48776808   100.91147411
 H     77  29   8     0.971771538655   102.67956880    51.93682429
 H     77  29   8     0.972533161345    12.21851346   155.01375958
 O     18  17  10     2.145542374408   152.91725553    17.44328505
 H     80  18  17     0.976549569411    72.53441114    92.27150925
 H     80  18  17     0.978890005929   144.86792231   359.88420095
 O     22  20  14     4.233719231709   156.79830942   128.62705513
 H     83  22  20     0.986428913334   113.82143450   267.66422891
 H     83  22  20     0.962160724054   101.22075280    19.95733427
 O     15   4   3     2.489931576871   134.50192798   124.97982511
 H     86  15   4     0.972178240055   157.28073534    43.77967244
 H     86  15   4     0.986788352743    63.23218983   341.10628259
 O     15   4   3     2.693197935750   128.65369682    25.93432591
 H     89  15   4     0.966458890551    65.02718607   127.02681412
 H     89  15   4     0.975754810018    68.37911027   246.54053393
 O     67  65  37     1.726701374880   166.93383288   282.96101133
 H     92  67  65     0.973058849728   109.02444786   238.67456598
 H     92  67  65     0.979027609820   106.13060710   352.33731564
 O     22  20  14     1.835465826517   169.19443673    19.30158024
 H     95  22  20     0.976994429363   110.65955642   259.70181479
 H     95  22  20     0.974251808822   128.67547388   128.71324033
 O     25  23  16     1.655468501310   171.75251406    44.06955824
 H     98  25  23     0.974704833814   115.28199022   261.38841264
 H     98  25  23     0.981164787577    92.95958661    11.39256027
 O     63  62  30     1.813251904692   174.88364425   102.12882489
 H    101  63  62     0.981592867814    96.30133461    20.93084450
 H    101  63  62     0.962982500360   144.94296967   255.18139428
 O     93  92  67     1.775771510597   168.94903668   196.99432630
 H    104  93  92     0.961393379290   122.42080735   267.34773498
 H    104  93  92     0.977126724640   106.51403595    27.93607239
 O     91  89  15     1.832313841564   171.24071210   313.33247042
 H    107  91  89     0.974596070391   121.82353589    61.76065905
 H    107  91  89     0.959153164127   114.26025951   291.90214375
 O    103 101  63     3.730100972327   123.22929144    88.94932132
 H    110 103 101     0.976189389220    37.35793892   127.51195760
 H    110 103 101     0.972516377957    68.63256849   324.72453921
 O     51  50  11     3.126534041278   101.84863143   160.86698861
 H    113  51  50     0.982318346524    64.14825123   257.44949391
 H    113  51  50     0.982236037775    84.46605685     4.97605689
 O     84  83  22     1.696396027012   172.64598995    67.50243888
 H    116  84  83     0.974974597748   112.56581293   312.31844913
 H    116  84  83     0.978286488649   120.27293120   188.88492166
 O     27  26  17     1.879854584964   149.80565402   302.78267239
 H    119  27  26     0.990472586714   108.27036712   295.58415367
 H    119  27  26     0.956991176127   131.82240295   160.46900417
 O     54  53  16     1.846235388611   165.89037653   258.33842008
 H    122  54  53     0.971373752905   119.10856401    15.29685456
 H    122  54  53     0.979433598177   129.97978332   169.14290941
 O     75  74  19     1.731282577698   173.34503940    74.36949763
 H    125  75  74     0.981437509344   113.37392047   303.05080545
 H    125  75  74     0.969998403826   122.12933800   172.99313708
 O     19  17  10     1.730779926958   177.22099764   265.64796870
 H    128  19  17     0.974687318588   102.90815486   181.94901034
 H    128  19  17     0.974490007885   104.75311424    71.76771092
 O     33  32  31     1.802253118887   156.80421243   210.76420297
 H    131  33  32     0.974210059950   119.58187062    71.72020366
 H    131  33  32     0.978734676600    88.48197003   327.51804395
 O    111 110 103     1.806410440107   173.01613437   311.83784472
 H    134 111 110     0.991533257058   103.55240569   316.50160556
 H    134 111 110     0.960052385327   117.81899548   200.48281425
 O    115 113  51     1.775122010295   152.16450769     6.48237380
 H    137 115 113     0.976871205669    96.27624562   104.47457141
 H    137 115 113     0.990034977368    90.96379871   358.07517989
 O    138 137 115     1.764412857512   178.30134903   288.96475195
 H    140 138 137     0.967712753288   118.49588204    15.85630637
 H    140 138 137     0.980716757318    91.68067440   267.00326699
 O     87  86  15     1.858331941638   160.17926209    16.19781559
 H    143  87  86     0.974744851611   104.82280508   353.23629088
 H    143  87  86     0.961541856760   125.54973739   116.38705565
 O     57  56  48     2.043074747101   148.14420779    57.17926872
 H    146  57  56     0.978642816316    86.45202217     1.78811826
 H    146  57  56     0.966313216358   126.61016635   255.24963049
 O     42  41  23     1.753348059570   164.59020969   294.53887713
 H    149  42  41     0.987127179088   109.63648950   354.10449295
 H    149  42  41     0.975840978455   105.14158556   244.44444221
 O     37  35   9     1.634199663001   173.55720218   357.56957362
 H    152  37  35     0.978428235508   102.91365171   204.74300465
 H    152  37  35     0.967985260388   103.58478811    94.73422667
 O     21  20  14     1.801028351170   173.78968445   245.07261310
 H    155  21  20     0.960251416558    98.11115804   325.47608082
 H    155  21  20     1.003954755906    96.95556557    71.73631126
 O     58  56  48     1.752941216466   163.33924561   294.87437271
 H    158  58  56     0.973582432924   109.53195074   284.52780462
 H    158  58  56     0.973135108042   100.17843770    33.76436894
 O    114 113  51     1.732758044044   172.83421647    12.89434363
 H    161 114 113     0.977115411771    91.70989892   304.74236514
 H    161 114 113     0.972953268480   113.19652059    51.71556856
 O     61  59  55     1.639341513396   175.70955921   256.30368522
 H    164  61  59     0.956549370723   121.43587232   224.42973177
 H    164  61  59     0.988576203271    94.17571342   336.26725717

---------------------------
INTERNAL COORDINATES (A.U.)
---------------------------
 N      0   0   0     0.000000000000     0.00000000     0.00000000
 C      1   0   0     2.781217252721     0.00000000     0.00000000
 C      2   1   0     2.878249271877   112.34283633     0.00000000
 C      3   2   1     2.904678525687   113.01711131   275.24328170
 C      4   3   2     2.861689258198   109.23082942   290.91608469
 O      5   4   3     2.380578368679   120.37708972   255.72880943
 O      5   4   3     2.379687577481   117.48037002    72.92712723
 H      1   2   3     1.933078077061   108.09237616   175.21959518
 H      1   2   3     1.968386763401   108.60000774   293.96352023
 H      2   1   3     2.052570329026   108.31099098   120.53173717
 H      2   1   3     2.054199260576   109.42108796   238.57642990
 H      3   2   1     2.060026557620   109.62523318   154.48332162
 H      3   2   1     2.055931680648   110.33720844    36.46757570
 H      4   3   2     2.051041787804   110.11506195    50.22199832
 H      4   3   2     2.052219248703   109.87764424   171.15580175
 H      1   2   3     1.951821712388   113.13968654    55.17734304
 O     10   2   1     3.986137044557   164.90150153   156.21269532
 H     17  10   2     1.821393709447   138.63902935   232.85240345
 H     17  10   2     1.842882942645   104.50218055     9.27594409
 O     14   4   3     7.218353968886   118.57905515   128.01846504
 H     20  14   4     1.854327216819    49.39217602   265.25307793
 H     20  14   4     1.837482642879    60.69165328    55.36856135
 O     16   1   2     9.931804199516   135.96356503   130.32013368
 H     23  16   1     1.809373074741   136.07429283    15.04542564
 H     23  16   1     1.889375053161    33.46190771   341.34250657
 O     17  10   2     5.082067058405    70.24903751   120.42718341
 H     26  17  10     1.832220592430   102.21756533   140.02425450
 H     26  17  10     1.862751922966     3.38142718   270.59680826
 O      8   1   2     8.548861576056   149.31495492     9.72277223
 H     29   8   1     1.816768081335   102.97597197   329.16654182
 H     29   8   1     1.837044890357    76.97090994   224.57972803
 O     31  29   8     3.500888853332   159.37438818     4.42255074
 H     32  31  29     1.841581279408   161.11980326   151.66405656
 H     32  31  29     1.860472735236    93.50891024   313.75158853
 O      9   1   2     9.349862504912   119.97730072   257.68840640
 H     35   9   1     1.809550716266   152.02430912    88.39306651
 H     35   9   1     1.885268802553    46.17268988    68.20619618
 O      8   1   2     3.926136539049   130.93000422    33.05285280
 H     38   8   1     1.839008729704   151.40633795   196.40010308
 H     38   8   1     1.841728903790    94.50373069    57.03734215
 O     23  16   1     5.182888922576    55.56763287   147.46640052
 H     41  23  16     1.852947231052   105.01385260    98.34465581
 H     41  23  16     1.839377085131    11.42670745   187.98540186
 O     34  32  31     3.390247980610   167.55338095    15.52837367
 H     44  34  32     1.880608282618    85.03212656    34.31427883
 H     44  34  32     1.841572381240   110.93419555   291.90923666
 O     46  44  34     3.415743964424   160.90116123   155.65635156
 H     47  46  44     1.838374765357    92.73567250    95.83475593
 H     47  46  44     1.856531553721   114.58594564   351.10267713
 O     11   2   1     5.009383317472   120.30579282    20.09842128
 H     50  11   2     1.826484766532    55.89537556   113.00137426
 H     50  11   2     1.853678741333    82.62449795   226.34022524
 O     16   1   2     3.411499279141   177.42770234   136.28715285
 H     53  16   1     1.833114523726   110.09089618   255.31657770
 H     53  16   1     1.846961058486   135.76965757    38.05521718
 O     48  47  46     3.573844880544   142.99202364   291.38499849
 H     56  48  47     1.838958574703    93.97395538   351.32006389
 H     56  48  47     1.856250422012   102.29988315    96.20027500
 O     55  53  16     5.014773158229   116.99210920     3.04422825
 H     59  55  53     1.818805545427    58.64560912   162.22435390
 H     59  55  53     1.873815078330    76.80073161    44.13760982
 O     30  29   8     4.541389107083   120.79881411    12.38410427
 H     62  30  29     1.829902707035   160.15018756   196.64837380
 H     62  30  29     1.860706228998    92.57954164     9.14607684
 O     37  35   9     5.275465317223    85.18862470    58.17262032
 H     65  37  35     1.834589220897    35.32087034   343.62356720
 H     65  37  35     1.869207118493    90.15813860   226.74741841
 O     18  17  10     5.012367274466   108.22430721    97.71133192
 H     68  18  17     1.862573282041    90.19776711   315.66867803
 H     68  18  17     1.822183979170    78.67760085    59.89623901
 O     52  50  11     3.236397698533   174.20664609   290.05277992
 H     71  52  50     1.854092027681    95.13517413   185.55084350
 H     71  52  50     1.854014073917   111.31319449    76.95089926
 O     19  17  10     6.508436966447   130.44905431    85.32789028
 H     74  19  17     1.857971943407    83.56767208   332.53965776
 H     74  19  17     1.815183052637   119.26626221    76.62963274
 O     29   8   1     5.229671093407    92.48776808   100.91147411
 H     77  29   8     1.836382072797   102.67956880    51.93682429
 H     77  29   8     1.837821331099    12.21851346   155.01375958
 O     18  17  10     4.054487496355   152.91725553    17.44328505
 H     80  18  17     1.845411242386    72.53441114    92.27150925
 H     80  18  17     1.849834026438   144.86792231   359.88420095
 O     22  20  14     8.000569875846   156.79830942   128.62705513
 H     83  22  20     1.864080496783   113.82143450   267.66422891
 H     83  22  20     1.818220265277   101.22075280    19.95733427
 O     15   4   3     4.705288772489   134.50192798   124.97982511
 H     86  15   4     1.837150627062   157.28073534    43.77967244
 H     86  15   4     1.864759738828    63.23218983   341.10628259
 O     15   4   3     5.089406523010   128.65369682    25.93432591
 H     89  15   4     1.826342622835    65.02718607   127.02681412
 H     89  15   4     1.843909364790    68.37911027   246.54053393
 O     67  65  37     3.262992713588   166.93383288   282.96101133
 H     92  67  65     1.838814738174   109.02444786   238.67456598
 H     92  67  65     1.850094060108   106.13060710   352.33731564
 O     22  20  14     3.468527740289   169.19443673    19.30158024
 H     95  22  20     1.846251905863   110.65955642   259.70181479
 H     95  22  20     1.841069104152   128.67547388   128.71324033
 O     25  23  16     3.128382090810   171.75251406    44.06955824
 H     98  25  23     1.841925197317   115.28199022   261.38841264
 H     98  25  23     1.854132740767    92.95958661    11.39256027
 O     63  62  30     3.426549511679   174.88364425   102.12882489
 H    101  63  62     1.854941695179    96.30133461    20.93084450
 H    101  63  62     1.819773197439   144.94296967   255.18139428
 O     93  92  67     3.355721831447   168.94903668   196.99432630
 H    104  93  92     1.816770193823   122.42080735   267.34773498
 H    104  93  92     1.846501907705   106.51403595    27.93607239
 O     91  89  15     3.462571351949   171.24071210   313.33247042
 H    107  91  89     1.841719664234   121.82353589    61.76065905
 H    107  91  89     1.812536800684   114.26025951   291.90214375
 O    103 101  63     7.048869289572   123.22929144    88.94932132
 H    110 103 101     1.844730600467    37.35793892   127.51195760
 H    110 103 101     1.837789615091    68.63256849   324.72453921
 O     51  50  11     5.908293086398   101.84863143   160.86698861
 H    113  51  50     1.856312651257    64.14825123   257.44949391
 H    113  51  50     1.856157110262    84.46605685     4.97605689
 O     84  83  22     3.205723905726   172.64598995    67.50243888
 H    116  84  83     1.842434977274   112.56581293   312.31844913
 H    116  84  83     1.848693544061   120.27293120   188.88492166
 O     27  26  17     3.552410337178   149.80565402   302.78267239
 H    119  27  26     1.871721932045   108.27036712   295.58415367
 H    119  27  26     1.808451235458   131.82240295   160.46900417
 O     54  53  16     3.488879263228   165.89037653   258.33842008
 H    122  54  53     1.835630366670   119.10856401    15.29685456
 H    122  54  53     1.850861266916   129.97978332   169.14290941
 O     75  74  19     3.271649932279   173.34503940    74.36949763
 H    125  75  74     1.854648110219   113.37392047   303.05080545
 H    125  75  74     1.833031333573   122.12933800   172.99313708
 O     19  17  10     3.270700060038   177.22099764   265.64796870
 H    128  19  17     1.841892098338   102.90815486   181.94901034
 H    128  19  17     1.841519235145   104.75311424    71.76771092
 O     33  32  31     3.405764818702   156.80421243   210.76420297
 H    131  33  32     1.840990210216   119.58187062    71.72020366
 H    131  33  32     1.849540496546    88.48197003   327.51804395
 O    111 110 103     3.413621017259   173.01613437   311.83784472
 H    134 111 110     1.873726308514   103.55240569   316.50160556
 H    134 111 110     1.814236082486   117.81899548   200.48281425
 O    115 113  51     3.354494453754   152.16450769     6.48237380
 H    137 115 113     1.846019046829    96.27624562   104.47457141
 H    137 115 113     1.870894970229    90.96379871   358.07517989
 O    138 137 115     3.334257087868   178.30134903   288.96475195
 H    140 138 137     1.828712080018   118.49588204    15.85630637
 H    140 138 137     1.853286086278    91.68067440   267.00326699
 O     87  86  15     3.511738435613   160.17926209    16.19781559
 H    143  87  86     1.842000819994   104.82280508   353.23629088
 H    143  87  86     1.817050775578   125.54973739   116.38705565
 O     57  56  48     3.860851743151   148.14420779    57.17926872
 H    146  57  56     1.849366905767    86.45202217     1.78811826
 H    146  57  56     1.826067338504   126.61016635   255.24963049
 O     42  41  23     3.313347650030   164.59020969   294.53887713
 H    149  42  41     1.865400027827   109.63648950   354.10449295
 H    149  42  41     1.844072199537   105.14158556   244.44444221
 O     37  35   9     3.088189811218   173.55720218   357.56957362
 H    152  37  35     1.848961406806   102.91365171   204.74300465
 H    152  37  35     1.829227043805   103.58478811    94.73422667
 O     21  20  14     3.403450343139   173.78968445   245.07261310
 H    155  21  20     1.814612197004    98.11115804   325.47608082
 H    155  21  20     1.897199539510    96.95556557    71.73631126
 O     58  56  48     3.312578827983   163.33924561   294.87437271
 H    158  58  56     1.839804167023   109.53195074   284.52780462
 H    158  58  56     1.838958845502   100.17843770    33.76436894
 O    114 113  51     3.274438159593   172.83421647    12.89434363
 H    161 114 113     1.846480529481    91.70989892   304.74236514
 H    161 114 113     1.838615218530   113.19652059    51.71556856
 O     61  59  55     3.097906500286   175.70955921   256.30368522
 H    164  61  59     1.807616344242   121.43587232   224.42973177
 H    164  61  59     1.868138286694    94.17571342   336.26725717

---------------------
BASIS SET INFORMATION
---------------------
There are 4 groups of distinct atoms

 Group   1 Type N   : 11s6p2d1f contracted to 5s3p2d1f pattern {62111/411/11/1}
 Group   2 Type C   : 11s6p2d1f contracted to 5s3p2d1f pattern {62111/411/11/1}
 Group   3 Type O   : 11s6p2d1f contracted to 5s3p2d1f pattern {62111/411/11/1}
 Group   4 Type H   : 5s1p contracted to 3s1p pattern {311/1}

Atom   0N    basis set group =>   1
Atom   1C    basis set group =>   2
Atom   2C    basis set group =>   2
Atom   3C    basis set group =>   2
Atom   4C    basis set group =>   2
Atom   5O    basis set group =>   3
Atom   6O    basis set group =>   3
Atom   7H    basis set group =>   4
Atom   8H    basis set group =>   4
Atom   9H    basis set group =>   4
Atom  10H    basis set group =>   4
Atom  11H    basis set group =>   4
Atom  12H    basis set group =>   4
Atom  13H    basis set group =>   4
Atom  14H    basis set group =>   4
Atom  15H    basis set group =>   4
Atom  16O    basis set group =>   3
Atom  17H    basis set group =>   4
Atom  18H    basis set group =>   4
Atom  19O    basis set group =>   3
Atom  20H    basis set group =>   4
Atom  21H    basis set group =>   4
Atom  22O    basis set group =>   3
Atom  23H    basis set group =>   4
Atom  24H    basis set group =>   4
Atom  25O    basis set group =>   3
Atom  26H    basis set group =>   4
Atom  27H    basis set group =>   4
Atom  28O    basis set group =>   3
Atom  29H    basis set group =>   4
Atom  30H    basis set group =>   4
Atom  31O    basis set group =>   3
Atom  32H    basis set group =>   4
Atom  33H    basis set group =>   4
Atom  34O    basis set group =>   3
Atom  35H    basis set group =>   4
Atom  36H    basis set group =>   4
Atom  37O    basis set group =>   3
Atom  38H    basis set group =>   4
Atom  39H    basis set group =>   4
Atom  40O    basis set group =>   3
Atom  41H    basis set group =>   4
Atom  42H    basis set group =>   4
Atom  43O    basis set group =>   3
Atom  44H    basis set group =>   4
Atom  45H    basis set group =>   4
Atom  46O    basis set group =>   3
Atom  47H    basis set group =>   4
Atom  48H    basis set group =>   4
Atom  49O    basis set group =>   3
Atom  50H    basis set group =>   4
Atom  51H    basis set group =>   4
Atom  52O    basis set group =>   3
Atom  53H    basis set group =>   4
Atom  54H    basis set group =>   4
Atom  55O    basis set group =>   3
Atom  56H    basis set group =>   4
Atom  57H    basis set group =>   4
Atom  58O    basis set group =>   3
Atom  59H    basis set group =>   4
Atom  60H    basis set group =>   4
Atom  61O    basis set group =>   3
Atom  62H    basis set group =>   4
Atom  63H    basis set group =>   4
Atom  64O    basis set group =>   3
Atom  65H    basis set group =>   4
Atom  66H    basis set group =>   4
Atom  67O    basis set group =>   3
Atom  68H    basis set group =>   4
Atom  69H    basis set group =>   4
Atom  70O    basis set group =>   3
Atom  71H    basis set group =>   4
Atom  72H    basis set group =>   4
Atom  73O    basis set group =>   3
Atom  74H    basis set group =>   4
Atom  75H    basis set group =>   4
Atom  76O    basis set group =>   3
Atom  77H    basis set group =>   4
Atom  78H    basis set group =>   4
Atom  79O    basis set group =>   3
Atom  80H    basis set group =>   4
Atom  81H    basis set group =>   4
Atom  82O    basis set group =>   3
Atom  83H    basis set group =>   4
Atom  84H    basis set group =>   4
Atom  85O    basis set group =>   3
Atom  86H    basis set group =>   4
Atom  87H    basis set group =>   4
Atom  88O    basis set group =>   3
Atom  89H    basis set group =>   4
Atom  90H    basis set group =>   4
Atom  91O    basis set group =>   3
Atom  92H    basis set group =>   4
Atom  93H    basis set group =>   4
Atom  94O    basis set group =>   3
Atom  95H    basis set group =>   4
Atom  96H    basis set group =>   4
Atom  97O    basis set group =>   3
Atom  98H    basis set group =>   4
Atom  99H    basis set group =>   4
Atom 100O    basis set group =>   3
Atom 101H    basis set group =>   4
Atom 102H    basis set group =>   4
Atom 103O    basis set group =>   3
Atom 104H    basis set group =>   4
Atom 105H    basis set group =>   4
Atom 106O    basis set group =>   3
Atom 107H    basis set group =>   4
Atom 108H    basis set group =>   4
Atom 109O    basis set group =>   3
Atom 110H    basis set group =>   4
Atom 111H    basis set group =>   4
Atom 112O    basis set group =>   3
Atom 113H    basis set group =>   4
Atom 114H    basis set group =>   4
Atom 115O    basis set group =>   3
Atom 116H    basis set group =>   4
Atom 117H    basis set group =>   4
Atom 118O    basis set group =>   3
Atom 119H    basis set group =>   4
Atom 120H    basis set group =>   4
Atom 121O    basis set group =>   3
Atom 122H    basis set group =>   4
Atom 123H    basis set group =>   4
Atom 124O    basis set group =>   3
Atom 125H    basis set group =>   4
Atom 126H    basis set group =>   4
Atom 127O    basis set group =>   3
Atom 128H    basis set group =>   4
Atom 129H    basis set group =>   4
Atom 130O    basis set group =>   3
Atom 131H    basis set group =>   4
Atom 132H    basis set group =>   4
Atom 133O    basis set group =>   3
Atom 134H    basis set group =>   4
Atom 135H    basis set group =>   4
Atom 136O    basis set group =>   3
Atom 137H    basis set group =>   4
Atom 138H    basis set group =>   4
Atom 139O    basis set group =>   3
Atom 140H    basis set group =>   4
Atom 141H    basis set group =>   4
Atom 142O    basis set group =>   3
Atom 143H    basis set group =>   4
Atom 144H    basis set group =>   4
Atom 145O    basis set group =>   3
Atom 146H    basis set group =>   4
Atom 147H    basis set group =>   4
Atom 148O    basis set group =>   3
Atom 149H    basis set group =>   4
Atom 150H    basis set group =>   4
Atom 151O    basis set group =>   3
Atom 152H    basis set group =>   4
Atom 153H    basis set group =>   4
Atom 154O    basis set group =>   3
Atom 155H    basis set group =>   4
Atom 156H    basis set group =>   4
Atom 157O    basis set group =>   3
Atom 158H    basis set group =>   4
Atom 159H    basis set group =>   4
Atom 160O    basis set group =>   3
Atom 161H    basis set group =>   4
Atom 162H    basis set group =>   4
Atom 163O    basis set group =>   3
Atom 164H    basis set group =>   4
Atom 165H    basis set group =>   4
---------------------------------
AUXILIARY/J BASIS SET INFORMATION
---------------------------------
There are 4 groups of distinct atoms

 Group   1 Type N   : 12s5p4d2f1g contracted to 6s4p3d1f1g pattern {711111/2111/211/2/1}
 Group   2 Type C   : 12s5p4d2f1g contracted to 6s4p3d1f1g pattern {711111/2111/211/2/1}
 Group   3 Type O   : 12s5p4d2f1g contracted to 6s4p3d1f1g pattern {711111/2111/211/2/1}
 Group   4 Type H   : 5s2p1d contracted to 3s1p1d pattern {311/2/1}

Atom   0N    basis set group =>   1
Atom   1C    basis set group =>   2
Atom   2C    basis set group =>   2
Atom   3C    basis set group =>   2
Atom   4C    basis set group =>   2
Atom   5O    basis set group =>   3
Atom   6O    basis set group =>   3
Atom   7H    basis set group =>   4
Atom   8H    basis set group =>   4
Atom   9H    basis set group =>   4
Atom  10H    basis set group =>   4
Atom  11H    basis set group =>   4
Atom  12H    basis set group =>   4
Atom  13H    basis set group =>   4
Atom  14H    basis set group =>   4
Atom  15H    basis set group =>   4
Atom  16O    basis set group =>   3
Atom  17H    basis set group =>   4
Atom  18H    basis set group =>   4
Atom  19O    basis set group =>   3
Atom  20H    basis set group =>   4
Atom  21H    basis set group =>   4
Atom  22O    basis set group =>   3
Atom  23H    basis set group =>   4
Atom  24H    basis set group =>   4
Atom  25O    basis set group =>   3
Atom  26H    basis set group =>   4
Atom  27H    basis set group =>   4
Atom  28O    basis set group =>   3
Atom  29H    basis set group =>   4
Atom  30H    basis set group =>   4
Atom  31O    basis set group =>   3
Atom  32H    basis set group =>   4
Atom  33H    basis set group =>   4
Atom  34O    basis set group =>   3
Atom  35H    basis set group =>   4
Atom  36H    basis set group =>   4
Atom  37O    basis set group =>   3
Atom  38H    basis set group =>   4
Atom  39H    basis set group =>   4
Atom  40O    basis set group =>   3
Atom  41H    basis set group =>   4
Atom  42H    basis set group =>   4
Atom  43O    basis set group =>   3
Atom  44H    basis set group =>   4
Atom  45H    basis set group =>   4
Atom  46O    basis set group =>   3
Atom  47H    basis set group =>   4
Atom  48H    basis set group =>   4
Atom  49O    basis set group =>   3
Atom  50H    basis set group =>   4
Atom  51H    basis set group =>   4
Atom  52O    basis set group =>   3
Atom  53H    basis set group =>   4
Atom  54H    basis set group =>   4
Atom  55O    basis set group =>   3
Atom  56H    basis set group =>   4
Atom  57H    basis set group =>   4
Atom  58O    basis set group =>   3
Atom  59H    basis set group =>   4
Atom  60H    basis set group =>   4
Atom  61O    basis set group =>   3
Atom  62H    basis set group =>   4
Atom  63H    basis set group =>   4
Atom  64O    basis set group =>   3
Atom  65H    basis set group =>   4
Atom  66H    basis set group =>   4
Atom  67O    basis set group =>   3
Atom  68H    basis set group =>   4
Atom  69H    basis set group =>   4
Atom  70O    basis set group =>   3
Atom  71H    basis set group =>   4
Atom  72H    basis set group =>   4
Atom  73O    basis set group =>   3
Atom  74H    basis set group =>   4
Atom  75H    basis set group =>   4
Atom  76O    basis set group =>   3
Atom  77H    basis set group =>   4
Atom  78H    basis set group =>   4
Atom  79O    basis set group =>   3
Atom  80H    basis set group =>   4
Atom  81H    basis set group =>   4
Atom  82O    basis set group =>   3
Atom  83H    basis set group =>   4
Atom  84H    basis set group =>   4
Atom  85O    basis set group =>   3
Atom  86H    basis set group =>   4
Atom  87H    basis set group =>   4
Atom  88O    basis set group =>   3
Atom  89H    basis set group =>   4
Atom  90H    basis set group =>   4
Atom  91O    basis set group =>   3
Atom  92H    basis set group =>   4
Atom  93H    basis set group =>   4
Atom  94O    basis set group =>   3
Atom  95H    basis set group =>   4
Atom  96H    basis set group =>   4
Atom  97O    basis set group =>   3
Atom  98H    basis set group =>   4
Atom  99H    basis set group =>   4
Atom 100O    basis set group =>   3
Atom 101H    basis set group =>   4
Atom 102H    basis set group =>   4
Atom 103O    basis set group =>   3
Atom 104H    basis set group =>   4
Atom 105H    basis set group =>   4
Atom 106O    basis set group =>   3
Atom 107H    basis set group =>   4
Atom 108H    basis set group =>   4
Atom 109O    basis set group =>   3
Atom 110H    basis set group =>   4
Atom 111H    basis set group =>   4
Atom 112O    basis set group =>   3
Atom 113H    basis set group =>   4
Atom 114H    basis set group =>   4
Atom 115O    basis set group =>   3
Atom 116H    basis set group =>   4
Atom 117H    basis set group =>   4
Atom 118O    basis set group =>   3
Atom 119H    basis set group =>   4
Atom 120H    basis set group =>   4
Atom 121O    basis set group =>   3
Atom 122H    basis set group =>   4
Atom 123H    basis set group =>   4
Atom 124O    basis set group =>   3
Atom 125H    basis set group =>   4
[...]
Atom 157O    basis set group =>   3
Atom 158H    basis set group =>   4
Atom 159H    basis set group =>   4
Atom 160O    basis set group =>   3
Atom 161H    basis set group =>   4
Atom 162H    basis set group =>   4
Atom 163O    basis set group =>   3
Atom 164H    basis set group =>   4
Atom 165H    basis set group =>   4

Checking for AutoStart:
The File: input.gbw exists
Trying to determine its content:
     ... Fine, the file contains calculation information
     ... Fine, the calculation information was read
     ... Fine, the file contains a basis set
     ... Fine, the basis set was read
     ... Fine, the file contains a geometry
     ... Fine, the geometry was read
     ... Fine, the file contains a set of orbitals
     ... Fine, the orbitals can be read
     => possible old guess file was deleted
     => GBW file was renamed to GES file
     => GES file is set as startup file
     => Guess is set to MORead
     ... now leaving AutoStart

--------------------------------------------------------------------------
WARNING: There was an error initializing an OpenFabrics device.

  Local host:   ga00
  Local device: mlx5_0
--------------------------------------------------------------------------


           ************************************************************
           *        Program running with 25 parallel MPI-processes    *
           *              working on a common directory               *
           ************************************************************
------------------------------------------------------------------------------
                             ORCA STARTUP CALCULATIONS
                           -- RI-GTO INTEGRALS CHOSEN --
------------------------------------------------------------------------------
------------------------------------------------------------------------------
                   ___                                                        
                  /   \      - P O W E R E D   B Y -                         
                 /     \                                                     
                 |  |  |   _    _      __       _____    __    __             
                 |  |  |  | |  | |    /  \     |  _  \  |  |  /  |          
                  \  \/   | |  | |   /    \    | | | |  |  | /  /          
                 / \  \   | |__| |  /  /\  \   | |_| |  |  |/  /          
                |  |  |   |  __  | /  /__\  \  |    /   |      \           
                |  |  |   | |  | | |   __   |  |    \   |  |\   \          
                \     /   | |  | | |  |  |  |  | |\  \  |  | \   \       
                 \___/    |_|  |_| |__|  |__|  |_| \__\ |__|  \__/        
                                                                              
                      - O R C A' S   B I G   F R I E N D -                    
                                      &                                       
                       - I N T E G R A L  F E E D E R -                       
                                                                              
 v1 FN, 2020, v2 2021, v3 2022-2024                                           
------------------------------------------------------------------------------


----------------------
SHARK INTEGRAL PACKAGE
----------------------

Number of atoms                             ...    166
Number of basis functions                   ...   2421
Number of shells                            ...   1063
Maximum angular momentum                    ...      3
Integral batch strategy                     ... SHARK/LIBINT Hybrid
RI-J (if used) integral strategy            ... SPLIT-RIJ (Revised 2003 algorithm where possible)
Printlevel                                  ...      1
Contraction scheme used                     ... SEGMENTED contraction
Prescreening option                         ... SCHWARTZ
   Thresh                                   ... 2.500e-11
   Tcut                                     ... 2.500e-12
   Tpresel                                  ... 2.500e-12 
Coulomb Range Separation                    ... NOT USED
Exchange Range Separation                   ... NOT USED
Multipole approximations                    ... NOT USED
Finite Nucleus Model                        ... NOT USED
CABS basis                                  ... NOT available
Auxiliary Coulomb fitting basis             ... AVAILABLE
   # of basis functions in Aux-J            ...   3992
   # of shells in Aux-J                     ...   1400
   Maximum angular momentum in Aux-J        ...      4
Auxiliary J/K fitting basis                 ... NOT available
Auxiliary Correlation fitting basis         ... NOT available
Auxiliary 'external' fitting basis          ... NOT available

Checking pre-screening integrals            ... done (  0.0 sec) Dimension = 1063
Check shell pair data                       ... done (  0.0 sec)
Shell pair information
Shell pair cut-off parameter TPreSel        ...   2.5e-12
Total number of shell pairs                 ...    565516
Shell pairs after pre-screening             ...    226426
Total number of primitive shell pairs       ...   1611696
Primitive shell pairs kept                  ...    386154
          la=0 lb=0:  85423 shell pairs
          la=1 lb=0:  72628 shell pairs
          la=1 lb=1:  15310 shell pairs
          la=2 lb=0:  24404 shell pairs
          la=2 lb=1:   9775 shell pairs
          la=2 lb=2:   1461 shell pairs
          la=3 lb=0:  11437 shell pairs
          la=3 lb=1:   4487 shell pairs
          la=3 lb=2:   1223 shell pairs
          la=3 lb=3:    278 shell pairs

Calculating one electron integrals          ... done (  0.5 sec)
Calculating RI/J V-Matrix + Cholesky decomp.... done (  0.7 sec)
Calculating Nuclear repulsion               ... done (  0.0 sec) ENN=  14138.494516012073 Eh

Diagonalization of the overlap matrix:
Smallest eigenvalue                        ... 4.847e-05
Time for diagonalization                   ...    0.910 sec
Threshold for overlap eigenvalues          ... 1.000e-07
Number of eigenvalues below threshold      ... 0
[ga00:889381] 24 more processes have sent help message help-mpi-btl-openib.txt / error in device init
[ga00:889381] Set MCA parameter "orte_base_help_aggregate" to 0 to see all help / error messages
Time for construction of square roots      ...    0.483 sec
Total time needed                          ...    1.446 sec

-------------------
DFT GRID GENERATION
-------------------

General Integration Accuracy     IntAcc      ... 4.388
Radial Grid Type                 RadialGrid  ... OptM3 with GC (2021)
Angular Grid (max. ang.)         AngularGrid ... 4 (Lebedev-302)
Angular grid pruning method      GridPruning ... 4 (adaptive)
Weight generation scheme         WeightScheme... mBecke (2022)
Basis function cutoff            BFCut       ... 1.0000e-11
Integration weight cutoff        WCut        ... 1.0000e-14
Partially contracted basis set               ... off
Rotationally invariant grid construction     ... off
Angular grids for H and He will be reduced by one unit

Total number of grid points                  ...   681745
Total number of batches                      ...    10730
Average number of points per batch           ...       63
Average number of grid points per atom       ...     4107

--------------------
COSX GRID GENERATION
--------------------

GRIDX 1
-------
General Integration Accuracy     IntAcc      ... 3.816
Radial Grid Type                 RadialGrid  ... OptM3 with GC (2021)
Angular Grid (max. ang.)         AngularGrid ... 1 (Lebedev-50)
Angular grid pruning method      GridPruning ... 4 (adaptive)
Weight generation scheme         WeightScheme... mBecke (2022)
Basis function cutoff            BFCut       ... 1.0000e-11
Integration weight cutoff        WCut        ... 1.0000e-14
Partially contracted basis set               ... on
Rotationally invariant grid construction     ... off
Angular grids for H and He will be reduced by one unit

Total number of grid points                  ...    85997
Total number of batches                      ...      735
Average number of points per batch           ...      117
Average number of grid points per atom       ...      518
UseSFitting                                  ... on

GRIDX 2
-------
General Integration Accuracy     IntAcc      ... 4.020
Radial Grid Type                 RadialGrid  ... OptM3 with GC (2021)
Angular Grid (max. ang.)         AngularGrid ... 2 (Lebedev-110)
Angular grid pruning method      GridPruning ... 4 (adaptive)
Weight generation scheme         WeightScheme... mBecke (2022)
Basis function cutoff            BFCut       ... 1.0000e-11
Integration weight cutoff        WCut        ... 1.0000e-14
Partially contracted basis set               ... on
Rotationally invariant grid construction     ... off
Angular grids for H and He will be reduced by one unit

Total number of grid points                  ...   176219
Total number of batches                      ...     1466
Average number of points per batch           ...      120
Average number of grid points per atom       ...     1062
UseSFitting                                  ... on

GRIDX 3
-------
General Integration Accuracy     IntAcc      ... 4.338
Radial Grid Type                 RadialGrid  ... OptM3 with GC (2021)
Angular Grid (max. ang.)         AngularGrid ... 3 (Lebedev-194)
Angular grid pruning method      GridPruning ... 4 (adaptive)
Weight generation scheme         WeightScheme... mBecke (2022)
Basis function cutoff            BFCut       ... 1.0000e-11
Integration weight cutoff        WCut        ... 1.0000e-14
Partially contracted basis set               ... on
Rotationally invariant grid construction     ... off
Angular grids for H and He will be reduced by one unit

Total number of grid points                  ...   378988
Total number of batches                      ...     3038
Average number of points per batch           ...      124
Average number of grid points per atom       ...     2283
UseSFitting                                  ... on
Initializing property integral containers    ... done (  0.0 sec)

SHARK setup successfully completed in  14.9 seconds

Maximum memory used throughout the entire STARTUP-calculation: 449.4 MB
--------------------------------------------------------------------------
WARNING: There was an error initializing an OpenFabrics device.

  Local host:   ga00
  Local device: mlx5_0
--------------------------------------------------------------------------


           ************************************************************
           *        Program running with 25 parallel MPI-processes    *
           *              working on a common directory               *
           ************************************************************
-------------------------------------------------------------------------------
                                 ORCA GUESS
                   Start orbitals & Density for SCF / CASSCF
-------------------------------------------------------------------------------

------------
SCF SETTINGS
------------
Hamiltonian:
 Density Functional     Method          .... DFT(GTOs)
 Exchange Functional    Exchange        .... B88
   X-Alpha parameter    XAlpha          ....  0.666667
   Becke's b parameter  XBeta           ....  0.004200
 Correlation Functional Correlation     .... LYP
 LDA part of GGA corr.  LDAOpt          .... VWN-5
 Gradients option       PostSCFGGA      .... off
 Hybrid DFT is turned on
   Fraction HF Exchange ScalHFX         ....  0.200000
   Scaling of DF-GGA-X  ScalDFX         ....  0.720000
   Scaling of DF-GGA-C  ScalDFC         ....  0.810000
   Scaling of DF-LDA-C  ScalLDAC        ....  1.000000
   Perturbative correction              ....  0.000000
   NL short-range parameter             ....  4.800000
 RI-approximation to the Coulomb term is turned on
   Number of AuxJ basis functions       .... 3992
   RIJ-COSX (HFX calculated with COS-X)).... on


General Settings:
 Integral files         IntName         .... input
 Hartree-Fock type      HFTyp           .... RHF
 Total Charge           Charge          ....    0
 Multiplicity           Mult            ....    1
 Number of Electrons    NEL             ....  556
 Basis Dimension        Dim             .... 2421
 Nuclear Repulsion      ENuc            ....  14138.4945160121 Eh

Convergence Acceleration:
 AO-DIIS                CNVDIIS         .... on
   Start iteration      DIISMaxIt       ....    12
   Startup error        DIISStart       ....  0.200000
   # of expansion vecs  DIISMaxEq       ....     5
   Bias factor          DIISBfac        ....   1.050
   Max. coefficient     DIISMaxC        ....  10.000
 MO-DIIS                CNVKDIIS        .... off
 Trust-Rad. Augm. Hess. CNVTRAH         .... auto
   Auto Start mean grad. ratio tolernc. ....  1.125000
   Auto Start start iteration           ....     1
   Auto Start num. interpolation iter.  ....    10
   Max. Number of Micro iterations      ....    24
   Max. Number of Macro iterations      .... Maxiter - #DIIS iter
   Number of Davidson start vectors     ....     2
   Converg. threshold    (grad. norm)   ....   1.000e-05
   Grad. Scal. Fac. for Micro threshold ....   0.100
   Minimum threshold for Micro iter.    ....   1.000e-02
   NR start threshold (gradient norm)   ....   1.000e-04
   Initial trust radius                 ....   0.400
   Minimum AH scaling param. (alpha)    ....   1.000
   Maximum AH scaling param. (alpha)    .... 1000.000
   Quad. conv. algorithm                .... NR
   White noise on init. David. guess    .... on
   Maximum white noise                  ....   0.010
   Pseudo random numbers                .... off
   Inactive MOs                         .... canonical
   Orbital update algorithm             .... Taylor
   Preconditioner                       .... Diag
   Full preconditioner red. dimension   ....   250
 SOSCF                  CNVSOSCF        .... on
   Start iteration      SOSCFMaxIt      ....   150
   Startup grad/error   SOSCFStart      ....  0.003300
   Hessian update       SOSCFHessUp     .... L-BFGS
 Level Shifting         CNVShift        .... on
   Level shift para.    LevelShift      ....    0.2500
   Turn off err/grad.   ShiftErr        ....    0.0010
 Zerner damping         CNVZerner       .... off
 Static damping         CNVDamp         .... on
   Fraction old density DampFac         ....    0.7000
   Max. Damping (<1)    DampMax         ....    0.9800
   Min. Damping (>=0)   DampMin         ....    0.0000
   Turn off err/grad.   DampErr         ....    0.1000

SCF Procedure:
 Maximum # iterations   MaxIter         ....   125
 SCF integral mode      SCFMode         .... Direct
   Integral package                     .... SHARK and LIBINT hybrid scheme
 Reset frequency        DirectResetFreq ....    20
 Integral Threshold     Thresh          ....  2.500e-11 Eh
 Primitive CutOff       TCut            ....  2.500e-12 Eh

Convergence Tolerance:
 Convergence Check Mode ConvCheckMode   .... Total+1el-Energy
 Convergence forced     ConvForced      .... 0
 Energy Change          TolE            ....  1.000e-08 Eh
 1-El. energy change                    ....  1.000e-05 Eh
 Orbital Gradient       TolG            ....  1.000e-05
 Orbital Rotation angle TolX            ....  1.000e-05
 DIIS Error             TolErr          ....  5.000e-07

---------------------
INITIAL GUESS: MOREAD
---------------------
Guess MOs are being read from file: input.ges
Input geometry compatible with but different from current geometry
Input basis set matches current basis set (good)
Occupation numbers will be reassigned to an Aufbau configuration
[ga00:889739] 24 more processes have sent help message help-mpi-btl-openib.txt / error in device init
[ga00:889739] Set MCA parameter "orte_base_help_aggregate" to 0 to see all help / error messages
MOs were renormalized
MOs were reorthogonalized (Cholesky)
                      ------------------
                      INITIAL GUESS DONE (   6.8 sec)
                      ------------------
             **** ENERGY FILE WAS UPDATED (input.en.tmp) ****
Finished Guess after   8.9 sec
Maximum memory used throughout the entire GUESS-calculation: 511.0 MB
--------------------------------------------------------------------------
WARNING: There was an error initializing an OpenFabrics device.

  Local host:   ga00
  Local device: mlx5_0
--------------------------------------------------------------------------


           ************************************************************
           *        Program running with 25 parallel MPI-processes    *
           *              working on a common directory               *
           ************************************************************

-------------------------------------------------------------------------------------------
                                      ORCA LEAN-SCF
                              memory conserving SCF solver
-------------------------------------------------------------------------------------------

--------------------
CPCM SOLVATION MODEL
--------------------
CPCM parameters:
  Epsilon                                         ...      80.1510
  Refrac                                          ...       1.3328
  Rsolv                                           ...       1.3000
  Surface type                                    ... GAUSSIAN VDW
  Discretization scheme                           ... Constant charge density
    Threshold for H atoms                         ...       5.0000 (charges/Ang^2)
    Threshold for non-H atoms                     ...       5.0000 (charges/Ang^2)
  Epsilon function type                           ...         CPCM
Solvent:                                          ... WATER
Radii:
  Scheme                                          ... Element-dependent radii
  Radius for N  used is    3.5149 Bohr (=   1.8600 Ang.)
  Radius for C  used is    3.8550 Bohr (=   2.0400 Ang.)
  Radius for O  used is    3.4469 Bohr (=   1.8240 Ang.)
  Radius for H  used is    2.4944 Bohr (=   1.3200 Ang.)
Calculating surface                               ...        done! (  0.0s)
Cavity surface points                             ...        11376
Cavity Volume                                     ...    8075.0802
Cavity Surface-area                               ...    3748.4249
Calculating surface distance matrix               ...        done! (  0.6s)
Performing Cholesky decomposition & store         ...        [ga00:890259] 24 more processes have sent help message help-mpi-btl-openib.txt / error in device init
[ga00:890259] Set MCA parameter "orte_base_help_aggregate" to 0 to see all help / error messages
done! ( 15.1s)
Overall time for CPCM initialization              ...                15.7s

----------------------------------------D-I-I-S--------------------------------------------
Iteration    Energy (Eh)           Delta-E    RMSDP     MaxDP     DIISErr   Damp  Time(sec)
-------------------------------------------------------------------------------------------
               ***  Starting incremental Fock matrix formation  ***
    1    -4185.2089855800804798     0.00e+00  2.31e-05  8.13e-03  6.63e-03  0.700  38.2
    2    -4185.2097762756493466    -7.91e-04  2.07e-05  7.61e-03  5.00e-03  0.700  19.0
                               ***Turning on AO-DIIS***
    3    -4185.2103462224295072    -5.70e-04  1.62e-05  6.41e-03  3.63e-03  0.700  17.0
                              *** Initializing SOSCF ***
---------------------------------------S-O-S-C-F--------------------------------------
Iteration    Energy (Eh)           Delta-E    RMSDP     MaxDP     MaxGrad    Time(sec)
--------------------------------------------------------------------------------------
    4    -4185.2107465921289986    -4.00e-04  3.97e-05  1.57e-02  2.59e-03    18.6
               *** Restarting incremental Fock matrix formation ***
