
                                 *****************
                                 * O   R   C   A *
                                 *****************

                                            #,                                       
                                            ###                                      
                                            ####                                     
                                            #####                                    
                                            ######                                   
                                           ########,                                 
                                     ,,################,,,,,                         
                               ,,#################################,,                 
                          ,,##########################################,,             
                       ,#########################################, ''#####,          
                    ,#############################################,,   '####,        
                  ,##################################################,,,,####,       
                ,###########''''           ''''###############################       
              ,#####''   ,,,,##########,,,,          '''####'''          '####       
            ,##' ,,,,###########################,,,                        '##       
           ' ,,###''''                  '''############,,,                           
         ,,##''                                '''############,,,,        ,,,,,,###''
      ,#''                                            '''#######################'''  
     '                                                          ''''####''''         
             ,#######,   #######,   ,#######,      ##                                
            ,#'     '#,  ##    ##  ,#'     '#,    #''#        ,####,   ,####,        
            ##       ##  ##   ,#'  ##            #'  '#       #'       #'  '#        
            ##       ##  #######   ##           ,######,      #####,   #    #        
            '#,     ,#'  ##    ##  '#,     ,#' ,#      #,     #,   #   #,  ,#        
             '#######'   ##     ##  '#######'  #'      '#     '####' # '####'        



                #########################################################
                #                        -***-                          #
                #          Department of theory and spectroscopy        #
                #                                                       #
                #                      Frank Neese                      #
                #                                                       #
                #     Directorship, Architecture, Infrastructure        #
                #                    SHARK, DRIVERS                     #
                #        Core code/Algorithms in most modules           #
                #                                                       #
                #        Max Planck Institute fuer Kohlenforschung      #
                #                Kaiser Wilhelm Platz 1                 #
                #                 D-45470 Muelheim/Ruhr                 #
                #                      Germany                          #
                #                                                       #
                #                  All rights reserved                  #
                #                        -***-                          #
                #########################################################


                         Program Version 6.0.1  -  RELEASE   -


 With contributions from (in alphabetic order):
[Max-Planck-Institut fuer Kohlenforschung]                               
  Daniel Aravena         : Magnetic Suceptibility                        
  Michael Atanasov       : Ab Initio Ligand Field Theory (pilot matlab implementation)
  Alexander A. Auer      : GIAO ZORA, VPT2 properties, NMR spectrum      
  Ute Becker             : All parallelization in ORCA, NUMFREQ, NUMCALC 
  Giovanni Bistoni       : ED, misc. LED, open-shell LED, HFLD           
  Martin Brehm           : Molecular dynamics                            
  Dmytro Bykov           : pre 5.0 version of the SCF Hessian            
  Marcos Casanova-Páez   : Triplet and SCS-CIS(D). UHF-(DLPNO)-IP/EA/STEOM-CCSD. UHF-CVS-IP/STEOM-CCSD   
  Vijay G. Chilkuri      : MRCI spin determinant printing, contributions to CSF-ICE 
  Pauline Colinet        : FMM embedding                                 
  Dipayan Datta          : RHF DLPNO-CCSD density                        
  Achintya Kumar Dutta   : EOM-CC, STEOM-CC                              
  Nicolas Foglia         : Exact transition moments, OPA infrastructure, MCD improvements    
  Dmitry Ganyushin       : Spin-Orbit,Spin-Spin,Magnetic field MRCI      
  Miquel Garcia-Rates    : C-PCM and meta-GGA Hessian, CCSD/C-PCM, Gaussian charge scheme 
  Tiago L. C. Gouveia    : GS-ROHF, GS-ROCIS                             
  Yang Guo               : DLPNO-NEVPT2, F12-NEVPT2, CIM, IAO-localization        
  Andreas Hansen         : Spin unrestricted coupled pair/coupled cluster methods 
  Ingolf Harden          : AUTO-CI MPn and infrastructure                
  Benjamin Helmich-Paris : MC-RPA, TRAH-(SCF,CASSCF), AVAS, COSX integrals, SCF dyn. polar. 
  Lee Huntington         : MR-EOM, pCC                                   
  Robert Izsak           : Overlap fitted RIJCOSX, COSX-SCS-MP3, EOM     
  Riya Kayal             : Wick's Theorem for AUTO-CI, AUTO-CI UHF-CCSDT 
  Emily Kempfer          : AUTO-CI, RHF CISDT and CCSDT                  
  Christian Kollmar      : KDIIS, OOCD, Brueckner-CCSD(T), CCSD density, CASPT2, CASPT2-K, improved NEVPT2 
  Axel Koslowski         : Symmetry handling                             
  Simone Kossmann        : meta-GGA functionals, TD-DFT gradient, OOMP2, (MP2 Hessian; deprecated post 5.0) 
  Lucas Lang             : DCDCAS                                        
  Marvin Lechner         : AUTO-CI (C++ implementation), FIC-MRCC        
  Spencer Leger          : CASSCF response                               
  Dagmar Lenk            : GEPOL surface, SMD, ORCA-2-JSON               
  Dimitrios Liakos       : Extrapolation schemes; Compound Job, initial MDCI parallelization 
  Dimitrios Manganas     : Further ROCIS development; embedding schemes. LFT, Crystal Embedding 
  Dimitrios Pantazis     : SARC Basis sets                               
  Anastasios Papadopoulos: AUTO-CI, single reference methods and gradients 
  Taras Petrenko         : pre 6.0 DFT Hessian and TD-DFT gradient, (ASA, deprecated), ECA, 1-Electron XAS/XES, NRVS 
  Peter Pinski           : DLPNO-MP2, DLPNO-MP2 Gradient                 
  Christoph Reimann      : Effective Core Potentials                     
  Marius Retegan         : Local ZFS, SOC                                
  Christoph Riplinger    : Optimizer, TS searches, QM/MM, DLPNO-CCSD(T), (RO)-DLPNO pert. Triples 
  Michael Roemelt        : Original ROCIS implementation                 
  Masaaki Saitow         : Open-shell DLPNO-CCSD energy and density      
  Barbara Sandhoefer     : DKH picture change effects                    
  Kantharuban Sivalingam : CASSCF convergence/infrastructure, NEVPT2 and variants, FIC-MRCI 
  Bernardo de Souza      : ESD, SOC TD-DFT                               
  Georgi L. Stoychev     : AutoAux, RI-MP2 NMR, DLPNO-MP2 response, X2C  
  Van Anh Tran           : RI-MP2 g-tensors                              
  Willem Van den Heuvel  : Paramagnetic NMR                              
  Zikuan Wang            : NOTCH, Electric field optimization            
  Frank Wennmohs         : Technical directorship and infrastructure     
  Hang Xu                : AUTO-CI-Response properties                   
                                                                         
[FACCTs GmbH]                                                            
  Markus Bursch, Miquel Garcia-Rates, Christoph Riplinger, Bernardo de Souza, Georgi L. Stoychev 
                                                                 
  APM, Basis sets (HGBS, AHGBS, def-TZVP (Ac-Lr), def2-XVPD (La-Lu)), CI-OPT, improved COSX, DLPNO-Multilevel,           
  DOCKER, DRACO, updates on ESD, GOAT, IRC, LR-CPCM, MBIS, meta-GGA TD-DFT gradient, ML-optimized integration grids, 
  MM, NACMEs, nearIR, NEB, NEB-TS, NL-DFT gradient (VV10), 2- and 3-layer-ONIOM, interface openCOSMO-RS, QMMM,   
  Crystal-QMMM, SF, symmetry and pop. for TD-DFT, r2SCAN hybrids, SOLVATOR                                   
                                                                         
[Other institutions]                                                     
  V. Asgeirsson          : NEB                                           
  Christoph Bannwarth    : sTDA-DFT, sTD-DFT, PBEh-3c, B97-3c, D3        
  Sebastian Ehlert       : rSCAN, r2SCAN, r2SCAN-3c, D4, dhf basis sets  
  Marvin Friede          : D4 for Fr, Ra, Ac-Lr                          
  Lars Goerigk           : TD-DFT with DH, B97 family of functionals     
  Stefan Grimme          : VdW corrections, initial TS optimization, DFT functionals, gCP, sTDA/sTD-DF 
  Waldemar Hujo          : DFT-NL                                        
  H. Jonsson             : NEB                                           
  Holger Kruse           : gCP                                           
  Marcel Mueller         : wB97X-3c, vDZP basis set                      
  Hagen Neugebauer       : wr2SCAN                                       
  Tobias Risthaus        : range-separated hybrid DFT                    
  Lukas Wittmann         : regularized MP2, r2SCAN double-hybrids, wr2SCAN        
                                                                         
We gratefully acknowledge several colleagues who have allowed us to      
interface, adapt or use parts of their codes:                            
  Ed Valeev, F. Pavosevic, A. Kumar             : LibInt (2-el integral package), F12 methods 
  Garnet Chan, S. Sharma, J. Yang, R. Olivares  : DMRG                   
  Ulf Ekstrom                                   : XCFun DFT Library      
  Mihaly Kallay                                 : mrcc  (arbitrary order and MRCC methods)
  Frank Weinhold                                : gennbo (NPA and NBO analysis)           
  Simon Mueller                                 : openCOSMO-RS                            
  Christopher J. Cramer and Donald G. Truhlar   : smd solvation model                     
  S Lehtola, MJT Oliveira, MAL Marques          : LibXC Library                           
  Liviu Ungur et al                             : ANISO software                          


 Your calculation uses the libint2 library for the computation of 2-el integrals
 For citations please refer to: http://libint.valeyev.net

 Your ORCA version has been built with support for libXC version: 6.2.2
 For citations please refer to: https://libxc.gitlab.io

 This ORCA versions uses:
   CBLAS   interface :  Fast vector & matrix operations
   LAPACKE interface :  Fast linear algebra routines
   SCALAPACK package :  Parallel linear algebra routines
   Shared memory     :  Shared parallel matrices
   BLAS/LAPACK       :  OpenBLAS 0.3.27  USE64BITINT DYNAMIC_ARCH NO_AFFINITY SkylakeX SINGLE_THREADED
        Core in use  :  SkylakeX
   Copyright (c) 2011-2014, The OpenBLAS Project


NOTE: MaxCore=5000 MB was set to SCF,MP2,MDCI,CIPSI,MRCI and CIS
      => If you want to overwrite this, your respective input block should be placed after the MaxCore statement
Your calculation utilizes the atom-pairwise dispersion correction
based on EEQ partial charges (D4)


Warning: RI is on but no J-basis has been assigned. Assigning Def2/J (nothing to worry about!)
================================================================================

----- Orbital basis set information -----
Your calculation utilizes the basis: def2-TZVP
   F. Weigend and R. Ahlrichs, Phys. Chem. Chem. Phys. 7, 3297 (2005).

----- AuxJ basis set information -----
Your calculation utilizes the auxiliary basis: def2/J
   F. Weigend, Phys. Chem. Chem. Phys. 8, 1057 (2006).

================================================================================
                                        WARNINGS
                       Please study these warnings very carefully!
================================================================================


================================================================================
                                       INPUT FILE
================================================================================
NAME = input.inp
|  1> ! SP B3LYP D4 def2-TZVP TightSCF CPCM(water)
|  2> 
|  3> %maxcore 5000
|  4> 
|  5> %pal
|  6> nprocs 28
|  7> end
|  8> 
|  9> %geom
| 10>     MaxIter 500
| 11> end
| 12> 
| 13> * xyz 0 1
| 14> C           -0.82118853761320       -0.64013299962060        1.03038304009105
| 15> C           -1.04306030369478       -0.27782672029097        2.48168170844387
| 16> O           -1.92507718494816       -0.91277388614481        3.13314433936830
| 17> O           -0.35573940712562        0.63042659294307        3.00222763686748
| 18> C            0.00103170485280        0.41289662189009        0.30325621865982
| 19> N            0.07070030490641        0.12712582845216       -1.13612974090562
| 20> H           -0.33338151663371       -1.61608751194560        1.00777605045807
| 21> H           -1.80564501356656       -0.75417938602150        0.57662499482028
| 22> H           -0.47309293248945        1.38428800506810        0.44529155535173
| 23> H            1.00411889846369        0.45347222259724        0.72591289615761
| 24> H           -0.87051457336815       -0.14662846485207       -1.47744876941002
| 25> H            0.73144519163098       -0.63852090727006       -1.35087251706897
| 26> H            0.38645850917710        1.00512376988166       -1.60378504386485
| 27> O           -1.47288249472856       -3.54326145316857        3.06885247472431
| 28> H           -1.69472521543526       -3.82702302217550        3.97179708244359
| 29> H           -1.73075601941560       -2.59617277124970        3.05025627063007
| 30> O            0.18137931308800        4.06496482731679        4.95699349107506
| 31> H           -0.19153737381800        4.79421869848287        4.41914257318893
| 32> H            0.84545466940576        3.64240356506359        4.37285329922797
| 33> O            1.19167455133282       -3.32176267740369        2.49130663635635
| 34> H            1.30662000567492       -4.07673588008052        1.88238964623757
| 35> H            0.26674479258603       -3.38564225316212        2.79240174805441
| 36> O           -1.51545386624218        3.46094724837130        0.00161652526475
| 37> H           -1.89301631548967        4.16640801321671       -0.56090487169795
| 38> H           -2.00895810641932        3.50843402872928        0.84643864603340
| 39> O           -4.71502921700131        1.93596935115444        1.04154481546272
| 40> H           -4.38885288735848        1.93247259945279        0.12255906225845
| 41> H           -4.67317934453495        1.00478949801639        1.32678886350902
| 42> O           -0.95096631597539       -2.89075840731522       -2.40207555692750
| 43> H           -1.21441412811020       -3.21480219138492       -1.53254652719113
| 44> H           -1.45820264425191       -3.36711502237928       -3.07138363516865
| 45> O            0.98112061191713        2.64675994811697       -1.67459458167683
| 46> H            1.44266170857422        2.62309621481579       -0.81630929900535
| 47> H            1.68987299720297        2.80413660197707       -2.32575255734066
| 48> O           -2.07539309351702        1.63701093262313       -3.81149967320685
| 49> H           -1.48088981683756        0.84621536521748       -3.76018601880862
| 50> H           -2.53121403662486        1.54252903226129       -4.65054591087940
| 51> O           -0.12473501186817        2.62094892744022        7.45864731274122
| 52> H            0.00460223950951        3.23964634565333        6.72144627176224
| 53> H            0.36962150817568        1.82015654098930        7.20067952358089
| 54> O           -2.92704862285164        3.60272088243318        2.28860499371928
| 55> H           -2.61607055950670        3.11758695814009        3.08201980193500
| 56> H           -3.69414888693381        3.09783988419501        1.95136104149702
| 57> O           -0.99029837699382        5.65261467861185        3.03978949974280
| 58> H           -0.39988998172094        5.53576472258718        2.27262505373276
| 59> H           -1.78621315998242        5.14458103648278        2.82283493346887
| 60> O           -2.02853684100524        0.55538288539986       -6.48408689867048
| 61> H           -2.30913738893570        1.05013086044526       -7.25367301582343
| 62> H           -1.12713585643558        0.89581163189600       -6.24638953426230
| 63> O            3.09319122232462        0.14282922290705       -1.18664275527499
| 64> H            3.08900701491295        0.96020293260878       -0.66166379490042
| 65> H            2.86698332002998       -0.55838336498030       -0.55220878090592
| 66> O           -0.47526700670192       -0.54446788594365       -3.88381932481767
| 67> H            0.45550580669120       -0.31353712564381       -3.68072879698007
| 68> H           -0.74338508342110       -1.25232702327834       -3.27637159081839
| 69> O            2.73928171513414        2.07727814651039        5.14496463001819
| 70> H            3.42030443337127        2.27976342055843        5.78937665328849
| 71> H            2.07698665084729        1.52643770089153        5.60471217339731
| 72> O            1.83504271177877       -0.82292726206039       -6.70675925342421
| 73> H            0.99407600146597       -1.32618822004245       -6.65069685670318
| 74> H            2.38717113338445       -1.21348226803104       -6.00403951601651
| 75> O            4.98543947257633       -1.06549888885786       -2.71142900218374
| 76> H            4.40227669951766       -1.36456174705445       -3.43451834482494
| 77> H            4.38810488504798       -0.57109970669493       -2.10384603585802
| 78> O            5.64664917834481       -3.29559483164819       -1.40530484779396
| 79> H            5.48048246528244       -2.45979976959486       -1.91658746009677
| 80> H            6.16734146435000       -3.03245134013269       -0.64280298359756
| 81> O           -2.55460974486265       -0.69058671433226       -1.81875018555720
| 82> H           -2.87520851302238       -0.83799205215502       -2.72977284372961
| 83> H           -2.93110201239481        0.17318588885544       -1.54788303441983
| 84> O            1.57386995891809       -2.04862328189896       -2.34145839929747
| 85> H            0.70118991722600       -2.47882917119466       -2.42722682431257
| 86> H            2.11452067775173       -2.65752265298937       -1.80898723722971
| 87> O            0.57201324555859        4.82161154935160        0.87937009734557
| 88> H           -0.12582634872328        4.26604636007757        0.44212569657618
| 89> H            1.19866768816301        5.07049614177164        0.19577399858375
| 90> O            3.07082814049157       -2.11532479884944        4.13266084108355
| 91> H            2.81329698965510       -1.20628189525630        3.81741387089570
| 92> H            2.42116724842337       -2.69995478566648        3.70229298075825
| 93> O           -3.35594080923068       -1.15044950524302       -4.41682205126048
| 94> H           -2.90509699411862       -0.62874625268494       -5.09796556688263
| 95> H           -3.06256869324832       -2.06714742393574       -4.54671896661477
| 96> O            4.16296018078268        4.05055895294394       -1.24409931916811
| 97> H            5.11107148619176        4.07988113641550       -1.38250182394910
| 98> H            3.77755482597436        3.75039127081158       -2.09077684106343
| 99> O            2.95188155385496        3.06875604844592       -3.55387984092765
|100> H            2.42903279069621        3.55011264936261       -4.22745291320067
|101> H            2.76963489098864        2.11576407225101       -3.72099750925371
|102> O            3.04089121817802       -3.72381296949207       -0.79594800879542
|103> H            2.96422355965136       -2.98501110532952       -0.13533099096648
|104> H            3.99007926016213       -3.75769932077348       -1.02060067964625
|105> O           -0.61407218615913       -1.85297652177987       -6.13162407218545
|106> H           -1.22051003799922       -1.28798346323328       -6.62736726935237
|107> H           -0.51740916843489       -1.35200459389050       -5.25801459287873
|108> O           -2.39767476360473        5.32144934477643       -1.79097967525146
|109> H           -2.20994245258325        6.26016781506969       -1.82870999269512
|110> H           -1.81594649532513        4.88399526045710       -2.46446889846492
|111> O            5.03753599456566       -1.74455906669004        2.25848713262436
|112> H            4.50762972051363       -2.00263326749401        3.03915788903199
|113> H            5.44379804730776       -0.90338494810148        2.48208858532332
|114> O            2.79064979687283       -1.75403384926903        6.80775771795074
|115> H            2.50893217565277       -2.59278940535336        7.18119241591215
|116> H            2.96518086255554       -1.92159776356700        5.85306296815148
|117> O            3.05708329709050       -2.01125314174670       -4.50059853162575
|118> H            3.26577147046512       -2.92285001477640       -4.70569227001419
|119> H            2.43096643497013       -2.04200782839115       -3.71098915526223
|120> O            1.28954713969329       -5.26073718645274        0.51171086641892
|121> H            1.95596930049522       -4.79587580550473       -0.04811012882081
|122> H            1.57162021595765       -6.17422249599031        0.58070937885464
|123> O           -3.22987325515923        1.83087649998318       -1.32685590540679
|124> H           -3.02029526226381        1.97045455421960       -2.26969965624463
|125> H           -2.51994381994643        2.31160957476070       -0.84940509778760
|126> O           -4.33558381872490       -0.74250975170934        1.71957237056631
|127> H           -4.22174978157231       -1.42218390053672        1.01603055310718
|128> H           -3.56480378862385       -0.84346736526097        2.30224400008809
|129> O            0.46822020307532        1.41057185537861       -5.89042639494713
|130> H            1.03454969855209        0.73880471862510       -6.31936778556672
|131> H            0.63414007393580        1.28184950158448       -4.94043588738448
|132> O           -1.23206707404047       -4.00385220195918        0.26505835948355
|133> H           -1.42482567177725       -3.92665465983249        1.21001747035912
|134> H           -0.40550402463755       -4.51524857876147        0.22611757023956
|135> O            2.68481587478569       -1.67176754472726        0.82173839969568
|136> H            3.52808855950975       -1.58875215262051        1.30209768263529
|137> H            2.05153745397439       -2.03178257740246        1.46310456715582
|138> O            1.03940742080339        0.33068039367061        6.40946245967785
|139> H            1.65760311642039       -0.37662386712773        6.67749873525719
|140> H            0.22568645471279       -0.12632396446636        6.11929832577900
|141> O            2.71967810352640        2.34700300911534        0.38949102865734
|142> H            3.31694476088664        3.05241360912244        0.09867880521031
|143> H            2.44753867938331        2.52555265033276        1.30670832040364
|144> O           -2.48694395554416        1.32218935892472        6.84085601726392
|145> H           -1.75720470310237        1.78220812179164        7.30320760254065
|146> H           -2.47607582719155        1.73707480246706        5.95118907553187
|147> O            1.11218080479939        4.05135794833914       -5.28558420727750
|148> H            0.40395175539372        4.14783652000945       -4.60829991655695
|149> H            0.89485895536712        3.21159833155768       -5.73229676695762
|150> O           -3.69356313036588       -2.51009712474476       -0.25641974986826
|151> H           -3.28697060295819       -1.86154840267890       -0.89373500476767
|152> H           -2.98123707897753       -3.12657683146510       -0.04291046334288
|153> O           -1.37007049387237       -0.90560362667315        5.79710125704735
|154> H           -1.60032911622182       -0.80434600423455        4.84717391509118
|155> H           -1.87136440314133       -0.19506143485851        6.26033511699631
|156> O           -1.82216776562746        2.36040028113989        4.42800022923679
|157> H           -1.13788541137101        3.01358740771319        4.71635387071175
|158> H           -1.29318542533886        1.64793070356352        4.00887006937311
|159> O            2.41274636936723        0.23907746738719        3.12395861036427
|160> H            2.66387476293296        0.96591136494132        3.71838537612219
|161> H            1.44472591316221        0.30156790428677        3.07998964317470
|162> O            2.01273468871376        0.53028356794757       -3.61370874628866
|163> H            2.33420901660940        0.35579920626406       -2.69872722510112
|164> H            2.53598645447030       -0.04193366390468       -4.18012032483813
|165> O           -2.13045888921811       -3.56888256598510        5.76726111913685
|166> H           -1.80839517527279       -2.65271462117101        5.89121656769401
|167> H           -3.04106370679339       -3.57040997118539        6.07480069590912
|168> O            1.33872264438403        2.96316354080557        2.68930466865215
|169> H            0.99191415183005        3.67530168201172        2.11100255902547
|170> H            0.66406550543515        2.26842705694023        2.70418029549203
|171> O           -2.12234897530338       -3.66063717198867       -4.84734536571948
|172> H           -2.38012498079404       -4.42097503884021       -5.36847667107874
|173> H           -1.48736034347979       -3.13261152017967       -5.39236000770855
|174> O           -0.74258994520560        3.89049242623796       -3.30740255733202
|175> H           -1.26666979697519        3.09663953352483       -3.56644351443904
|176> H           -0.17019312781178        3.54048798561061       -2.58800487403731
|177> *
|178> 
|179>                          ****END OF INPUT****
================================================================================

                       ****************************
                       * Single Point Calculation *
                       ****************************

---------------------------------
CARTESIAN COORDINATES (ANGSTROEM)
---------------------------------
  C     -0.821189   -0.640133    1.030383
  C     -1.043060   -0.277827    2.481682
  O     -1.925077   -0.912774    3.133144
  O     -0.355739    0.630427    3.002228
  C      0.001032    0.412897    0.303256
  N      0.070700    0.127126   -1.136130
  H     -0.333382   -1.616088    1.007776
  H     -1.805645   -0.754179    0.576625
  H     -0.473093    1.384288    0.445292
  H      1.004119    0.453472    0.725913
  H     -0.870515   -0.146628   -1.477449
  H      0.731445   -0.638521   -1.350873
  H      0.386459    1.005124   -1.603785
  O     -1.472882   -3.543261    3.068852
  H     -1.694725   -3.827023    3.971797
  H     -1.730756   -2.596173    3.050256
  O      0.181379    4.064965    4.956993
  H     -0.191537    4.794219    4.419143
  H      0.845455    3.642404    4.372853
  O      1.191675   -3.321763    2.491307
  H      1.306620   -4.076736    1.882390
  H      0.266745   -3.385642    2.792402
  O     -1.515454    3.460947    0.001617
  H     -1.893016    4.166408   -0.560905
  H     -2.008958    3.508434    0.846439
  O     -4.715029    1.935969    1.041545
  H     -4.388853    1.932473    0.122559
  H     -4.673179    1.004789    1.326789
  O     -0.950966   -2.890758   -2.402076
  H     -1.214414   -3.214802   -1.532547
  H     -1.458203   -3.367115   -3.071384
  O      0.981121    2.646760   -1.674595
  H      1.442662    2.623096   -0.816309
  H      1.689873    2.804137   -2.325753
  O     -2.075393    1.637011   -3.811500
  H     -1.480890    0.846215   -3.760186
  H     -2.531214    1.542529   -4.650546
  O     -0.124735    2.620949    7.458647
  H      0.004602    3.239646    6.721446
  H      0.369622    1.820157    7.200680
  O     -2.927049    3.602721    2.288605
  H     -2.616071    3.117587    3.082020
  H     -3.694149    3.097840    1.951361
  O     -0.990298    5.652615    3.039789
  H     -0.399890    5.535765    2.272625
  H     -1.786213    5.144581    2.822835
  O     -2.028537    0.555383   -6.484087
  H     -2.309137    1.050131   -7.253673
  H     -1.127136    0.895812   -6.246390
  O      3.093191    0.142829   -1.186643
  H      3.089007    0.960203   -0.661664
  H      2.866983   -0.558383   -0.552209
  O     -0.475267   -0.544468   -3.883819
  H      0.455506   -0.313537   -3.680729
  H     -0.743385   -1.252327   -3.276372
  O      2.739282    2.077278    5.144965
  H      3.420304    2.279763    5.789377
  H      2.076987    1.526438    5.604712
  O      1.835043   -0.822927   -6.706759
  H      0.994076   -1.326188   -6.650697
  H      2.387171   -1.213482   -6.004040
  O      4.985439   -1.065499   -2.711429
  H      4.402277   -1.364562   -3.434518
  H      4.388105   -0.571100   -2.103846
  O      5.646649   -3.295595   -1.405305
  H      5.480482   -2.459800   -1.916587
  H      6.167341   -3.032451   -0.642803
  O     -2.554610   -0.690587   -1.818750
  H     -2.875209   -0.837992   -2.729773
  H     -2.931102    0.173186   -1.547883
  O      1.573870   -2.048623   -2.341458
  H      0.701190   -2.478829   -2.427227
  H      2.114521   -2.657523   -1.808987
  O      0.572013    4.821612    0.879370
  H     -0.125826    4.266046    0.442126
  H      1.198668    5.070496    0.195774
  O      3.070828   -2.115325    4.132661
  H      2.813297   -1.206282    3.817414
  H      2.421167   -2.699955    3.702293
  O     -3.355941   -1.150450   -4.416822
  H     -2.905097   -0.628746   -5.097966
  H     -3.062569   -2.067147   -4.546719
  O      4.162960    4.050559   -1.244099
  H      5.111071    4.079881   -1.382502
  H      3.777555    3.750391   -2.090777
  O      2.951882    3.068756   -3.553880
  H      2.429033    3.550113   -4.227453
  H      2.769635    2.115764   -3.720998
  O      3.040891   -3.723813   -0.795948
  H      2.964224   -2.985011   -0.135331
  H      3.990079   -3.757699   -1.020601
  O     -0.614072   -1.852977   -6.131624
  H     -1.220510   -1.287983   -6.627367
  H     -0.517409   -1.352005   -5.258015
  O     -2.397675    5.321449   -1.790980
  H     -2.209942    6.260168   -1.828710
  H     -1.815946    4.883995   -2.464469
  O      5.037536   -1.744559    2.258487
  H      4.507630   -2.002633    3.039158
  H      5.443798   -0.903385    2.482089
  O      2.790650   -1.754034    6.807758
  H      2.508932   -2.592789    7.181192
  H      2.965181   -1.921598    5.853063
  O      3.057083   -2.011253   -4.500599
  H      3.265771   -2.922850   -4.705692
  H      2.430966   -2.042008   -3.710989
  O      1.289547   -5.260737    0.511711
  H      1.955969   -4.795876   -0.048110
  H      1.571620   -6.174222    0.580709
  O     -3.229873    1.830876   -1.326856
  H     -3.020295    1.970455   -2.269700
  H     -2.519944    2.311610   -0.849405
  O     -4.335584   -0.742510    1.719572
  H     -4.221750   -1.422184    1.016031
  H     -3.564804   -0.843467    2.302244
  O      0.468220    1.410572   -5.890426
  H      1.034550    0.738805   -6.319368
  H      0.634140    1.281850   -4.940436
  O     -1.232067   -4.003852    0.265058
  H     -1.424826   -3.926655    1.210017
  H     -0.405504   -4.515249    0.226118
  O      2.684816   -1.671768    0.821738
  H      3.528089   -1.588752    1.302098
  H      2.051537   -2.031783    1.463105
  O      1.039407    0.330680    6.409462
  H      1.657603   -0.376624    6.677499
  H      0.225686   -0.126324    6.119298
  O      2.719678    2.347003    0.389491
  H      3.316945    3.052414    0.098679
  H      2.447539    2.525553    1.306708
  O     -2.486944    1.322189    6.840856
  H     -1.757205    1.782208    7.303208
  H     -2.476076    1.737075    5.951189
  O      1.112181    4.051358   -5.285584
  H      0.403952    4.147837   -4.608300
  H      0.894859    3.211598   -5.732297
  O     -3.693563   -2.510097   -0.256420
  H     -3.286971   -1.861548   -0.893735
  H     -2.981237   -3.126577   -0.042910
  O     -1.370070   -0.905604    5.797101
  H     -1.600329   -0.804346    4.847174
  H     -1.871364   -0.195061    6.260335
  O     -1.822168    2.360400    4.428000
  H     -1.137885    3.013587    4.716354
  H     -1.293185    1.647931    4.008870
  O      2.412746    0.239077    3.123959
  H      2.663875    0.965911    3.718385
  H      1.444726    0.301568    3.079990
  O      2.012735    0.530284   -3.613709
  H      2.334209    0.355799   -2.698727
  H      2.535986   -0.041934   -4.180120
  O     -2.130459   -3.568883    5.767261
  H     -1.808395   -2.652715    5.891217
  H     -3.041064   -3.570410    6.074801
  O      1.338723    2.963164    2.689305
  H      0.991914    3.675302    2.111003
  H      0.664066    2.268427    2.704180
  O     -2.122349   -3.660637   -4.847345
  H     -2.380125   -4.420975   -5.368477
  H     -1.487360   -3.132612   -5.392360
  O     -0.742590    3.890492   -3.307403
  H     -1.266670    3.096640   -3.566444
  H     -0.170193    3.540488   -2.588005

----------------------------
CARTESIAN COORDINATES (A.U.)
----------------------------
  NO LB      ZA    FRAG     MASS         X           Y           Z
   0 C     6.0000    0    12.011   -1.551821   -1.209676    1.947142
   1 C     6.0000    0    12.011   -1.971098   -0.525016    4.689699
   2 O     8.0000    0    15.999   -3.637869   -1.724893    5.920785
   3 O     8.0000    0    15.999   -0.672250    1.191334    5.673388
   4 C     6.0000    0    12.011    0.001950    0.780262    0.573071
   5 N     7.0000    0    14.007    0.133604    0.240233   -2.146974
   6 H     1.0000    0     1.008   -0.630000   -3.053963    1.904421
   7 H     1.0000    0     1.008   -3.412175   -1.425192    1.089663
   8 H     1.0000    0     1.008   -0.894016    2.615925    0.841479
   9 H     1.0000    0     1.008    1.897510    0.856938    1.371777
  10 H     1.0000    0     1.008   -1.645034   -0.277088   -2.791974
  11 H     1.0000    0     1.008    1.382231   -1.206630   -2.552779
  12 H     1.0000    0     1.008    0.730301    1.899409   -3.030715
  13 O     8.0000    0    15.999   -2.783345   -6.695794    5.799291
  14 H     1.0000    0     1.008   -3.202567   -7.232025    7.505609
  15 H     1.0000    0     1.008   -3.270655   -4.906056    5.764149
  16 O     8.0000    0    15.999    0.342757    7.681670    9.367360
  17 H     1.0000    0     1.008   -0.361953    9.059760    8.350969
  18 H     1.0000    0     1.008    1.597678    6.883145    8.263495
  19 O     8.0000    0    15.999    2.251939   -6.277222    4.707887
  20 H     1.0000    0     1.008    2.469154   -7.703914    3.557201
  21 H     1.0000    0     1.008    0.504075   -6.397937    5.276875
  22 O     8.0000    0    15.999   -2.863793    6.540242    0.003055
  23 H     1.0000    0     1.008   -3.577282    7.873370   -1.059957
  24 H     1.0000    0     1.008   -3.796381    6.629979    1.599537
  25 O     8.0000    0    15.999   -8.910114    3.658452    1.968234
  26 H     1.0000    0     1.008   -8.293730    3.651844    0.231603
  27 H     1.0000    0     1.008   -8.831029    1.898777    2.507268
  28 O     8.0000    0    15.999   -1.797066   -5.462742   -4.539265
  29 H     1.0000    0     1.008   -2.294910   -6.075096   -2.896093
  30 H     1.0000    0     1.008   -2.755604   -6.362925   -5.804074
  31 O     8.0000    0    15.999    1.854049    5.001651   -3.164525
  32 H     1.0000    0     1.008    2.726236    4.956933   -1.542601
  33 H     1.0000    0     1.008    3.193397    5.299050   -4.395035
  34 O     8.0000    0    15.999   -3.921925    3.093502   -7.202691
  35 H     1.0000    0     1.008   -2.798476    1.599115   -7.105722
  36 H     1.0000    0     1.008   -4.783301    2.914957   -8.788258
  37 O     8.0000    0    15.999   -0.235715    4.952876   14.094801
  38 H     1.0000    0     1.008    0.008697    6.122044   12.701693
  39 H     1.0000    0     1.008    0.698483    3.439597   13.607312
  40 O     8.0000    0    15.999   -5.531320    6.808156    4.324837
  41 H     1.0000    0     1.008   -4.943657    5.891386    5.824173
  42 H     1.0000    0     1.008   -6.980930    5.854069    3.687538
  43 O     8.0000    0    15.999   -1.871393   10.681894    5.744370
  44 H     1.0000    0     1.008   -0.755683   10.461079    4.294639
  45 H     1.0000    0     1.008   -3.375454    9.721849    5.334385
  46 O     8.0000    0    15.999   -3.833379    1.049522  -12.253148
  47 H     1.0000    0     1.008   -4.363637    1.984460  -13.707455
  48 H     1.0000    0     1.008   -2.129978    1.692839  -11.803966
  49 O     8.0000    0    15.999    5.845284    0.269908   -2.242430
  50 H     1.0000    0     1.008    5.837377    1.814521   -1.250363
  51 H     1.0000    0     1.008    5.417813   -1.055192   -1.043523
  52 O     8.0000    0    15.999   -0.898124   -1.028895   -7.339355
  53 H     1.0000    0     1.008    0.860781   -0.592499   -6.955569
  54 H     1.0000    0     1.008   -1.404794   -2.366555   -6.191445
  55 O     8.0000    0    15.999    5.176492    3.925487    9.722574
  56 H     1.0000    0     1.008    6.463439    4.308129   10.940336
  57 H     1.0000    0     1.008    3.924936    2.884549   10.591371
  58 O     8.0000    0    15.999    3.467728   -1.555107  -12.673938
  59 H     1.0000    0     1.008    1.878531   -2.506133  -12.567996
  60 H     1.0000    0     1.008    4.511100   -2.293149  -11.345990
  61 O     8.0000    0    15.999    9.421115   -2.013501   -5.123858
  62 H     1.0000    0     1.008    8.319097   -2.578648   -6.490299
  63 H     1.0000    0     1.008    8.292316   -1.079222   -3.975693
  64 O     8.0000    0    15.999   10.670621   -6.227772   -2.655641
  65 H     1.0000    0     1.008   10.356611   -4.648348   -3.621825
  66 H     1.0000    0     1.008   11.654586   -5.730503   -1.214722
  67 O     8.0000    0    15.999   -4.827513   -1.305020   -3.436940
  68 H     1.0000    0     1.008   -5.433357   -1.583575   -5.158523
  69 H     1.0000    0     1.008   -5.538980    0.327274   -2.925075
  70 O     8.0000    0    15.999    2.974183   -3.871337   -4.424715
  71 H     1.0000    0     1.008    1.325057   -4.684308   -4.586794
  72 H     1.0000    0     1.008    3.995865   -5.021990   -3.418490
  73 O     8.0000    0    15.999    1.080948    9.111525    1.661769
  74 H     1.0000    0     1.008   -0.237777    8.061659    0.835496
  75 H     1.0000    0     1.008    2.265154    9.581849    0.369959
  76 O     8.0000    0    15.999    5.803024   -3.997385    7.809597
  77 H     1.0000    0     1.008    5.316361   -2.279542    7.213867
  78 H     1.0000    0     1.008    4.575343   -5.102175    6.996320
  79 O     8.0000    0    15.999   -6.341809   -2.174034   -8.346584
  80 H     1.0000    0     1.008   -5.489838   -1.188158   -9.633759
  81 H     1.0000    0     1.008   -5.787416   -3.906343   -8.592054
  82 O     8.0000    0    15.999    7.866855    7.654447   -2.351007
  83 H     1.0000    0     1.008    9.658525    7.709858   -2.612550
  84 H     1.0000    0     1.008    7.138544    7.087212   -3.950996
  85 O     8.0000    0    15.999    5.578248    5.799109   -6.715860
  86 H     1.0000    0     1.008    4.590207    6.708741   -7.988728
  87 H     1.0000    0     1.008    5.233851    3.998215   -7.031666
  88 O     8.0000    0    15.999    5.746452   -7.036987   -1.504124
  89 H     1.0000    0     1.008    5.601571   -5.640853   -0.255739
  90 H     1.0000    0     1.008    7.540157   -7.101023   -1.928656
  91 O     8.0000    0    15.999   -1.160428   -3.501618  -11.587090
  92 H     1.0000    0     1.008   -2.306430   -2.433936  -12.523909
  93 H     1.0000    0     1.008   -0.977762   -2.554918   -9.936208
  94 O     8.0000    0    15.999   -4.530949   10.056082   -3.384461
  95 H     1.0000    0     1.008   -4.176186   11.830003   -3.455761
  96 H     1.0000    0     1.008   -3.431642    9.229413   -4.657171
  97 O     8.0000    0    15.999    9.519563   -3.296739    4.267922
  98 H     1.0000    0     1.008    8.518186   -3.784428    5.743176
  99 H     1.0000    0     1.008   10.287287   -1.707150    4.690468
 100 O     8.0000    0    15.999    5.273564   -3.314644   12.864798
 101 H     1.0000    0     1.008    4.741195   -4.899662   13.570487
 102 H     1.0000    0     1.008    5.603380   -3.631294   11.060686
 103 O     8.0000    0    15.999    5.777050   -3.800718   -8.504899
 104 H     1.0000    0     1.008    6.171414   -5.523386   -8.892470
 105 H     1.0000    0     1.008    4.593861   -3.858836   -7.012753
 106 O     8.0000    0    15.999    2.436891   -9.941353    0.966993
 107 H     1.0000    0     1.008    3.696246   -9.062892   -0.090915
 108 H     1.0000    0     1.008    2.969932  -11.667590    1.097382
 109 O     8.0000    0    15.999   -6.103576    3.459855   -2.507394
 110 H     1.0000    0     1.008   -5.707531    3.723619   -4.289111
 111 H     1.0000    0     1.008   -4.762004    4.368309   -1.605143
 112 O     8.0000    0    15.999   -8.193066   -1.403140    3.249521
 113 H     1.0000    0     1.008   -7.977951   -2.687538    1.920019
 114 H     1.0000    0     1.008   -6.736503   -1.593922    4.350611
 115 O     8.0000    0    15.999    0.884808    2.665594  -11.131293
 116 H     1.0000    0     1.008    1.955016    1.396139  -11.941874
 117 H     1.0000    0     1.008    1.198351    2.422345   -9.336071
 118 O     8.0000    0    15.999   -2.328269   -7.566184    0.500888
 119 H     1.0000    0     1.008   -2.692530   -7.420302    2.286602
 120 H     1.0000    0     1.008   -0.766292   -8.532583    0.427300
 121 O     8.0000    0    15.999    5.073567   -3.159183    1.552861
 122 H     1.0000    0     1.008    6.667121   -3.002306    2.460608
 123 H     1.0000    0     1.008    3.876844   -3.839513    2.764867
 124 O     8.0000    0    15.999    1.964195    0.624895   12.112129
 125 H     1.0000    0     1.008    3.132416   -0.711716   12.618644
 126 H     1.0000    0     1.008    0.426486   -0.238718   11.563798
 127 O     8.0000    0    15.999    5.139447    4.435193    0.736031
 128 H     1.0000    0     1.008    6.268117    5.768226    0.186476
 129 H     1.0000    0     1.008    4.625178    4.772603    2.469321
 130 O     8.0000    0    15.999   -4.699643    2.498576   12.927344
 131 H     1.0000    0     1.008   -3.320636    3.367885   13.801062
 132 H     1.0000    0     1.008   -4.679105    3.282596   11.246118
 133 O     8.0000    0    15.999    2.101717    7.655957   -9.988307
 134 H     1.0000    0     1.008    0.763358    7.838275   -8.708425
 135 H     1.0000    0     1.008    1.691038    6.069041  -10.832471
 136 O     8.0000    0    15.999   -6.979823   -4.743396   -0.484563
 137 H     1.0000    0     1.008   -6.211474   -3.517817   -1.688914
 138 H     1.0000    0     1.008   -5.633722   -5.908374   -0.081089
 139 O     8.0000    0    15.999   -2.589058   -1.711343   10.954934
 140 H     1.0000    0     1.008   -3.024184   -1.519994    9.159831
 141 H     1.0000    0     1.008   -3.536366   -0.368613   11.830319
 142 O     8.0000    0    15.999   -3.443398    4.460510    8.367708
 143 H     1.0000    0     1.008   -2.150292    5.694855    8.912617
 144 H     1.0000    0     1.008   -2.443766    3.114138    7.575667
 145 O     8.0000    0    15.999    4.559430    0.451791    5.903426
 146 H     1.0000    0     1.008    5.033994    1.825308    7.026730
 147 H     1.0000    0     1.008    2.730136    0.569881    5.820337
 148 O     8.0000    0    15.999    3.803517    1.002091   -6.828920
 149 H     1.0000    0     1.008    4.411016    0.672363   -5.099855
 150 H     1.0000    0     1.008    4.792320   -0.079243   -7.899283
 151 O     8.0000    0    15.999   -4.025984   -6.744211   10.898544
 152 H     1.0000    0     1.008   -3.417372   -5.012904   11.132786
 153 H     1.0000    0     1.008   -5.746778   -6.747097   11.479710
 154 O     8.0000    0    15.999    2.529819    5.599568    5.082049
 155 H     1.0000    0     1.008    1.874446    6.945314    3.989217
 156 H     1.0000    0     1.008    1.254902    4.286706    5.110160
 157 O     8.0000    0    15.999   -4.010658   -6.917602   -9.160155
 158 H     1.0000    0     1.008   -4.497784   -8.354432  -10.144951
 159 H     1.0000    0     1.008   -2.810704   -5.919778  -10.190084
 160 O     8.0000    0    15.999   -1.403292    7.351965   -6.250085
 161 H     1.0000    0     1.008   -2.393659    5.851801   -6.739602
 162 H     1.0000    0     1.008   -0.321618    6.690553   -4.890620

--------------------------------
INTERNAL COORDINATES (ANGSTROEM)
--------------------------------
 C      0   0   0     0.000000000000     0.00000000     0.00000000
 C      1   0   0     1.512203936441     0.00000000     0.00000000
 O      2   1   0     1.267089279306   118.39231225     0.00000000
 O      2   1   3     1.252318713211   119.48274977   179.87766815
 C      1   2   3     1.521062433086   111.85318917   165.92301305
 N      5   1   2     1.469132601507   111.05905208   186.77619708
 H      1   2   3     1.091308377969   107.44123693   288.68413998
 H      1   2   3     1.089980502094   106.98279814    43.92425276
 H      5   1   2     1.090215312641   108.63156260   306.34550250
 H      5   1   2     1.089251561574   109.76079722    64.78955291
 H      6   5   1     1.037942936489   109.29817963    43.92971521
 H      6   5   1     1.033882579972   112.20097803   283.63654176
 H      6   5   1     1.043688225048   106.84104967   163.41510263
 O      3   2   1     2.669846123279   111.31161300    56.12254566
 H     14   3   2     0.972133625272   103.09550522   140.51582465
 H     14   3   2     0.981744134161     6.00598264   238.36233111
 O      4   2   1     3.988189933761   154.45209071   124.55299589
 H     17   4   2     0.979878397483   108.70062623   297.17231873
 H     17   4   2     0.980190727847    55.10272141   202.14096822
 O      7   1   2     2.726900581209   142.94901172   337.07406155
 H     20   7   1     0.976717408000   102.13058054   179.93745953
 H     20   7   1     0.974799428140    71.23898697    78.34708027
 O      9   5   1     2.365560707598   161.69292987   238.41286747
 H     23   9   5     0.978089267838   155.66355757     0.96949329
 H     23   9   5     0.979553901080    95.90016531   152.46890954
 O     25  23   9     3.135846366628   117.65254171   277.78414886
 H     26  25  23     0.975160520060    69.78898409   351.05256538
 H     26  25  23     0.974787924454   117.39830454    87.87677357
 O     11   6   5     2.896835570102   112.33301189   244.91780489
 H     29  11   6     0.964619021825    92.18265221    91.57231141
 H     29  11   6     0.965493459863   134.68688972   210.38993123
 O     13   6   5     1.747457109279   155.70148184     6.94712456
 H     32  13   6     0.974799355061    95.89121175    26.83241507
 H     32  13   6     0.975245642953   115.21183675   135.72654897
 O     11   6   5     3.175042577676   115.95684853   121.89084386
 H     35  11   6     0.990668898542    44.41943717    86.53264699
 H     35  11   6     0.959530171815   140.15449173   135.12549026
 O     17   4   2     2.904678939659    88.84356078    84.38476149
 H     38  17   4     0.971071570338    10.06720413   177.91541247
 H     38  17   4     0.975809507718    97.29037283    39.47514339
 O     25  23   9     1.712198581223   177.78086495   231.60560936
 H     41  25  23     0.980596419674   118.96117535   153.10856720
 H     41  25  23     0.978305228877    95.83532184    41.43242908
 O     18  17   4     1.810380540141   159.88471947   358.24606529
 H     44  18  17     0.975078085413   105.99053390   296.29255845
 H     44  18  17     0.968838380300   106.52573438    47.72540654
 O     37  35  11     2.142198504380   133.02713862   301.19466238
 H     47  37  35     0.956961346150   112.41308786   218.15193175
 H     47  37  35     0.992429092415    81.37661572   322.36574038
 O     12   6   5     2.493055104502   111.07867831   284.51167524
 H     50  12   6     0.971452622488   107.17076276    18.73310812
 H     50  12   6     0.972304261179    66.20650595   117.55521729
 O     36  35  11     1.720628471135   172.83120008   168.66176246
 H     53  36  35     0.980261602177   110.46602884   112.93906349
 H     53  36  35     0.970538309863   112.52319920   233.37473638
 O     19  17   4     2.575335776567   125.55867396   265.24430453
 H     56  19  17     0.959197104195   126.52939259   303.04972784
 H     56  19  17     0.976436251043    89.15324944    53.10584873
 O     54  53  36     3.364440623180    99.63233002   246.51192242
 H     59  54  53     0.981651461574    71.03341890   338.58334607
 H     59  54  53     0.975291769665    69.18863447   224.97613586
 O     50  12   6     2.713970037606   118.94393720   208.44751176
 H     62  50  12     0.975897336033    97.82147940    26.36037216
 H     62  50  12     0.985086910760     6.89950603   188.62211712
 O     62  50  12     2.667674360887   105.66018650   278.57097848
 H     65  62  50     0.993767916531     4.84596105   214.55867666
 H     65  62  50     0.960090645062   107.10643369   287.02838323
 O     11   6   5     1.802374483977   171.55943508   336.43315106
 H     68  11   6     0.976971948148   121.92007254   193.77754956
 H     68  11   6     0.980417539161    92.32690675    84.06879473
 O     12   6   5     1.918157601852   158.80412328   161.52322009
 H     71  12   6     0.976731173395    88.66737060   304.53314753
 H     71  12   6     0.972927120767   114.92914478   197.92678809
 O     45  44  18     1.842761517814   163.87257904    66.83660708
 H     74  45  44     0.993385848945   100.31299458    47.67554372
 H     74  45  44     0.960178606834   141.44791000   182.21593322
 O     20   7   1     2.771417361538   115.41172509   324.12129046
 H     77  20   7     0.996023065213    91.97912411   358.73672829
 H     77  20   7     0.974201206820    12.82917961   154.14683347
 O     69  68  11     1.781815991970   176.28186156    38.09985565
 H     80  69  68     0.969221810644   116.45570543   293.43890668
 H     80  69  68     0.971223702959   102.16042892    48.26017540
 O     34  32  13     2.973163739558   115.41994680   234.08610224
 H     83  34  32     0.958608413909   141.53537146   149.48974923
 H     83  34  32     0.977497187205    39.48303715   182.93478448
 O     34  32  13     1.780726164575   178.21356914    52.84111097
 H     86  34  32     0.979170919745    99.73287632    53.21131717
 H     86  34  32     0.984548560450    80.91155844   309.32759281
 O     73  71  12     1.738213420609   177.48081355    21.66210309
 H     89  73  71     0.994042739825    83.70121351   322.54702283
 H     89  73  71     0.975999511460   113.91956892   219.22907542
 O     60  59  54     1.770051712193   161.37870843    20.29750539
 H     92  60  59     0.965787420651   104.23222296    85.50054051
 H     92  60  59     1.011686776558    91.09151030   342.48643168
 O     24  23   9     1.761216809255   170.16670145   336.98275415
 H     95  24  23     0.958049771111   127.87526624   248.77977838
 H     95  24  23     0.991645898387    90.97079189     1.19447199
 O     77  20   7     2.741885136343    98.07085881   277.42352640
 H     98  77  20     0.978186987396    14.12648398   238.39231374
 H     98  77  20     0.960531292010   105.22909467   143.60585411
 O     77  20   7     2.713885471995   124.87095483   101.67098663
 H    101  77  20     0.960379703352   107.29549290    48.52825070
 H    101  77  20     0.984876044768     4.83234030   127.10795772
 O     61  59  54     1.829085965059   166.96822244    32.92172409
 H    104  61  59     0.957404331591   108.60512083   100.65444209
 H    104  61  59     1.008192016941   115.44254164   341.94125461
 O     21  20   7     1.811328488621   167.40109083   358.39443951
 H    107  21  20     0.986718879223    96.60440791    78.49618422
 H    107  21  20     0.958530868471   124.45094651   194.26630868
 O     70  68  11     1.698839430165   164.40066630    43.80646678
 H    110  70  68     0.975888982838    88.63017572    41.81653901
 H    110  70  68     0.981357919346   114.46094858   296.86836266
 O     28  26  25     1.822444591903   170.71420953   326.75822358
 H    113  28  26     0.984828018241   121.94687026   299.30133367
 H    113  28  26     0.971493964153   112.07820988    65.45790584
 O     49  47  37     1.713723665253   176.68664428   155.34619291
 H    116  49  47     0.977747871415   103.98763203   356.35272628
 H    116  49  47     0.972923847160   108.77389620   246.20308796
 O     30  29  11     1.963235817288   164.33198866   258.87967209
 H    119  30  29     0.967503518722   149.77105623   124.04058357
 H    119  30  29     0.972753367464    99.61339570   341.38513993
 O     90  89  73     1.648835686892   172.21441647    11.58675278
 H    122  90  89     0.974035634274   101.97185973   206.30501800
 H    122  90  89     0.970568360694   101.46117577    97.32447077
 O     58  56  19     1.775958676225   171.67487559   153.92320872
 H    125  58  56     0.976877003747   104.01126109    21.00635460
 H    125  58  56     0.977338231429   131.81541096   254.40009384
 O     33  32  13     1.777906848348   160.22019807    85.65114748
 H    128  33  32     0.968970238915    97.24634232    71.09408460
 H    128  33  32     0.973256081836   114.19434397   185.46135196
 O     38  17   4     2.765587387005    97.53237323   309.18889972
 H    131  38  17     0.978726533385    15.61233379   214.12433780
 H    131  38  17     0.981710402659    89.68596470     1.43524178
 O     87  86  34     1.762097567676   162.16981592   320.88259300
 H    134  87  86     0.984688027586    98.76285573    52.08549891
 H    134  87  86     0.975693143972   101.33575540   305.97001103
 O    114 113  28     1.755467486301   168.60811847    81.41439933
 H    137 114 113     0.996044006239   100.55002727   309.90898263
 H    137 114 113     0.965940913160   117.20557496    62.76924496
 O    127 125  58     1.804862316629   172.31685706   228.81113541
 H    140 127 125     0.982666827701   109.58775686   143.82028723
 H    140 127 125     0.985267171290    93.12622549    36.55221322
 O     42  41  25     1.736455188202   171.07477112    45.80152471
 H    143  42  41     0.988960861318   104.73492436    35.14944957
 H    143  42  41     0.981379287644   103.41263419   287.19028056
 O     78  77  20     1.652387571048   173.63078314   306.82917558
 H    146  78  77     0.971954816099   109.56166214   211.24072246
 H    146  78  77     0.971031373546   108.47858032    98.65334535
 O     88  86  34     1.760158295265   160.24425371     5.92013424
 H    149  88  86     0.985384047000    94.34768233   290.48531509
 H    149  88  86     0.960232808808   105.45582762   183.25806841
 O     15  14   3     1.865527120320   155.07423585   350.23904441
 H    152  15  14     0.979006482191   100.05030128   339.57507505
 H    152  15  14     0.961136857081   121.93986922    95.47407680
 O    130 128  33     1.825527034344   158.06004916     3.97912002
 H    155 130 128     0.980739615121    86.69001644   316.38593486
 H    155 130 128     0.968525849641   105.23507909    62.56614677
 O     82  80  69     1.874459636002   167.25051144   280.64772682
 H    158  82  80     0.957152014155   128.86861266   221.25149269
 H    158  82  80     0.989475927699    87.51154781   331.53082244
 O     97  95  24     1.688099321289   166.35072596     1.34604678
 H    161  97  95     0.985882510119   105.49173770    80.44850285
 H    161  97  95     0.983704351800   102.36906494   333.64083097

---------------------------
INTERNAL COORDINATES (A.U.)
---------------------------
 C      0   0   0     0.000000000000     0.00000000     0.00000000
 C      1   0   0     2.857651298512     0.00000000     0.00000000
 O      2   1   0     2.394451725116   118.39231225     0.00000000
 O      2   1   3     2.366539400354   119.48274977   179.87766815
 C      1   2   3     2.874391431128   111.85318917   165.92301305
 N      5   1   2     2.776258271263   111.05905208   186.77619708
 H      1   2   3     2.062273962015   107.44123693   288.68413998
 H      1   2   3     2.059764640272   106.98279814    43.92425276
 H      5   1   2     2.060208367899   108.63156260   306.34550250
 H      5   1   2     2.058387142322   109.76079722    64.78955291
 H      6   5   1     1.961427892602   109.29817963    43.92971521
 H      6   5   1     1.953754930779   112.20097803   283.63654176
 H      6   5   1     1.972284914540   106.84104967   163.41510263
 O      3   2   1     5.045277992709   111.31161300    56.12254566
 H     14   3   2     1.837066317341   103.09550522   140.51582465
 H     14   3   2     1.855227547148     6.00598264   238.36233111
 O      4   2   1     7.536586744870   154.45209071   124.55299589
 H     17   4   2     1.851701815789   108.70062623   297.17231873
 H     17   4   2     1.852292034639    55.10272141   202.14096822
 O      7   1   2     5.153095292916   142.94901172   337.07406155
 H     20   7   1     1.845728411353   102.13058054   179.93745953
 H     20   7   1     1.842103954688    71.23898697    78.34708027
 O      9   5   1     4.470261890526   161.69292987   238.41286747
 H     23   9   5     1.848320850740   155.66355757     0.96949329
 H     23   9   5     1.851088606456    95.90016531   152.46890954
 O     25  23   9     5.925890830980   117.65254171   277.78414886
 H     26  25  23     1.842786319526    69.78898409   351.05256538
 H     26  25  23     1.842082215872   117.39830454    87.87677357
 O     11   6   5     5.474225882494   112.33301189   244.91780489
 H     29  11   6     1.822865774821    92.18265221    91.57231141
 H     29  11   6     1.824518223233   134.68688972   210.38993123
 O     13   6   5     3.302215367312   155.70148184     6.94712456
 H     32  13   6     1.842103816589    95.89121175    26.83241507
 H     32  13   6     1.842947178481   115.21183675   135.72654897
 O     11   6   5     5.999960935347   115.95684853   121.89084386
 H     35  11   6     1.872092907638    44.41943717    86.53264699
 H     35  11   6     1.813249241966   140.15449173   135.12549026
 O     17   4   2     5.489047702924    88.84356078    84.38476149
 H     38  17   4     1.835059324375    10.06720413   177.91541247
 H     38  17   4     1.844012728463    97.29037283    39.47514339
 O     25  23   9     3.235586405400   177.78086495   231.60560936
 H     41  25  23     1.853058681088   118.96117535   153.10856720
 H     41  25  23     1.848728957960    95.83532184    41.43242908
 O     18  17   4     3.421123419047   159.88471947   358.24606529
 H     44  18  17     1.842630540620   105.99053390   296.29255845
 H     44  18  17     1.830839206798   106.52573438    47.72540654
 O     37  35  11     4.048168497775   133.02713862   301.19466238
 H     47  37  35     1.808394864972   112.41308786   218.15193175
 H     47  37  35     1.875419191999    81.37661572   322.36574038
 O     12   6   5     4.711191384283   111.07867831   284.51167524
 H     50  12   6     1.835779408582   107.17076276    18.73310812
 H     50  12   6     1.837388772472    66.20650595   117.55521729
 O     36  35  11     3.251516588673   172.83120008   168.66176246
 H     53  36  35     1.852425967713   110.46602884   112.93906349
 H     53  36  35     1.834051608121   112.52319920   233.37473638
 O     19  17   4     4.866679320602   125.55867396   265.24430453
 H     56  19  17     1.812619835380   126.52939259   303.04972784
 H     56  19  17     1.845197101705    89.15324944    53.10584873
 O     54  53  36     6.357871371650    99.63233002   246.51192242
 H     59  54  53     1.855052421338    71.03341890   338.58334607
 H     59  54  53     1.843034345334    69.18863447   224.97613586
 O     50  12   6     5.128660106744   118.94393720   208.44751176
 H     62  50  12     1.844178699925    97.82147940    26.36037216
 H     62  50  12     1.861544479446     6.89950603   188.62211712
 O     62  50  12     5.041173956559   105.66018650   278.57097848
 H     65  62  50     1.877949202921     4.84596105   214.55867666
 H     65  62  50     1.814308382907   107.10643369   287.02838323
 O     11   6   5     3.405994165485   171.55943508   336.43315106
 H     68  11   6     1.846209422523   121.92007254   193.77754956
 H     68  11   6     1.852720645907    92.32690675    84.06879473
 O     12   6   5     3.624792549200   158.80412328   161.52322009
 H     71  12   6     1.845754424180    88.66737060   304.53314753
 H     71  12   6     1.838565806514   114.92914478   197.92678809
 O     45  44  18     3.482314598798   163.87257904    66.83660708
 H     74  45  44     1.877227199819   100.31299458    47.67554372
 H     74  45  44     1.814474606567   141.44791000   182.21593322
 O     20   7   1     5.237219816101   115.41172509   324.12129046
 H     77  20   7     1.882210816322    91.97912411   358.73672829
 H     77  20   7     1.840973480225    12.82917961   154.14683347
 O     69  68  11     3.367144245864   176.28186156    38.09985565
 H     80  69  68     1.831563785141   116.45570543   293.43890668
 H     80  69  68     1.835346813366   102.16042892    48.26017540
 O     34  32  13     5.618465219071   115.41994680   234.08610224
 H     83  34  32     1.811507371961   141.53537146   149.48974923
 H     83  34  32     1.847201980497    39.48303715   182.93478448
 O     34  32  13     3.365084770555   178.21356914    52.84111097
 H     86  34  32     1.850364876618    99.73287632    53.21131717
 H     86  34  32     1.860527144797    80.91155844   309.32759281
 O     73  71  12     3.284747327257   177.48081355    21.66210309
 H     89  73  71     1.878468543682    83.70121351   322.54702283
 H     89  73  71     1.844371783499   113.91956892   219.22907542
 O     60  59  54     3.344912978923   161.37870843    20.29750539
 H     92  60  59     1.825073728616   104.23222296    85.50054051
 H     92  60  59     1.911810941005    91.09151030   342.48643168
 O     24  23   9     3.328217431951   170.16670145   336.98275415
 H     95  24  23     1.810451690065   127.87526624   248.77977838
 H     95  24  23     1.873939169778    90.97079189     1.19447199
 O     77  20   7     5.181411998358    98.07085881   277.42352640
 H     98  77  20     1.848505513943    14.12648398   238.39231374
 H     98  77  20     1.815141084961   105.22909467   143.60585411
 O     77  20   7     5.128500300898   124.87095483   101.67098663
 H    101  77  20     1.814854623911   107.29549290    48.52825070
 H    101  77  20     1.861146000471     4.83234030   127.10795772
 O     61  59  54     3.456471549361   166.96822244    32.92172409
 H    104  61  59     1.809231986138   108.60512083   100.65444209
 H    104  61  59     1.905206802424   115.44254164   341.94125461
 O     21  20   7     3.422914782063   167.40109083   358.39443951
 H    107  21  20     1.864628452902    96.60440791    78.49618422
 H    107  21  20     1.811360832321   124.45094651   194.26630868
 O     70  68  11     3.210341268519   164.40066630    43.80646678
 H    110  70  68     1.844162914675    88.63017572    41.81653901
 H    110  70  68     1.854497706918   114.46094858   296.86836266
 O     28  26  25     3.443921172942   170.71420953   326.75822358
 H    113  28  26     1.861055243488   121.94687026   299.30133367
 H    113  28  26     1.835857533007   112.07820988    65.45790584
 O     49  47  37     3.238468396548   176.68664428   155.34619291
 H    116  49  47     1.847675704998   103.98763203   356.35272628
 H    116  49  47     1.838559620293   108.77389620   246.20308796
 O     30  29  11     3.709978030980   164.33198866   258.87967209
 H    119  30  29     1.828316683989   149.77105623   124.04058357
 H    119  30  29     1.838237460356    99.61339570   341.38513993
 O     90  89  73     3.115847888061   172.21441647    11.58675278
 H    122  90  89     1.840660593457   101.97185973   206.30501800
 H    122  90  89     1.834108395960   101.46117577    97.32447077
 O     58  56  19     3.356075523227   171.67487559   153.92320872
 H    125  58  56     1.846030003607   104.01126109    21.00635460
 H    125  58  56     1.846901597612   131.81541096   254.40009384
 O     33  32  13     3.359757035000   160.22019807    85.65114748
 H    128  33  32     1.831088383469    97.24634232    71.09408460
 H    128  33  32     1.839187452843   114.19434397   185.46135196
 O     38  17   4     5.226202760866    97.53237323   309.18889972
 H    131  38  17     1.849525108100    15.61233379   214.12433780
 H    131  38  17     1.855163803846    89.68596470     1.43524178
 O     87  86  34     3.329881824157   162.16981592   320.88259300
 H    134  87  86     1.860790699488    98.76285573    52.08549891
 H    134  87  86     1.843792832851   101.33575540   305.97001103
 O    114 113  28     3.317352786113   168.60811847    81.41439933
 H    137 114 113     1.882250389125   100.55002727   309.90898263
 H    137 114 113     1.825363787423   117.20557496    62.76924496
 O    127 125  58     3.410695487863   172.31685706   228.81113541
 H    140 127 125     1.856971185244   109.58775686   143.82028723
 H    140 127 125     1.861885122482    93.12622549    36.55221322
 O     42  41  25     3.281424749529   171.07477112    45.80152471
 H    143  42  41     1.868865185059   104.73492436    35.14944957
 H    143  42  41     1.854538087150   103.41263419   287.19028056
 O     78  77  20     3.122559976375   173.63078314   306.82917558
 H    146  78  77     1.836728416973   109.56166214   211.24072246
 H    146  78  77     1.834983363448   108.47858032    98.65334535
 O     88  86  34     3.326217130400   160.24425371     5.92013424
 H    149  88  86     1.862105985566    94.34768233   290.48531509
 H    149  88  86     1.814577033453   105.45582762   183.25806841
 O     15  14   3     3.525335352808   155.07423585   350.23904441
 H    152  15  14     1.850054134675   100.05030128   339.57507505
 H    152  15  14     1.816285437101   121.93986922    95.47407680
 O    130 128  33     3.449746144980   158.06004916     3.97912002
 H    155 130 128     1.853329281265    86.69001644   316.38593486
 H    155 130 128     1.830248609444   105.23507909    62.56614677
 O     82  80  69     3.542215361134   167.25051144   280.64772682
 H    158  82  80     1.808755175284   128.86861266   221.25149269
 H    158  82  80     1.869838519459    87.51154781   331.53082244
 O     97  95  24     3.190045404095   166.35072596     1.34604678
 H    161  97  95     1.863047944348   105.49173770    80.44850285
 H    161  97  95     1.858931821649   102.36906494   333.64083097

---------------------
BASIS SET INFORMATION
---------------------
There are 4 groups of distinct atoms

 Group   1 Type C   : 11s6p2d1f contracted to 5s3p2d1f pattern {62111/411/11/1}
 Group   2 Type O   : 11s6p2d1f contracted to 5s3p2d1f pattern {62111/411/11/1}
 Group   3 Type N   : 11s6p2d1f contracted to 5s3p2d1f pattern {62111/411/11/1}
 Group   4 Type H   : 5s1p contracted to 3s1p pattern {311/1}

Atom   0C    basis set group =>   1
Atom   1C    basis set group =>   1
Atom   2O    basis set group =>   2
Atom   3O    basis set group =>   2
Atom   4C    basis set group =>   1
Atom   5N    basis set group =>   3
Atom   6H    basis set group =>   4
Atom   7H    basis set group =>   4
Atom   8H    basis set group =>   4
Atom   9H    basis set group =>   4
Atom  10H    basis set group =>   4
Atom  11H    basis set group =>   4
Atom  12H    basis set group =>   4
Atom  13O    basis set group =>   2
Atom  14H    basis set group =>   4
Atom  15H    basis set group =>   4
Atom  16O    basis set group =>   2
Atom  17H    basis set group =>   4
Atom  18H    basis set group =>   4
Atom  19O    basis set group =>   2
Atom  20H    basis set group =>   4
Atom  21H    basis set group =>   4
Atom  22O    basis set group =>   2
Atom  23H    basis set group =>   4
Atom  24H    basis set group =>   4
Atom  25O    basis set group =>   2
Atom  26H    basis set group =>   4
Atom  27H    basis set group =>   4
Atom  28O    basis set group =>   2
Atom  29H    basis set group =>   4
Atom  30H    basis set group =>   4
Atom  31O    basis set group =>   2
Atom  32H    basis set group =>   4
Atom  33H    basis set group =>   4
Atom  34O    basis set group =>   2
Atom  35H    basis set group =>   4
Atom  36H    basis set group =>   4
Atom  37O    basis set group =>   2
Atom  38H    basis set group =>   4
Atom  39H    basis set group =>   4
Atom  40O    basis set group =>   2
Atom  41H    basis set group =>   4
Atom  42H    basis set group =>   4
Atom  43O    basis set group =>   2
Atom  44H    basis set group =>   4
Atom  45H    basis set group =>   4
Atom  46O    basis set group =>   2
Atom  47H    basis set group =>   4
Atom  48H    basis set group =>   4
Atom  49O    basis set group =>   2
Atom  50H    basis set group =>   4
Atom  51H    basis set group =>   4
Atom  52O    basis set group =>   2
Atom  53H    basis set group =>   4
Atom  54H    basis set group =>   4
Atom  55O    basis set group =>   2
Atom  56H    basis set group =>   4
Atom  57H    basis set group =>   4
Atom  58O    basis set group =>   2
Atom  59H    basis set group =>   4
Atom  60H    basis set group =>   4
Atom  61O    basis set group =>   2
Atom  62H    basis set group =>   4
Atom  63H    basis set group =>   4
Atom  64O    basis set group =>   2
Atom  65H    basis set group =>   4
Atom  66H    basis set group =>   4
Atom  67O    basis set group =>   2
Atom  68H    basis set group =>   4
Atom  69H    basis set group =>   4
Atom  70O    basis set group =>   2
Atom  71H    basis set group =>   4
Atom  72H    basis set group =>   4
Atom  73O    basis set group =>   2
Atom  74H    basis set group =>   4
Atom  75H    basis set group =>   4
Atom  76O    basis set group =>   2
Atom  77H    basis set group =>   4
Atom  78H    basis set group =>   4
Atom  79O    basis set group =>   2
Atom  80H    basis set group =>   4
Atom  81H    basis set group =>   4
Atom  82O    basis set group =>   2
Atom  83H    basis set group =>   4
Atom  84H    basis set group =>   4
Atom  85O    basis set group =>   2
Atom  86H    basis set group =>   4
Atom  87H    basis set group =>   4
Atom  88O    basis set group =>   2
Atom  89H    basis set group =>   4
Atom  90H    basis set group =>   4
Atom  91O    basis set group =>   2
Atom  92H    basis set group =>   4
Atom  93H    basis set group =>   4
Atom  94O    basis set group =>   2
Atom  95H    basis set group =>   4
Atom  96H    basis set group =>   4
Atom  97O    basis set group =>   2
Atom  98H    basis set group =>   4
Atom  99H    basis set group =>   4
Atom 100O    basis set group =>   2
Atom 101H    basis set group =>   4
Atom 102H    basis set group =>   4
Atom 103O    basis set group =>   2
Atom 104H    basis set group =>   4
Atom 105H    basis set group =>   4
Atom 106O    basis set group =>   2
Atom 107H    basis set group =>   4
Atom 108H    basis set group =>   4
Atom 109O    basis set group =>   2
Atom 110H    basis set group =>   4
Atom 111H    basis set group =>   4
Atom 112O    basis set group =>   2
Atom 113H    basis set group =>   4
Atom 114H    basis set group =>   4
Atom 115O    basis set group =>   2
Atom 116H    basis set group =>   4
Atom 117H    basis set group =>   4
Atom 118O    basis set group =>   2
Atom 119H    basis set group =>   4
Atom 120H    basis set group =>   4
Atom 121O    basis set group =>   2
Atom 122H    basis set group =>   4
Atom 123H    basis set group =>   4
Atom 124O    basis set group =>   2
Atom 125H    basis set group =>   4
Atom 126H    basis set group =>   4
Atom 127O    basis set group =>   2
Atom 128H    basis set group =>   4
Atom 129H    basis set group =>   4
Atom 130O    basis set group =>   2
Atom 131H    basis set group =>   4
Atom 132H    basis set group =>   4
Atom 133O    basis set group =>   2
Atom 134H    basis set group =>   4
Atom 135H    basis set group =>   4
Atom 136O    basis set group =>   2
Atom 137H    basis set group =>   4
Atom 138H    basis set group =>   4
Atom 139O    basis set group =>   2
Atom 140H    basis set group =>   4
Atom 141H    basis set group =>   4
Atom 142O    basis set group =>   2
Atom 143H    basis set group =>   4
Atom 144H    basis set group =>   4
Atom 145O    basis set group =>   2
Atom 146H    basis set group =>   4
Atom 147H    basis set group =>   4
Atom 148O    basis set group =>   2
Atom 149H    basis set group =>   4
Atom 150H    basis set group =>   4
Atom 151O    basis set group =>   2
Atom 152H    basis set group =>   4
Atom 153H    basis set group =>   4
Atom 154O    basis set group =>   2
Atom 155H    basis set group =>   4
Atom 156H    basis set group =>   4
Atom 157O    basis set group =>   2
Atom 158H    basis set group =>   4
Atom 159H    basis set group =>   4
Atom 160O    basis set group =>   2
Atom 161H    basis set group =>   4
Atom 162H    basis set group =>   4
---------------------------------
AUXILIARY/J BASIS SET INFORMATION
---------------------------------
There are 4 groups of distinct atoms

 Group   1 Type C   : 12s5p4d2f1g contracted to 6s4p3d1f1g pattern {711111/2111/211/2/1}
 Group   2 Type O   : 12s5p4d2f1g contracted to 6s4p3d1f1g pattern {711111/2111/211/2/1}
 Group   3 Type N   : 12s5p4d2f1g contracted to 6s4p3d1f1g pattern {711111/2111/211/2/1}
 Group   4 Type H   : 5s2p1d contracted to 3s1p1d pattern {311/2/1}

Atom   0C    basis set group =>   1
Atom   1C    basis set group =>   1
Atom   2O    basis set group =>   2
Atom   3O    basis set group =>   2
Atom   4C    basis set group =>   1
Atom   5N    basis set group =>   3
Atom   6H    basis set group =>   4
Atom   7H    basis set group =>   4
Atom   8H    basis set group =>   4
Atom   9H    basis set group =>   4
Atom  10H    basis set group =>   4
Atom  11H    basis set group =>   4
Atom  12H    basis set group =>   4
Atom  13O    basis set group =>   2
Atom  14H    basis set group =>   4
Atom  15H    basis set group =>   4
Atom  16O    basis set group =>   2
Atom  17H    basis set group =>   4
Atom  18H    basis set group =>   4
Atom  19O    basis set group =>   2
Atom  20H    basis set group =>   4
Atom  21H    basis set group =>   4
Atom  22O    basis set group =>   2
Atom  23H    basis set group =>   4
Atom  24H    basis set group =>   4
Atom  25O    basis set group =>   2
Atom  26H    basis set group =>   4
Atom  27H    basis set group =>   4
Atom  28O    basis set group =>   2
Atom  29H    basis set group =>   4
Atom  30H    basis set group =>   4
Atom  31O    basis set group =>   2
Atom  32H    basis set group =>   4
Atom  33H    basis set group =>   4
Atom  34O    basis set group =>   2
Atom  35H    basis set group =>   4
Atom  36H    basis set group =>   4
Atom  37O    basis set group =>   2
Atom  38H    basis set group =>   4
Atom  39H    basis set group =>   4
Atom  40O    basis set group =>   2
Atom  41H    basis set group =>   4
Atom  42H    basis set group =>   4
Atom  43O    basis set group =>   2
Atom  44H    basis set group =>   4
Atom  45H    basis set group =>   4
Atom  46O    basis set group =>   2
Atom  47H    basis set group =>   4
Atom  48H    basis set group =>   4
Atom  49O    basis set group =>   2
Atom  50H    basis set group =>   4
Atom  51H    basis set group =>   4
Atom  52O    basis set group =>   2
Atom  53H    basis set group =>   4
Atom  54H    basis set group =>   4
Atom  55O    basis set group =>   2
Atom  56H    basis set group =>   4
Atom  57H    basis set group =>   4
Atom  58O    basis set group =>   2
Atom  59H    basis set group =>   4
Atom  60H    basis set group =>   4
Atom  61O    basis set group =>   2
Atom  62H    basis set group =>   4
Atom  63H    basis set group =>   4
Atom  64O    basis set group =>   2
Atom  65H    basis set group =>   4
Atom  66H    basis set group =>   4
Atom  67O    basis set group =>   2
Atom  68H    basis set group =>   4
Atom  69H    basis set group =>   4
Atom  70O    basis set group =>   2
Atom  71H    basis set group =>   4
Atom  72H    basis set group =>   4
Atom  73O    basis set group =>   2
Atom  74H    basis set group =>   4
Atom  75H    basis set group =>   4
Atom  76O    basis set group =>   2
Atom  77H    basis set group =>   4
Atom  78H    basis set group =>   4
Atom  79O    basis set group =>   2
Atom  80H    basis set group =>   4
Atom  81H    basis set group =>   4
Atom  82O    basis set group =>   2
Atom  83H    basis set group =>   4
Atom  84H    basis set group =>   4
Atom  85O    basis set group =>   2
Atom  86H    basis set group =>   4
Atom  87H    basis set group =>   4
Atom  88O    basis set group =>   2
Atom  89H    basis set group =>   4
Atom  90H    basis set group =>   4
Atom  91O    basis set group =>   2
Atom  92H    basis set group =>   4
Atom  93H    basis set group =>   4
Atom  94O    basis set group =>   2
Atom  95H    basis set group =>   4
Atom  96H    basis set group =>   4
Atom  97O    basis set group =>   2
Atom  98H    basis set group =>   4
Atom  99H    basis set group =>   4
Atom 100O    basis set group =>   2
Atom 101H    basis set group =>   4
Atom 102H    basis set group =>   4
Atom 103O    basis set group =>   2
Atom 104H    basis set group =>   4
Atom 105H    basis set group =>   4
Atom 106O    basis set group =>   2
Atom 107H    basis set group =>   4
Atom 108H    basis set group =>   4
Atom 109O    basis set group =>   2
Atom 110H    basis set group =>   4
Atom 111H    basis set group =>   4
Atom 112O    basis set group =>   2
Atom 113H    basis set group =>   4
Atom 114H    basis set group =>   4
Atom 115O    basis set group =>   2
Atom 116H    basis set group =>   4
Atom 117H    basis set group =>   4
Atom 118O    basis set group =>   2
Atom 119H    basis set group =>   4
Atom 120H    basis set group =>   4
Atom 121O    basis set group =>   2
Atom 122H    basis set group =>   4
Atom 123H    basis set group =>   4
Atom 124O    basis set group =>   2
Atom 125H    basis set group =>   4
Atom 126H    basis set group =>   4
Atom 127O    basis set group =>   2
Atom 128H    basis set group =>   4
Atom 129H    basis set group =>   4
Atom 130O    basis set group =>   2
Atom 131H    basis set group =>   4
Atom 132H    basis set group =>   4
Atom 133O    basis set group =>   2
Atom 134H    basis set group =>   4
Atom 135H    basis set group =>   4
Atom 136O    basis set group =>   2
Atom 137H    basis set group =>   4
Atom 138H    basis set group =>   4
Atom 139O    basis set group =>   2
Atom 140H    basis set group =>   4
Atom 141H    basis set group =>   4
Atom 142O    basis set group =>   2
Atom 143H    basis set group =>   4
Atom 144H    basis set group =>   4
Atom 145O    basis set group =>   2
Atom 146H    basis set group =>   4
Atom 147H    basis set group =>   4
Atom 148O    basis set group =>   2
Atom 149H    basis set group =>   4
Atom 150H    basis set group =>   4
Atom 151O    basis set group =>   2
Atom 152H    basis set group =>   4
Atom 153H    basis set group =>   4
Atom 154O    basis set group =>   2
Atom 155H    basis set group =>   4
Atom 156H    basis set group =>   4
Atom 157O    basis set group =>   2
Atom 158H    basis set group =>   4
Atom 159H    basis set group =>   4
Atom 160O    basis set group =>   2
[...]
120 H      0.6382     1.0000     0.3618     0.9260     0.9260     0.0000
121 O      8.7304     8.0000    -0.7304     1.7976     1.7976    -0.0000
122 H      0.6262     1.0000     0.3738     0.9205     0.9205    -0.0000
123 H      0.6219     1.0000     0.3781     0.9000     0.9000    -0.0000
124 O      8.7565     8.0000    -0.7565     1.7510     1.7510    -0.0000
125 H      0.6300     1.0000     0.3700     0.9226     0.9226    -0.0000
126 H      0.6396     1.0000     0.3604     0.9335     0.9335    -0.0000
127 O      8.7375     8.0000    -0.7375     1.8061     1.8061    -0.0000
128 H      0.6315     1.0000     0.3685     0.9110     0.9110    -0.0000
129 H      0.6199     1.0000     0.3801     0.9053     0.9053     0.0000
130 O      8.7369     8.0000    -0.7369     1.7885     1.7885    -0.0000
131 H      0.6475     1.0000     0.3525     0.9365     0.9365    -0.0000
132 H      0.6345     1.0000     0.3655     0.9199     0.9199    -0.0000
133 O      8.7379     8.0000    -0.7379     1.7980     1.7980    -0.0000
134 H      0.6307     1.0000     0.3693     0.9199     0.9199     0.0000
135 H      0.6388     1.0000     0.3612     0.9176     0.9176    -0.0000
136 O      8.7314     8.0000    -0.7314     1.7892     1.7892    -0.0000
137 H      0.6322     1.0000     0.3678     0.9271     0.9271    -0.0000
138 H      0.6502     1.0000     0.3498     0.9287     0.9287     0.0000
139 O      8.7562     8.0000    -0.7562     1.7555     1.7555    -0.0000
140 H      0.6405     1.0000     0.3595     0.9188     0.9188    -0.0000
141 H      0.6353     1.0000     0.3647     0.9330     0.9330    -0.0000
142 O      8.7589     8.0000    -0.7589     1.7447     1.7447    -0.0000
143 H      0.6435     1.0000     0.3565     0.9450     0.9450    -0.0000
144 H      0.6305     1.0000     0.3695     0.9051     0.9051     0.0000
145 O      8.7100     8.0000    -0.7100     1.8164     1.8164    -0.0000
146 H      0.6331     1.0000     0.3669     0.9227     0.9227    -0.0000
147 H      0.6472     1.0000     0.3528     0.9104     0.9104    -0.0000
148 O      8.7593     8.0000    -0.7593     1.8130     1.8130    -0.0000
149 H      0.6039     1.0000     0.3961     0.8843     0.8843     0.0000
150 H      0.6247     1.0000     0.3753     0.8946     0.8946    -0.0000
151 O      8.7337     8.0000    -0.7337     1.7835     1.7835    -0.0000
152 H      0.6288     1.0000     0.3712     0.9139     0.9139    -0.0000
153 H      0.6424     1.0000     0.3576     0.8911     0.8911    -0.0000
154 O      8.7357     8.0000    -0.7357     1.7874     1.7874    -0.0000
155 H      0.6303     1.0000     0.3697     0.9210     0.9210    -0.0000
156 H      0.6430     1.0000     0.3570     0.9058     0.9058    -0.0000
157 O      8.7323     8.0000    -0.7323     1.8074     1.8074    -0.0000
158 H      0.6347     1.0000     0.3653     0.8897     0.8897    -0.0000
159 H      0.6144     1.0000     0.3856     0.8872     0.8872    -0.0000
160 O      8.7602     8.0000    -0.7602     1.7811     1.7811    -0.0000
161 H      0.6113     1.0000     0.3887     0.8943     0.8943     0.0000
162 H      0.6150     1.0000     0.3850     0.8951     0.8951    -0.0000

  Mayer bond orders larger than 0.100000
B(  0-C ,  1-C ) :   0.9795 B(  0-C ,  4-C ) :   0.9759 B(  0-C ,  6-H ) :   0.9315 
B(  0-C ,  7-H ) :   0.9436 B(  1-C ,  2-O ) :   1.3873 B(  1-C ,  3-O ) :   1.4609 
B(  2-O , 15-H ) :   0.1102 B(  2-O ,140-H ) :   0.1117 B(  4-C ,  5-N ) :   0.8982 
B(  4-C ,  8-H ) :   0.9610 B(  4-C ,  9-H ) :   0.9618 B(  5-N , 10-H ) :   0.8275 
B(  5-N , 11-H ) :   0.8586 B(  5-N , 12-H ) :   0.8240 B( 10-H , 67-O ) :   0.1164 
B( 13-O , 14-H ) :   0.8261 B( 13-O , 15-H ) :   0.7851 B( 13-O , 21-H ) :   0.1284 
B( 16-O , 17-H ) :   0.8142 B( 16-O , 18-H ) :   0.8191 B( 16-O ,143-H ) :   0.1439 
B( 19-O , 20-H ) :   0.8107 B( 19-O , 21-H ) :   0.7961 B( 20-H ,106-O ) :   0.1096 
B( 22-O , 23-H ) :   0.7923 B( 22-O , 24-H ) :   0.7691 B( 22-O , 74-H ) :   0.1180 
B( 23-H , 94-O ) :   0.1108 B( 24-H , 40-O ) :   0.1287 B( 25-O , 26-H ) :   0.8410 
B( 25-O , 27-H ) :   0.8214 B( 28-O , 29-H ) :   0.8317 B( 28-O , 30-H ) :   0.8218 
B( 31-O , 32-H ) :   0.8015 B( 31-O , 33-H ) :   0.7840 B( 32-H ,127-O ) :   0.1145 
B( 33-H , 85-O ) :   0.1540 B( 34-O , 35-H ) :   0.8026 B( 34-O , 36-H ) :   0.8490 
B( 37-O , 38-H ) :   0.8521 B( 37-O , 39-H ) :   0.8304 B( 40-O , 41-H ) :   0.7904 
B( 40-O , 42-H ) :   0.8124 B( 41-H ,142-O ) :   0.1009 B( 43-O , 44-H ) :   0.8317 
B( 43-O , 45-H ) :   0.8513 B( 46-O , 47-H ) :   0.8703 B( 46-O , 48-H ) :   0.7771 
B( 48-H ,115-O ) :   0.1028 B( 49-O , 50-H ) :   0.8002 B( 49-O , 51-H ) :   0.8010 
B( 49-O ,149-H ) :   0.1004 B( 52-O , 53-H ) :   0.7925 B( 52-O , 54-H ) :   0.8192 
B( 52-O , 93-H ) :   0.1109 B( 55-O , 56-H ) :   0.8800 B( 55-O , 57-H ) :   0.8099 
B( 58-O , 59-H ) :   0.8192 B( 58-O , 60-H ) :   0.8389 B( 58-O ,116-H ) :   0.1134 
B( 61-O , 62-H ) :   0.8312 B( 61-O , 63-H ) :   0.8163 B( 61-O , 65-H ) :   0.1320 
B( 64-O , 65-H ) :   0.7833 B( 64-O , 66-H ) :   0.8780 B( 64-O , 90-H ) :   0.1109 
B( 67-O , 68-H ) :   0.7938 B( 67-O , 69-H ) :   0.7794 B( 67-O ,137-H ) :   0.1229 
B( 69-H ,109-O ) :   0.1016 B( 70-O , 71-H ) :   0.7852 B( 70-O , 72-H ) :   0.7776 
B( 70-O ,105-H ) :   0.1302 B( 72-H , 88-O ) :   0.1386 B( 73-O , 74-H ) :   0.7663 
B( 73-O , 75-H ) :   0.8663 B( 73-O ,155-H ) :   0.1051 B( 76-O , 77-H ) :   0.7561 
B( 76-O , 78-H ) :   0.8182 B( 77-H ,145-O ) :   0.1451 B( 79-O , 80-H ) :   0.8634 
B( 79-O , 81-H ) :   0.8270 B( 82-O , 83-H ) :   0.8777 B( 82-O , 84-H ) :   0.8246 
B( 85-O , 86-H ) :   0.7912 B( 85-O , 87-H ) :   0.8183 B( 86-H ,133-O ) :   0.1267 
B( 88-O , 89-H ) :   0.7625 B( 88-O , 90-H ) :   0.7977 B( 88-O ,107-H ) :   0.1013 
B( 89-H ,121-O ) :   0.1444 B( 91-O , 92-H ) :   0.8382 B( 91-O , 93-H ) :   0.7583 
B( 94-O , 95-H ) :   0.8764 B( 94-O , 96-H ) :   0.7905 B( 96-H ,160-O ) :   0.1048 
B( 97-O , 98-H ) :   0.8156 B( 97-O , 99-H ) :   0.8744 B( 97-O ,122-H ) :   0.1232 
B(100-O ,101-H ) :   0.8766 B(100-O ,102-H ) :   0.8020 B(100-O ,125-H ) :   0.1019 
B(103-O ,104-H ) :   0.8626 B(103-O ,105-H ) :   0.7453 B(106-O ,107-H ) :   0.7833 
B(106-O ,108-H ) :   0.8678 B(109-O ,110-H ) :   0.8293 B(109-O ,111-H ) :   0.7844 
B(112-O ,113-H ) :   0.8094 B(112-O ,114-H ) :   0.8373 B(113-H ,136-O ) :   0.1045 
B(115-O ,116-H ) :   0.7951 B(115-O ,117-H ) :   0.8486 B(118-O ,119-H ) :   0.8321 
B(118-O ,120-H ) :   0.8283 B(121-O ,122-H ) :   0.7841 B(121-O ,123-H ) :   0.8234 
B(124-O ,125-H ) :   0.8049 B(124-O ,126-H ) :   0.7949 B(126-H ,139-O ) :   0.1097 
B(127-O ,128-H ) :   0.8177 B(127-O ,129-H ) :   0.8051 B(130-O ,131-H ) :   0.8287 
B(130-O ,132-H ) :   0.8253 B(130-O ,141-H ) :   0.1333 B(133-O ,134-H ) :   0.8158 
B(133-O ,135-H ) :   0.8420 B(136-O ,137-H ) :   0.7897 B(136-O ,138-H ) :   0.8625 
B(139-O ,140-H ) :   0.7879 B(139-O ,141-H ) :   0.7845 B(142-O ,143-H ) :   0.7733 
B(142-O ,144-H ) :   0.7930 B(145-O ,146-H ) :   0.8182 B(145-O ,147-H ) :   0.8342 
B(148-O ,149-H ) :   0.7801 B(148-O ,150-H ) :   0.8404 B(151-O ,152-H ) :   0.8145 
B(151-O ,153-H ) :   0.8773 B(154-O ,155-H ) :   0.7933 B(154-O ,156-H ) :   0.8363 
B(157-O ,158-H ) :   0.8701 B(157-O ,159-H ) :   0.7884 B(160-O ,161-H ) :   0.7859 
B(160-O ,162-H ) :   0.7983 

-------
TIMINGS
-------

Total SCF time: 0 days 0 hours 5 min 8 sec 

Total time                  ....     308.261 sec
Sum of individual times     ....     307.161 sec  ( 99.6%)

SCF preparation             ....       6.734 sec  (  2.2%)
Fock matrix formation       ....     252.658 sec  ( 82.0%)
  Startup                   ....       1.837 sec  (  0.7% of F)
  Split-RI-J                ....      30.455 sec  ( 12.1% of F)
  Chain of spheres X        ....     141.753 sec  ( 56.1% of F)
  XC integration            ....      17.211 sec  (  6.8% of F)
    XC Preparation          ....       0.000 sec  (  0.0% of XC)
    Basis function eval.    ....       3.873 sec  ( 22.5% of XC)
    Density eval.           ....       5.913 sec  ( 34.4% of XC)
    XC-Functional eval.     ....       0.223 sec  (  1.3% of XC)
    XC-Potential eval.      ....       3.335 sec  ( 19.4% of XC)
  CPCM terms                ....      52.161 sec  ( 20.6% of F)
Diagonalization             ....       0.000 sec  (  0.0%)
Density matrix formation    ....       9.384 sec  (  3.0%)
Total Energy calculation    ....       2.719 sec  (  0.9%)
Population analysis         ....       1.092 sec  (  0.4%)
Orbital Transformation      ....       4.025 sec  (  1.3%)
Orbital Orthonormalization  ....       0.000 sec  (  0.0%)
DIIS solution               ....      17.141 sec  (  5.6%)
SOSCF solution              ....      13.407 sec  (  4.3%)
Finished LeanSCF after 310.3 sec

Maximum memory used throughout the entire LEANSCF-calculation: 708.1 MB


-------------------------------------------------------------------------------
                          DFT DISPERSION CORRECTION                            
                                                                               
                                DFTD4 V3.4.0                                   
-------------------------------------------------------------------------------
The B3LYP functional is recognized
Active option DFTDOPT                   ...         5   

-------------------------   ----------------
Dispersion correction           -0.234564709
-------------------------   ----------------


-------------------------   --------------------
FINAL SINGLE POINT ENERGY     -4146.162760599334
-------------------------   --------------------

--------------------------------------------------------------------------
WARNING: There was an error initializing an OpenFabrics device.

  Local host:   ga00
  Local device: mlx5_0
--------------------------------------------------------------------------


           ************************************************************
           *        Program running with 28 parallel MPI-processes    *
           *              working on a common directory               *
           ************************************************************

------------------------------------------------------------------------------
                              ORCA PROPERTY CALCULATIONS
------------------------------------------------------------------------------

GBWName                                 ... input.gbw
Number of atoms                         ...    163
Number of basis functions               ...   2378
Max core memory                         ...   5000 MB

Electric properties:
Dipole moment                           ... YES
Quadrupole moment                       ...  NO
Static polarizability (Dipole/Dipole)   ...  NO
Static polarizability (Dipole/Quad.)    ...  NO
Static polarizability (Quad./Quad.)     ...  NO
Static polarizability (Velocity)        ...  NO

Atomic electric properties:
Dipole moment                           ...  NO
Quadrupole moment                       ...  NO
Static polarizability                   ...  NO

Choice of electric origin               ... Center of mass
Position of electric origin             ...     0.326611     0.386389     0.270059

General magnetic properties:
Magnetizability                         ...  NO

EPR properties:
g-Tensor (aka g-matrix)                 ...  NO
Zero-Field splitting spin-orbit         ...  NO
Zero-field splitting spin-spin          ...  NO
Hyperfine couplings                     ...  NO (   0 nuclei)
Quadrupole couplings                    ...  NO (   0 nuclei)
Contact density                         ...  NO (   0 nuclei)

NMR properties:
Chemical shifts                         ...  NO (   0 nuclei)
Spin-rotation constants                 ...  NO (   0 nuclei)
Spin-spin couplings                     ...  NO (   0 nuclei,    0 pairs)

Choice of magnetic origin               ... GIAO
Position of magnetic origin             ...     0.000000     0.000000     0.000000

Properties with geometric perturbations:
SCF Hessian                             ...  NO
IR spectrum                             ...  NO
VCD spectrum                            ...  NO
X-ray spectroscopy properties:
SCF XES/XAS/RIXS spectra                ...  NO


-------------
DIPOLE MOMENT
-------------

Method             : SCF
Type of density    : Electron Density
Multiplicity       :   1
Irrep              :   0
Energy             : -4145.9281958905830834 Eh
Relativity type    : 
Basis              : AO
                                X                 Y                 Z
Electronic contribution:     -2.647422898      -1.238960891       5.117120051
Nuclear contribution   :      7.758816160      -3.168008091     -15.986316809
                        -----------------------------------------
Total Dipole Moment    :      5.111393261      -4.406968982     -10.869196758
                        -----------------------------------------
Magnitude (a.u.)       :     12.794028093
Magnitude (Debye)      :     32.519835019



--------------------
Rotational spectrum 
--------------------
 
Rotational constants in cm-1:             0.001276             0.000854             0.000783 
Rotational constants in MHz :            38.258811            25.605106            23.470831 

Dipole components along the rotational axes: 
x,y,z [a.u.] :   -11.352604    -5.374376    -2.433437 
x,y,z [Debye]:   -28.856026   -13.660579    -6.185304 

 

Dipole moment calculation done in   0.3 sec 

Maximum memory used throughout the entire PROP-calculation: 421.6 MB
[ga00:904302] 27 more processes have sent help message help-mpi-btl-openib.txt / error in device init
[ga00:904302] Set MCA parameter "orte_base_help_aggregate" to 0 to see all help / error messages
--------------------------------------------------------------------------
WARNING: There was an error initializing an OpenFabrics device.

  Local host:   ga00
  Local device: mlx5_0
--------------------------------------------------------------------------
[ga00:904448] 27 more processes have sent help message help-mpi-btl-openib.txt / error in device init
[ga00:904448] Set MCA parameter "orte_base_help_aggregate" to 0 to see all help / error messages

--------------------------------
SUGGESTED CITATIONS FOR THIS RUN
--------------------------------

Below you find a list of papers that are relevant to this ORCA run
We neither can nor want to force you to cite these papers, but we appreciate if you do
You receive ORCA, which is the product of decades of hard work by many enthusiastic individuals, for free
The only thing we kindly ask in return is that you cite our papers,
We deeply appreciate it, if you show your appreciation for ORCA by not just citing the generic ORCA reference.

Please note that relegating all ORCA citations to the supporting information does *not* help us.
SI sections are not indexed - citations you put there will not count into any citation statistics
But we need these citations in order to attract the funding resources that allow us to do what we are doing

Therefore, if you are a happy ORCA user, please consider citing a few of the papers listed below in the main body of your paper

In addition to the list printed below, the program has created the file input.bibtex that contains the list in bibtex format
You can import this file easily into all common literature databanks and citation aid programs


List of essential papers. We consider these as the minimum necessary citations

  1. Neese,F.
     Software update: the ORCA program system, version 5.0
     WIRES Comput. Molec. Sci., 2022 12(1)e1606
     doi.org/10.1002/wcms.1606

List of papers to cite with high priority. The work reported in these papers was absolutely
necessary for this run to complete.
Our perspective: the developers of density functionals and basis sets usually get cited in chemistry papers
Good! But without the algorithms to do something with them, the functionals or basis sets would not do anything.
Hence, in our opinion, the algorithm design and method developments papers are equally worthy of getting cited

  1. Neese,F.
     An improvement of the resolution of the identity approximation for the formation of the Coulomb matrix
     J. Comp. Chem., 2003 24(14)1740-1747
     doi.org/10.1002/jcc.10318
  2. Neese,F.; Wennmohs,F.; Hansen,A.; Becker,U.
     Efficient, approximate and parallel Hartree-Fock and hybrid DFT calculations. A 'chain-of-spheres' algorithm for the Hartree-Fock exchange
     Chem. Phys., 2009 356(1-3)98-109
     doi.org/10.1016/j.chemphys.2008.10.036
  3. Garcia-Rates,M.; Neese,F.
     Effect of the Solute Cavity on the Solvation Energy and its Derivatives within the Framework of the Gaussian Charge Scheme
     J. Comput. Chem., 2020 41 922-939
     doi.org/10.1002/jcc.26139
  4. Helmich-Paris,B.; de Souza,B.; Neese,F.; Izsák,R.
     An improved chain of spheres for exchange algorithm
     J. Chem. Phys., 2021 155 104109
     doi.org/doi: 10.1063/5.0058766.
  5. Neese,F.
     The SHARK Integral Generation and Digestion System
     J. Comp. Chem., 2022  1-16
     doi.org/10.1002/jcc.26942
  6. Caldeweyher,E.; Bannwarth,C.; Grimme,S.
     Extension of the D3 dispersion coefficient model
     J. Chem. Phys., 2017 147 034112
     doi.org/10.1063/1.4993215
  7. Caldeweyher,E.; Ehlert,S.; Hansen,A.; Neugebauer,H.; Spicher,S.; Bannwarth,C.; Grimme,S.
     A generally applicable atomic-charge dependent London dispersion correction
     J. Chem. Phys., 2019 150 154122
     doi.org/10.1063/1.5090222
  8. Caldeweyher,E.; Mewes,J.; Ehlert,S.; Grimme,S.
     Extension and evaluation of the D4 London-dispersion model for periodic systems
     Phys. Chem. Chem. Phys., 2020 22(16)8499-8512
     doi.org/10.1039/D0CP00502A
  9. Wittmann,L.; Gordiy,I.; Friede,M.; Helmich-Paris,B.; Grimme,S.; Hansen,A.; Bursch,M.
     Extension of the D3 and D4 London Dispersion Corrections to the full Actinides Series
     Phys. Chem. Chem. Phys., 2024 26(32)21379-21394
     doi.org/https://doi.org/10.1039/D4CP01514B 

List of suggested additional citations. These are papers that are important in the 'surrounding' of 
of this run, or papers that preceded the highly important papers. If you like your results we are grateful for a citation.

  1. Izsak,R.; Neese,F.
     An overlap fitted chain of spheres exchange method
     J. Chem. Phys., 2011 135 144105
     doi.org/10.1063/1.3646921
  2. Izsak,R.; Hansen,A.; Neese,F.
     The resolution of identity and chain of spheres approximations for the LPNO-CCSD singles Fock term
     Molec. Phys., 2012 110 2413-2417
     doi.org/10.1080/00268976.2012.687466
  3. Neese,F.
     The ORCA program system
     WIRES Comput. Molec. Sci., 2012 2(1)73-78
     doi.org/10.1002/wcms.81
  4. Izsak,R.; Neese,F.; Klopper,W.
     Robust fitting techniques in the chain of spheres approximation to the Fock exchange: The role of the complementary space
     J. Chem. Phys., 2013 139 
     doi.org/10.1063/1.4819264
  5. Neese,F.
     Software update: the ORCA program system, version 4.0
     WIRES Comput. Molec. Sci., 2018 8(1)1-6
     doi.org/10.1002/wcms.1327
  6. Neese,F.; Wennmohs,F.; Becker,U.; Riplinger,C.
     The ORCA quantum chemistry program package
     J. Chem. Phys., 2020 152 Art. No. L224108
     doi.org/10.1063/5.0004608

List of optional additional citations

  1. Neese,F.
     Approximate second-order SCF convergence for spin unrestricted wavefunctions
     Chem. Phys. Lett., 2000 325(1-3)93-98
     doi.org/10.1016/s0009-2614(00)00662-x

Timings for individual modules:

Sum of individual times          ...      335.817 sec (=   5.597 min)
Startup calculation              ...       14.929 sec (=   0.249 min)   4.4 %
SCF iterations                   ...      318.657 sec (=   5.311 min)  94.9 %
Property calculations            ...        2.231 sec (=   0.037 min)   0.7 %
                             ****ORCA TERMINATED NORMALLY****
TOTAL RUN TIME: 0 days 0 hours 5 minutes 37 seconds 107 msec
