28
 energy: -44.597624024648 gnorm: 0.000454153022 xtb: 6.7.1 (edcfbbe)
N            0.47927834928308        0.35576770342586        0.79978095983632
C            1.77549344791093        0.48638751454909        0.10535995356336
C            1.58986356030270        1.16253358369985       -1.24868599373418
C            2.91621532450091        1.32628604215052       -1.98394245977071
C            3.84648679010780        2.39163774586390       -1.37235153669701
O            3.52353198908327        2.92199029213285       -0.28738598452764
O            4.89295445947293        2.66506384183064       -2.00819496684076
H            0.08981080918890        1.28297304039092        0.97922928475978
H           -0.18835443272926       -0.17399923207599        0.19733324307985
H            2.20563907244220       -0.50428381434719       -0.03764119229429
H            2.46281277452108        1.08886076031131        0.70003031997761
H            1.16597576914272        2.15833191756716       -1.10527530484670
H            0.91353360139318        0.57175131863986       -1.86775510378801
H            3.48157379126355        0.39160684827807       -2.00288054409924
H            2.75524106463549        1.61994931642840       -3.02333633713448
H            0.59062947000636       -0.14188461115647        1.71015932678893
O            0.81346815016938       -0.89914070774085        3.23736257445608
H            1.29336803832845       -0.44160192650656        3.93253100697400
H            0.97461901854327       -1.84173258822009        3.33912198856208
O           -1.23092349406905       -1.00863143184275       -0.90053240602639
H           -2.12784209384939       -0.70928305175529       -1.07404835730358
H           -1.22889376331315       -1.96888704692970       -0.94995975778463
O            5.13141352161974        1.83015570874707       -4.58427769709522
H            5.91634136870953        2.25735944537786       -4.94092007761463
H            5.07498166003846        2.12661975324387       -3.64908543720556
O            5.32942970067441        4.68874072114214        0.76262225955453
H            6.01142249897797        4.68616514507906        0.08417062272434
H            4.63815844215441        4.07304347830224        0.42825197816460
