28
 energy: -44.587736155081 gnorm: 0.030218341211 xtb: 6.7.1 (edcfbbe)
N            1.12455757760000       -0.06543237860000        0.79650906140000
C            2.16134031290000       -0.00375616200000       -0.25327393730000
C            1.73231568620000        0.96999376750000       -1.34882972050000
C            2.92371053660000        1.46309274100000       -2.16245537120000
C            3.83077923400000        2.45453845030000       -1.41635975400000
O            3.53505148170000        2.79727927300000       -0.24560527150000
O            4.83854374330000        2.88039994310000       -2.02430927250000
H            1.08009260600000        0.88017942850000        1.24154575370000
H            0.19741979640000       -0.28142053460000        0.37078458340000
H            2.32488230240000       -0.99397076810000       -0.67712661770000
H            3.09428226050000        0.35091153770000        0.18658155970000
H            1.25823447730000        1.84004028690000       -0.89400537090000
H            1.01447357090000        0.49407854760000       -2.01568462120000
H            3.55808475430000        0.63712293520000       -2.49163938230000
H            2.59344770630000        1.98239074230000       -3.06497966810000
H            1.35190118270000       -0.76535232340000        1.50335889830000
O           -0.06119812820000       -0.71100030550000        3.57993973490000
H           -0.23512235970000       -0.63107482660000        4.53520641610000
H           -0.38465205470000       -1.57718565790000        3.31633115790000
O           -1.30343276690000       -0.62975751710000       -0.40874244190000
H           -2.04499472400000       -0.02564489400000       -0.33111386540000
H           -1.65573765550000       -1.51260028970000       -0.54191722460000
O            5.08967034330000        2.35017314570000       -4.69092311790000
H            5.96436946490000        2.64189163680000       -4.96246345160000
H            5.02690251910000        2.55747787750000       -3.73227054240000
O            5.39053456460000        4.59844012960000        0.68126819900000
H            5.96823773720000        4.74429727690000       -0.07340734630000
H            4.72253471930000        3.95066770450000        0.36326197460000
28
 energy: -44.589397787129 gnorm: 0.015093923562 xtb: 6.7.1 (edcfbbe)
N            1.12008387679803       -0.05654524051096        0.80323719679220
C            2.16141137199002        0.00705769094144       -0.24432132123457
C            1.73506683959236        0.97548532768822       -1.34589037943224
C            2.92489264933260        1.45896319815084       -2.16760648203288
C            3.83486389688125        2.44981009860226       -1.42112086593404
O            3.53864172437362        2.78582001317184       -0.25136276539679
O            4.84018267594090        2.87927964898160       -2.03508111467970
H            1.05277055703225        0.86916791923320        1.24918697162566
H            0.19400832408525       -0.28529900008618        0.37643534011015
H            2.32407752409332       -0.98527884632490       -0.66406760300035
H            3.09438395073712        0.36551988630033        0.19252991554652
H            1.27483740181689        1.85528428984675       -0.89344751247226
H            1.01134634768229        0.50150276016894       -2.00871490169789
H            3.55571113503804        0.63037760777844       -2.49649011324987
H            2.59257838978119        1.97905725058029       -3.06900490129677
H            1.34513549880419       -0.74669581868852        1.52241160371881
O           -0.02619373556058       -0.75406151436932        3.54621952688939
H           -0.18389409451659       -0.57927075568921        4.48656337664028
H           -0.41308016652135       -1.62142718516796        3.36388262885116
O           -1.30263617724384       -0.62716371845063       -0.39810770467875
H           -2.04735872304800       -0.02412620182362       -0.32911363883846
H           -1.65119188017762       -1.50759990511714       -0.56665830563266
O            5.09213210149498        2.33742426863827       -4.69132262750450
H            5.96041810866709        2.65056863400189       -4.96317716772503
H            5.01934076150509        2.55817181297393       -3.73696460410212
O            5.39352620660007        4.59009554401165        0.68502496824723
H            5.95511325230498        4.72911610005493       -0.08403163571105
H            4.70006107101626        3.96054590170377        0.38067247789816
28
 energy: -44.590244461989 gnorm: 0.028904187842 xtb: 6.7.1 (edcfbbe)
N            1.11237732613524       -0.04400414624133        0.81359873064152
C            2.16200666203914        0.02327947060059       -0.22643208644046
C            1.73736772992626        0.98420414074948       -1.33562293994884
C            2.92536441262717        1.45187225482011       -2.17059665293316
C            3.83624912673609        2.45036088271394       -1.42972255885863
O            3.53982325490535        2.78205139186684       -0.26232841580527
O            4.83394476475046        2.88651838914811       -2.05569955208577
H            1.01187074192341        0.86353888906263        1.25909228383430
H            0.19088079219233       -0.29549819078050        0.38183658828003
H            2.32882991817385       -0.97160783320365       -0.63839981771508
H            3.09045684514769        0.39065691307948        0.21216580274932
H            1.29559144507052        1.87691119077621       -0.88767517756456
H            1.00404684132247        0.51183391195862       -1.98932337785763
H            3.55264933383060        0.62001326450985       -2.49721157019413
H            2.58873812928935        1.96763746166813       -3.07283045363912
H            1.33231719869377       -0.71858360083563        1.55340536750687
O            0.02861754386593       -0.81832824250801        3.48572302972771
H           -0.10845098963823       -0.52696461441652        4.40417735441859
H           -0.44453008216604       -1.67640799727844        3.40483091216169
O           -1.29788447334833       -0.62384419950087       -0.39021747348825
H           -2.04755024267808       -0.02656247092221       -0.31464308886770
H           -1.63948227494277       -1.50057142658081       -0.60204045822483
O            5.08730416272344        2.33785759645800       -4.69942088202828
H            5.95081879509736        2.66935189697333       -4.96773663686243
H            5.01645086039942        2.53724950230391       -3.74062205247374
O            5.36528294769404        4.60997181080566        0.67926979521780
H            5.94074118717068        4.70405209757532       -0.08785490923991
H            4.70239693155844        3.93079142379793        0.41395860138913
28
 energy: -44.590915059789 gnorm: 0.018991424012 xtb: 6.7.1 (edcfbbe)
N            1.10478452924654       -0.03383080850089        0.82277842578978
C            2.16275753244089        0.03716908928887       -0.20819587645007
C            1.74029991397011        0.99194032216597       -1.32373043521550
C            2.92733668021184        1.44534744148296       -2.16939575197136
C            3.84299229136418        2.44753017336803       -1.43547078332242
O            3.55618681649827        2.76989065055439       -0.26482195560810
O            4.83856898167158        2.87975132794629       -2.06888207368557
H            0.97899106506984        0.86821811677254        1.26571225175838
H            0.18936798668174       -0.30363657149369        0.38414727690366
H            2.33636391518823       -0.95892786875948       -0.61412323074108
H            3.08565811680731        0.41229233357087        0.23522915076309
H            1.31170483903322        1.89369939047516       -0.87999290499267
H            0.99894081477288        0.52085972219409       -1.96919158625375
H            3.54999262626098        0.60919466097661       -2.49335346092393
H            2.58829240392113        1.95683325474496       -3.07318209933278
H            1.31965620119475       -0.69658534343180        1.57812137256857
O            0.04215188555099       -0.83962383635399        3.45579416743307
H           -0.10159398111035       -0.55429611115236        4.35572124038491
H           -0.42933874358781       -1.68046260621863        3.36983853766268
O           -1.29116543950520       -0.62192026406702       -0.39361806639315
H           -2.04496462970669       -0.03176034254927       -0.29982318077160
H           -1.62663597650193       -1.49642923776105       -0.62427322659690
O            5.09131944316522        2.32200771839636       -4.70477022362993
H            5.94431829198394        2.68448503259919       -4.97242140001493
H            5.00583056179597        2.53918875939833       -3.75037728955520
O            5.37500874076674        4.59165674146670        0.68826706642316
H            5.92477843898714        4.69181483077754       -0.09635016961594
H            4.67462558232811        3.95137319070947        0.42604458708650
28
 energy: -44.591550065993 gnorm: 0.014103507331 xtb: 6.7.1 (edcfbbe)
N            1.09402898223936       -0.02562720590731        0.83197260218640
C            2.16186631885102        0.05171128647383       -0.18656636543005
C            1.74078230968019        0.99939331398889       -1.30835602794464
C            2.92728730563147        1.43883029307553       -2.16281942752402
C            3.85179103372997        2.44007629374987       -1.43672469925889
O            3.57048905110465        2.76666475634772       -0.26612005790296
O            4.83834148482218        2.87585816261958       -2.08087522338843
H            0.94622768986259        0.88288815381263        1.26846039915328
H            0.18776306908864       -0.31249797298460        0.38351670434303
H            2.34841634244135       -0.94384664382369       -0.58780155734645
H            3.07681299075625        0.43633357442200        0.26533507717046
H            1.32004871564098        1.90657670754572       -0.86950028681498
H            0.99288196825455        0.52794577395821       -1.94536715775712
H            3.54492668218778        0.59706539489427       -2.48137351822545
H            2.58790295736502        1.94405586188998       -3.07013277327471
H            1.30528315842512       -0.67836686484356        1.59843021703709
O            0.06932766139640       -0.88925180565296        3.39654539541093
H           -0.07699258691957       -0.52741672928452        4.27993045995446
H           -0.42384320786688       -1.72198885536918        3.36643272798541
O           -1.28393305135351       -0.62309462781432       -0.40760853983173
H           -2.04042669243697       -0.04061386413257       -0.28476493751911
H           -1.61514542369131       -1.49576715195589       -0.63620697537632
O            5.08924678140147        2.31769282543610       -4.71499332903235
H            5.93628174190590        2.69364897875078       -4.98061203162601
H            4.99667082302411        2.54102956341387       -3.76152497423763
O            5.38008130361662        4.57952424823727        0.69700721337613
H            5.91339389658148        4.68780929285316       -0.09686404092611
H            4.65671758276076        3.96714700689938        0.43026148849839
28
 energy: -44.592177239168 gnorm: 0.017766723759 xtb: 6.7.1 (edcfbbe)
N            1.07801528272499       -0.01452686135813        0.84810638551284
C            2.16136586209506        0.07410099686866       -0.14990163464009
C            1.74075213988031        1.00956098799360       -1.28137202476318
C            2.92472036256823        1.42970206163757       -2.14838721909871
C            3.85641801399193        2.43782234488609       -1.44030236950177
O            3.58342311411127        2.77621220629205       -0.26989910173435
O            4.83036312119359        2.87653227667645       -2.09869308848625
H            0.90524130441662        0.90839475070420        1.26820862642661
H            0.18658301011480       -0.32177510577785        0.38504536914219
H            2.37267783550166       -0.91906871071252       -0.54549223014931
H            3.06303127639161        0.47509859054751        0.31569186814104
H            1.32723202736089        1.92275836209339       -0.85138462240642
H            0.98472326138355        0.53439859995364       -1.90514218560289
H            3.53788983047353        0.57933938188434       -2.45278039675283
H            2.58540381062066        1.91982924084329       -3.06426254254431
H            1.28286854833708       -0.65356682427059        1.62801061454401
O            0.10303936639763       -0.95886827691420        3.31071231103353
H           -0.04375257583617       -0.52298337059164        4.16755787544011
H           -0.40937162410368       -1.77091827173980        3.33011176320373
O           -1.27321282814206       -0.62976112697175       -0.42238527137862
H           -2.03479216912788       -0.06064932950132       -0.26444510362768
H           -1.59565715044503       -1.49969601862127       -0.66183454413710
O            5.07579571959624        2.33163163410665       -4.73670022955544
H            5.91848525019183        2.70947398110004       -5.00011364650801
H            4.99104950176925        2.53143409357889       -3.77661292017162
O            5.35227106189639        4.60655488372944        0.69540727775512
H            5.91188756015338        4.68641451728075       -0.08124321352754
H            4.67977797498399        3.93833475288258        0.44178061508521
28
 energy: -44.592588793672 gnorm: 0.014762533344 xtb: 6.7.1 (edcfbbe)
N            1.06556330977126       -0.00214045833048        0.85859147152540
C            2.15941351811646        0.08832053239856       -0.12571617465102
C            1.74066555425659        1.01639673390811       -1.26352027158430
C            2.92348607534022        1.42337438531154       -2.13713284727247
C            3.85646141413259        2.44036729283025       -1.44449612741107
O            3.59990633153346        2.77415383851080       -0.26756796983452
O            4.83043388130292        2.86892802780138       -2.10694421142610
H            0.89163424147618        0.92728089994206        1.26421650437102
H            0.18158601246475       -0.31220515390809        0.38801397498991
H            2.38536930323982       -0.90377039214600       -0.51632475138153
H            3.05251198713013        0.49848525728234        0.34881333489840
H            1.33081528153398        1.93454065870014       -0.84062195834785
H            0.98037989145461        0.53778025267124       -1.87943914427625
H            3.53446288579345        0.56712423098031       -2.43027375669196
H            2.58455859768802        1.90197937590051       -3.05918692364956
H            1.26020879245428       -0.63513436769263        1.64599093727745
O            0.13117654250963       -1.00810945422512        3.26248298579492
H            0.01580076681409       -0.54915154234563        4.10621667459393
H           -0.43312087644362       -1.79427271640078        3.30443384642544
O           -1.27151625936916       -0.63613838115301       -0.42243633774983
H           -2.03916942207595       -0.07859209649738       -0.26303714375928
H           -1.58255476110214       -1.50523787214151       -0.69241190405225
O            5.07007183051786        2.32570205263731       -4.74881045590204
H            5.90039501121587        2.73169937008069       -5.01864350350969
H            4.98195460687077        2.53372218175964       -3.79048489699631
O            5.35379285731740        4.61152266814465        0.70088753435701
H            5.91198326753332        4.69433105566184       -0.07629039978619
H            4.67995824702290        3.94482338691938        0.44337187574661
28
 energy: -44.592721160545 gnorm: 0.017594043440 xtb: 6.7.1 (edcfbbe)
N            1.05563289124378        0.00967024792254        0.86398749921946
C            2.15925547497943        0.09810726852784       -0.10739455939186
C            1.74289575262251        1.02096553463884       -1.24950297941792
C            2.92592820883816        1.41844894521451       -2.12357037346720
C            3.86386939306435        2.43349141628723       -1.44052188665946
O            3.61166525245488        2.77964355371010       -0.26444321276609
O            4.82399755031090        2.87525987828824       -2.11371443510556
H            0.90013485631133        0.94499415499255        1.25379494371886
H            0.17661700082374       -0.28943233883176        0.38726630739001
H            2.39822110660908       -0.89220791970277       -0.49394637054595
H            3.04455011410611        0.51475543323377        0.37530480267010
H            1.33132566484593        1.94140565652238       -0.83258441288826
H            0.98193831727326        0.53823687818647       -1.86147165429020
H            3.53510240108779        0.55719627389334       -2.40589786725106
H            2.58946910022523        1.88791796186820       -3.05074980540605
H            1.23496476108258       -0.62608969502306        1.65112202031135
O            0.13849225346784       -1.05016223182653        3.24857582008288
H            0.04202968894784       -0.61256034785554        4.08420342041561
H           -0.44247413435169       -1.81203758110435        3.26944896825872
O           -1.27341882450246       -0.64734153180145       -0.42904760346154
H           -2.04830778771270       -0.10338342501205       -0.27256679544513
H           -1.57199484975706       -1.51802026259659       -0.71113326452864
O            5.05395847985580        2.33693909854082       -4.76444430440788
H            5.87513327603253        2.75540918758265       -5.04522831152392
H            4.97846338137262        2.53355410291991       -3.80350037880681
O            5.36331870394358        4.61993408992223        0.70857271249045
H            5.92253005993437        4.71861005393143       -0.06686609852240
H            4.68293079538999        3.96247536417103        0.43398818102611
28
 energy: -44.593093116167 gnorm: 0.005442534399 xtb: 6.7.1 (edcfbbe)
N            1.04647559887800        0.02058240854977        0.86837254865090
C            2.15967445456802        0.10849860335476       -0.09313452109382
C            1.74665797315347        1.02521214422361       -1.24176688604942
C            2.92976315451950        1.41458641356655       -2.11899572767711
C            3.86583102981785        2.43629942087839       -1.44408021433702
O            3.62174762440615        2.77816346661134       -0.26526620818023
O            4.82491892356894        2.87552711660676       -2.12092970615924
H            0.88641095943296        0.95346650761296        1.25202275421148
H            0.17231724491438       -0.28254604666227        0.38345710439133
H            2.40636984550944       -0.88215926973788       -0.47413963666647
H            3.03924862885011        0.53159567947327        0.39452541759039
H            1.33808938041191        1.95064516536817       -0.83038577526053
H            0.98431606307970        0.53995821208684       -1.85060706939320
H            3.53853008357272        0.55029767050575       -2.39320685611338
H            2.59395893881043        1.87640969139568       -3.05017089018739
H            1.21456378850094       -0.61362388158038        1.66172261999823
O            0.15779048624559       -1.10145495617874        3.23038329923941
H            0.05934703166610       -0.61288076465391        4.05231726860048
H           -0.44220266065992       -1.85297746629422        3.28279787938812
O           -1.27424425739836       -0.65142720424240       -0.44283272396457
H           -2.05680991686514       -0.11944693832185       -0.27116163945994
H           -1.56286020902571       -1.52399868795398       -0.72505241742722
O            5.04305829856784        2.34048046673724       -4.77410084413637
H            5.85663702139758        2.77047083162749       -5.06170914608525
H            4.97074089363686        2.53997651145320       -3.81424171558696
O            5.36503274670107        4.62526000804744        0.71330080767265
H            5.92582431959724        4.73055308725066       -0.06082613572394
H            4.68504144264198        3.96831157687575        0.43338877545639
28
 energy: -44.593307428370 gnorm: 0.008609898898 xtb: 6.7.1 (edcfbbe)
N            1.03363883919786        0.03510700656156        0.87339856335138
C            2.15955349764574        0.12278096221180       -0.07527614930465
C            1.75291331530371        1.02956649400821       -1.23489109074889
C            2.93797097786474        1.41007364227156       -2.11346528389211
C            3.87041736130615        2.44095601077026       -1.44834819104915
O            3.63395782805596        2.78157666457251       -0.26794466011945
O            4.82706370160835        2.87863850639146       -2.13008773618569
H            0.86137096717093        0.96887721017802        1.24948014905959
H            0.16799142558811       -0.27798933678692        0.37529467671124
H            2.41687395818953       -0.86882279643749       -0.44718664744962
H            3.03092817238298        0.55521813918942        0.41908935239370
H            1.34447619261634        1.95966509258482       -0.83249481766381
H            0.99161487425732        0.53984215935151       -1.84176398332895
H            3.54773546774293        0.54262133347670       -2.37560821132535
H            2.60459364518706        1.86065389564283       -3.05110569047596
H            1.18860410815689       -0.59823416105326        1.67304308914790
O            0.18307260015218       -1.16608371538590        3.22809419122905
H            0.07776524013498       -0.64360708249569        4.03411825224525
H           -0.43962967577571       -1.89939472091731        3.29360545178986
O           -1.27730234814917       -0.65929126132395       -0.45543616671243
H           -2.06897291604853       -0.14174013739745       -0.27917059107773
H           -1.55264194985671       -1.53381895023114       -0.74612972609039
O            5.02202512248963        2.35231199957427       -4.78924232640091
H            5.82844804420369        2.78618710560936       -5.08582563925399
H            4.95602122863001        2.55709597596081       -3.83082069167839
O            5.36394683904017        4.63903313771630        0.71791741864927
H            5.93523613088475        4.75435539122468       -0.04773269263568
H            4.69855624051966        3.97020120133296        0.42816951251283
28
 energy: -44.593530534008 gnorm: 0.007336173711 xtb: 6.7.1 (edcfbbe)
N            1.01863384785871        0.04784581202221        0.87727660982628
C            2.15673517206023        0.13620503672060       -0.05925153890421
C            1.76062196753740        1.03272517749783       -1.23144987790109
C            2.95078984319824        1.40534974633019       -2.10767707065896
C            3.87943479882883        2.44492691260467       -1.45093330750913
O            3.64673154830633        2.78910098913603       -0.27155828266593
O            4.82934954291295        2.88739259923421       -2.14047664616677
H            0.83291277392919        0.98096105073888        1.25019502813749
H            0.16204201472896       -0.27401187673712        0.36552407452979
H            2.42221943263817       -0.85692511825281       -0.42059845094444
H            3.02021584351296        0.57656105410596        0.44150094061385
H            1.34955966120877        1.96668792924910       -0.84029966403892
H            1.00375802494071        0.53802094205692       -1.83985795878770
H            3.56299496961734        0.53601201042059       -2.35742754130898
H            2.62127638251985        1.84439535596401       -3.05224675909487
H            1.16154729745272       -0.58845544358256        1.67873363118532
O            0.20690356921212       -1.22475432676473        3.24202486999751
H            0.09504910107424       -0.68808081107086        4.03597365582439
H           -0.43876974601506       -1.93803381187651        3.30279986524058
O           -1.27983814328276       -0.66934965477947       -0.47152204168989
H           -2.08053793220388       -0.16580394378659       -0.29476014886738
H           -1.54205192587173       -1.54684631568276       -0.76104999300519
O            4.99422056411335        2.36852193194553       -4.80556695203926
H            5.79121487066067        2.81084969951027       -5.11622293082305
H            4.94208002912890        2.56905290705588       -3.84592072051020
O            5.36825496757083        4.65037845993842        0.72495054789333
H            5.94764357173941        4.78493116077667       -0.03216796311432
H            4.71323684112198        3.97812229382532        0.41968898647827
28
 energy: -44.593729319865 gnorm: 0.008557046182 xtb: 6.7.1 (edcfbbe)
N            0.99741552398173        0.06248563807582        0.88459077053672
C            2.14998694824321        0.15412164191773       -0.03558595036794
C            1.76962086865279        1.03687162734586       -1.22412802632168
C            2.96912470686595        1.39667221289558       -2.09537112930809
C            3.89416177949315        2.44877291171513       -1.45258888803271
O            3.66824067919536        2.80065616681281       -0.27443996173308
O            4.83341100315277        2.89591000261304       -2.15469871509835
H            0.79881405216409        0.99479678754692        1.25498305346900
H            0.15257637260739       -0.26546864366689        0.35830536675905
H            2.42680851901310       -0.84084197355533       -0.38243263464056
H            3.00227713431281        0.60487334401154        0.47482164089762
H            1.35417843096304        1.97593649283602       -0.85076714851411
H            1.02004609314635        0.53485866548991       -1.83565734862170
H            3.58494506921431        0.52404654165281       -2.32548187106776
H            2.64643489946748        1.81785494324172       -3.05089811270459
H            1.12817437947969       -0.57960450304268        1.68409204222907
O            0.23705648997114       -1.29828877203892        3.25248728289407
H            0.11272845510537       -0.74484471637861        4.03055862628266
H           -0.42977590768639       -1.98659165803994        3.30183163090918
O           -1.28122620529635       -0.68571480001503       -0.48108108842677
H           -2.09736746591192       -0.20382733600678       -0.32031495897233
H           -1.51784874563088       -1.56733758001158       -0.79775167107238
O            4.94727649975762        2.40006060129822       -4.83060276677281
H            5.73386457449770        2.84444851826361       -5.15942346640445
H            4.92040467426289        2.58638654605141       -3.86661405312344
O            5.37917679173946        4.66640069516005        0.73618634854956
H            5.96366286023381        4.82720357233364       -0.01255822355016
H            4.73206040750371        3.99594284009365        0.41221961390195
28
 energy: -44.593844219379 gnorm: 0.009792658811 xtb: 6.7.1 (edcfbbe)
N            0.96842002887061        0.07831581883201        0.89196102245020
C            2.13886958964897        0.17517844200739       -0.00664573234811
C            1.77709506529791        1.04284806833878       -1.21242607345280
C            2.98838293635217        1.38423416321083       -2.07756065192567
C            3.91274773846104        2.44780737130917       -1.45149823940848
O            3.69372489048462        2.81293107167884       -0.27590181242503
O            4.83938503472602        2.89755221039165       -2.16897437972924
H            0.75810432707035        1.00969107408162        1.25990043591837
H            0.13713290841228       -0.25298322463115        0.34900029539905
H            2.43042284575388       -0.82114135949227       -0.33800533622169
H            2.97736703400560        0.63772310576008        0.51708722669959
H            1.35859292327978        1.98854452221154       -0.86022977512031
H            1.03489357011361        0.53348763974349       -1.82708417755977
H            3.60630278622540        0.50573439264116       -2.28278969425503
H            2.67565598221396        1.78454930704246       -3.04623690436316
H            1.08770132147252       -0.56931688617147        1.68910903681753
O            0.28078371878101       -1.37433089464837        3.24913637301681
H            0.15502949768612       -0.80655586868371        4.01034103206780
H           -0.42831198926750       -2.02769408640219        3.28412398487225
O           -1.27617035076918       -0.70507455400475       -0.51907438002738
H           -2.10385450136758       -0.24274482542805       -0.35518982523718
H           -1.49445145479534       -1.59253569873064       -0.80402498299278
O            4.89617678748858        2.42330071999944       -4.85409499707769
H            5.66407214293042        2.88868930824490       -5.20745198520035
H            4.89453858630706        2.60547718471653       -3.88811495767222
O            5.39000847125708        4.69003124836863        0.74646548141541
H            5.97920493839616        4.86772285369437        0.00550784433887
H            4.75440405946378        4.01433866251930        0.41235153371629
28
 energy: -44.593970135108 gnorm: 0.007260840716 xtb: 6.7.1 (edcfbbe)
N            0.96293287717055        0.07943271617571        0.89514100124367
C            2.13657455493693        0.17956727673408        0.00192593087803
C            1.77835348579007        1.04389037635758       -1.20612060249437
C            2.99189581136287        1.37943032585280       -2.07011959422167
C            3.91694593260851        2.44579583072894       -1.44968570421547
O            3.70285615041812        2.81132635017910       -0.27317639876514
O            4.84231508930632        2.89059846207325       -2.17057426296043