34
 energy: -56.556521511747 gnorm: 0.187377432351 xtb: 6.7.1 (edcfbbe)
H            1.42053100000000       -0.69343900000000       -0.45759400000000
C            0.31562500000000       -0.64091500000000       -0.57275600000000
H            0.37944700000000        0.34125600000000       -2.37510200000000
H           -0.02020400000000       -1.57726700000000       -1.06978300000000
N           -0.04283300000000        0.48932200000000       -1.43082700000000
H           -0.10434400000000       -1.52577500000000        1.34227500000000
C           -0.35607200000000       -0.58177200000000        0.80987700000000
O           -0.15503900000000        1.84564400000000        1.27779400000000
C            0.09900500000000        0.57829600000000        1.65429800000000
H            0.33459400000000        1.38391400000000       -1.05046800000000
O            0.66999200000000        0.37333800000000        2.71201200000000
H           -1.08151800000000        0.54834700000000       -1.53303300000000
H           -1.45918500000000       -0.54094800000000        0.69330800000000
O           -2.30678200000000       -0.70287900000000        4.88943600000000
H           -2.99037200000000       -0.53247800000000        4.19353500000000
H           -1.83197100000000        0.16057500000000        4.98749600000000
O            3.48506100000000       -1.42741700000000        2.18044300000000
H            3.51635600000000       -0.83405500000000        1.38826100000000
H            3.41241800000000       -2.34039400000000        1.80386700000000
O            1.99954900000000       -2.08610300000000        3.71040700000000
H            2.84377400000000       -2.19393800000000        4.21663500000000
H            1.72046600000000       -3.01112200000000        3.49346200000000
O           -0.70353100000000       -2.16586600000000        5.25977700000000
H            0.01381600000000       -1.50497000000000        5.43077600000000
H           -0.25670100000000       -3.04524200000000        5.34726800000000
O            2.44508400000000       -0.00858100000000        4.28693500000000
H            3.11608800000000        0.29022400000000        4.95107500000000
H            2.78460200000000        0.33136300000000        3.42103800000000
O           -2.00949800000000       -1.79789500000000       -3.36786200000000
H           -1.93454400000000       -2.76679500000000       -3.17753400000000
H           -2.92702700000000       -1.68504000000000       -3.72285200000000
O            0.80347800000000       -2.36432500000000       -4.91646700000000
H            1.48349000000000       -3.08220400000000       -4.86313600000000
H            1.30626300000000       -1.56870300000000       -5.22437200000000
34
 energy: -56.596028984804 gnorm: 0.093634362376 xtb: 6.7.1 (edcfbbe)
H            1.40186483926397       -0.68893315403689       -0.45113515183648
C            0.31260589625217       -0.65296264502130       -0.57894976304063
H            0.37119800129198        0.35724252612877       -2.37157312872768
H           -0.01422352828717       -1.57470035438900       -1.07617518428945
N           -0.04198039589881        0.48869886972330       -1.43492343725374
H           -0.11077526471372       -1.49392315015306        1.35323011574115
C           -0.35967642218035       -0.58198516467740        0.79358081252155
O           -0.15369969560984        1.80251443421097        1.20409489116872
C            0.07388376311704        0.60005790332205        1.64877623430011
H            0.30916014020391        1.37367769458820       -1.02823739054708
O            0.64771347678562        0.40393657601009        2.71718812885592
H           -1.06753809510795        0.54856912899325       -1.53219692978698
H           -1.44989723272224       -0.53961792769764        0.68111196773043
O           -2.37358773110470       -0.65145519803688        4.90507745449794
H           -3.00490327449937       -0.50167371366442        4.18255536978952
H           -1.84421385223522        0.16308696957799        4.96475197479406
O            3.57094178952375       -1.41703723390595        2.11820642598633
H            3.53650879378453       -0.83426728826180        1.34451913380197
H            3.42205137922607       -2.31829551782639        1.77647419473007
O            1.94001490634151       -2.16898659030671        3.77863797877972
H            2.81274157426991       -2.23033887006327        4.21181416499499
H            1.71359280444063       -3.07532050709267        3.50682515273915
O           -0.67193760774666       -2.20762435942602        5.29687606796840
H            0.02575045128338       -1.53534849515491        5.39789275059755
H           -0.21926109903173       -3.06402200177377        5.35819776730112
O            2.47020740559998        0.06013616494841        4.35489834948796
H            3.16908130700799        0.33614271568931        4.96873904269733
H            2.77162034207986        0.32288832770771        3.46607019371455
O           -2.02411991193523       -1.79928416897044       -3.34276512616249
H           -1.93629907018331       -2.75415717837720       -3.18935562496383
H           -2.91072404284036       -1.68654557213098       -3.72436103748940
O            0.82048288824744       -2.35952400194813       -4.90964125273146
H            1.47804541530496       -3.07339950923260       -4.86648149647892
H            1.30539005007200       -1.58339270875278       -5.23553364889042
34
 energy: -56.614099685492 gnorm: 0.035554422960 xtb: 6.7.1 (edcfbbe)
H            1.38976274013450       -0.68644296833357       -0.44988701256472
C            0.31059003026753       -0.66727365095951       -0.58553302394563
H            0.36451928409009        0.38403396449903       -2.36588820783383
H           -0.01232888119779       -1.57521194325950       -1.08901774801222
N           -0.04635668955740        0.48909375683384       -1.43443516440213
H           -0.11838347619844       -1.47274036068375        1.36559028095304
C           -0.36226898459625       -0.58854457509792        0.77713178349404
O           -0.17917247553359        1.77010446383364        1.12244446700805
C            0.09674327044125        0.63873247320452        1.59732854446113
H            0.27014171481047        1.36335870730069       -0.98307024601223
O            0.60063781664485        0.44525388778494        2.71344136100040
H           -1.06373222963066        0.54354436292556       -1.52880997641376
H           -1.44460420605259       -0.53200046529750        0.66964933284643
O           -2.43854247302927       -0.60408470083980        4.92419275866745
H           -3.02349519679181       -0.47796622367647        4.17222296086707
H           -1.85504484140601        0.16417145259465        4.94745600348323
O            3.64006559487915       -1.41691218073164        2.07922203549384
H            3.54659795258109       -0.83238784165049        1.32514073759302
H            3.43883521913874       -2.30400812764343        1.75978579088335
O            1.90754037558445       -2.24097158987199        3.79730438460716
H            2.78017885561517       -2.24153784306834        4.20728484150185
H            1.72009638733558       -3.13943501161201        3.51961636543874
O           -0.64719893025984       -2.24548981325079        5.33777549607576
H            0.04246349103499       -1.56497399791008        5.34652652990156
H           -0.18872598406828       -3.08670557389039        5.36925528483679
O            2.51256588364770        0.09163529196873        4.43317440941907
H            3.23514674820900        0.38103481933238        4.99517601778865
H            2.74369938206951        0.30748306133031        3.51994625450777
O           -2.03844869241912       -1.79700674151402       -3.31023593428735
H           -1.93529852973076       -2.74396189654229       -3.19591496685573
H           -2.89674212165144       -1.67816133929618       -3.72479270531939
O            0.83948869562405       -2.35330690712889       -4.90120985100904
H            1.47445339569276       -3.07116861916208       -4.86651067140740
H            1.30683487432250       -1.59399787018789       -5.25617113276477
34
 energy: -56.626068820510 gnorm: 0.050405403732 xtb: 6.7.1 (edcfbbe)
H            1.38402957252501       -0.68151843303043       -0.44592494132837
C            0.30781173226446       -0.67944308997619       -0.58586090568438
H            0.36519097639466        0.41794168167637       -2.35369554157121
H           -0.00353236655625       -1.57963749998013       -1.10693517824511
N           -0.05683218026481        0.48912688054180       -1.42632581372863
H           -0.12290080993924       -1.46176846434835        1.38265354266314
C           -0.37377250371587       -0.60061510298496        0.77072195802085
O           -0.10762158303582        1.76847529766012        0.96777805688519
C            0.02290910456152        0.68015147324435        1.58981007108255
H            0.21753036721473        1.35503169988681       -0.92392211999011
O            0.57476326956325        0.50520265915527        2.68700972021363
H           -1.07213007697651        0.52786832678119       -1.52820832097831
H           -1.45148866250761       -0.54796927003395        0.65213059787696
O           -2.52012776821277       -0.55103346391559        4.96653651461808
H           -3.03550278458747       -0.45782628295994        4.15031417376013
H           -1.85195709908324        0.16086592247436        4.92327206870542
O            3.72450132105690       -1.41713720998799        2.04744053941151
H            3.54753700597821       -0.82518851025607        1.30656880518986
H            3.44161674300765       -2.29268949688113        1.74767674463186
O            1.86629554651525       -2.31559619379903        3.81606446471949
H            2.75376777818499       -2.23825298480021        4.19157357044035
H            1.74414408700620       -3.22231829390351        3.52445363596164
O           -0.63315413234870       -2.27947968856648        5.40080073182637
H            0.05911329537133       -1.59247117764845        5.28293535143388
H           -0.15644738482051       -3.11338888909117        5.36987200350167
O            2.55366911535829        0.11311575550166        4.52731318181748
H            3.32345333153153        0.43586715622791        5.01547279132615
H            2.69260211675670        0.27818583896951        3.57713480761398
O           -2.05945026141633       -1.78655166449777       -3.24662463255922
H           -1.92715256273175       -2.74094105241644       -3.21236131197552
H           -2.88073347259892       -1.66339700684847       -3.73881774239490
O            0.86038504902998       -2.34077520708753       -4.87516654081777
H            1.47243710656766       -3.07714777688721       -4.87014333105959
H            1.31106412990770       -1.60252993221892       -5.29535795136691
34
 energy: -56.634117458003 gnorm: 0.057428797114 xtb: 6.7.1 (edcfbbe)
H            1.37997910170211       -0.68356931177263       -0.45347473662014
C            0.30145032592575       -0.69289107040193       -0.59344057380494
H            0.37421464049219        0.46051713431363       -2.33936902933152
H           -0.00233001066363       -1.59247860859345       -1.12514834539010
N           -0.07448001760859        0.48612212761129       -1.41806181502914
H           -0.12503660183447       -1.44744966028823        1.39930858513261
C           -0.37810936721490       -0.60392345113663        0.76290063890019
O           -0.08171247310925        1.77690702621118        0.86142540665942
C            0.04986751462527        0.71912144739976        1.52813874917352
H            0.15206153621233        1.34325421861978       -0.85331359831503
O            0.53158400118108        0.56866432170227        2.66528409856538
H           -1.09141010273492        0.49825212686519       -1.54001076660243
H           -1.45834147040968       -0.55026599803895        0.64617843078002
O           -2.55894898239243       -0.51372819060638        4.95594265994355
H           -3.06446644568791       -0.43439219883832        4.14318545905448
H           -1.89483408317376        0.17159934164937        4.94135764849540
O            3.78675946963621       -1.41498160013668        2.01684898341859
H            3.56342363415987       -0.81571748676841        1.29144370009794
H            3.45532572231768       -2.28169169221667        1.73557866863024
O            1.81380257649075       -2.39261868189291        3.82991606899070
H            2.72044350513701       -2.22208497363052        4.16866547751258
H            1.78549710710331       -3.32025230038723        3.52539104237204
O           -0.59213516696046       -2.30778395648596        5.38780417796106
H            0.07305956197605       -1.63391021070456        5.29221377601253
H           -0.12769774284439       -3.14575790927585        5.36957458908992
O            2.58964632575538        0.11656287901967        4.61413108662569
H            3.39037662589663        0.48202342521566        5.03763049975103
H            2.64757363194578        0.26561246882527        3.65040461681021
O           -2.07317118589109       -1.77593533569395       -3.19920329028096
H           -1.92178611660076       -2.73296906659534       -3.21563648425104
H           -2.86843222284381       -1.64136442354677       -3.73801783886089
O            0.88166136947159       -2.32112732526251       -4.83313284356047
H            1.46916096682967       -3.08653408170867       -4.87990765694773
H            1.31702237311164       -1.61305298345128       -5.34641838498214
34
 energy: -56.637125582284 gnorm: 0.091390000412 xtb: 6.7.1 (edcfbbe)
H            1.37278855574982       -0.68518995609916       -0.46817431812880
C            0.28910492101631       -0.69999962835244       -0.60452015613490
H            0.38794760601356        0.50385002583042       -2.32454088460012
H           -0.00719384427629       -1.60656009198426       -1.13696394588810
N           -0.09976594998429        0.48013197537829       -1.41632710826217
H           -0.12534928315584       -1.42237314879023        1.41165193006456
C           -0.38349711671573       -0.59288752106549        0.75532218246142
O           -0.05071583824985        1.79651256038477        0.79612950358019
C            0.10564968632208        0.75426216926943        1.45708597973232
H            0.07214135877483        1.32700160485936       -0.78222105958066
O            0.49583322500683        0.62935442976515        2.63667216915738
H           -1.11833414846439        0.45676266415520       -1.57150406952956
H           -1.46985158419588       -0.54804776208072        0.64768882523033
O           -2.64568920092526       -0.46527755673199        5.00355292631325
H           -3.08181910410946       -0.42758604738157        4.12751905019280
H           -1.88382571622337        0.15415006261501        4.90940906259090
O            3.83799984969483       -1.41136707365648        1.97073990074925
H            3.60335945085055       -0.80552731378369        1.26698770263973
H            3.48886800867551       -2.27010380098475        1.71369761207266
O            1.78479590766793       -2.47000255711156        3.81489170834813
H            2.65988894221624       -2.24500175781316        4.16961457304833
H            1.79965091997286       -3.40275755078641        3.53621454485690
O           -0.59694690813699       -2.33972981120170        5.50346595121282
H            0.09082330315518       -1.65999065641300        5.19011540830090
H           -0.09551572175358       -3.17575946552818        5.35341132752227
O            2.64250131027171        0.10672253731647        4.67874012168779
H            3.42445913202901        0.52160696690453        5.07034227336746
H            2.64618916595289        0.28926803422536        3.74340144578497
O           -2.07117214265962       -1.77375404940688       -3.20319949523042
H           -1.92486399949684       -2.71403603774439       -3.18528131293758
H           -2.86631236405150       -1.61443060962772       -3.70449409024030
O            0.89014284310782       -2.32077819046564       -4.86173152572289
H            1.47074166528638       -3.08972705963677       -4.87255683785855
H            1.32798507063498       -1.61457938405853       -5.33695039479906
34
 energy: -56.642413015276 gnorm: 0.071143575186 xtb: 6.7.1 (edcfbbe)
H            1.36438930063851       -0.68398980666538       -0.48100096823032
C            0.27917463551926       -0.69717825759624       -0.61132964108522
H            0.39242157158787        0.51848864759848       -2.31666478749757
H           -0.01182697231366       -1.61232581545941       -1.13286519511433
N           -0.11894215601730        0.47225046422736       -1.42477185572689
H           -0.12092263033044       -1.39846495795214        1.41251772806718
C           -0.38727193143755       -0.57530060488955        0.75266961257457
O            0.01011099933769        1.81282563727345        0.76809925550252
C            0.09141370711431        0.76536016746982        1.45307685139069
H            0.02065706237633        1.31323865409901       -0.76018484848913
O            0.50337741615965        0.65986770217086        2.61025774758958
H           -1.13325374542920        0.42576340541830       -1.60666800663844
H           -1.47502430305970       -0.54926750027331        0.64880878324518
O           -2.66653303771089       -0.44759645912877        4.98506651424784
H           -3.11501399007763       -0.40464653344702        4.13661406954107
H           -1.90603752168641        0.15520022179190        4.92179180968350
O            3.87026749100882       -1.41030872610035        1.94222415613968
H            3.63037548893871       -0.79776103235440        1.25407717049600
H            3.51236805088696       -2.26318569726453        1.69887698407885
O            1.79085937091221       -2.51302344730083        3.77937990767096
H            2.60987811127439       -2.28137671425629        4.18291574006437
H            1.79035039959680       -3.43465989057396        3.55637630237146
O           -0.55091703197109       -2.35585089459132        5.39926324289230
H            0.08761714264729       -1.68698064053615        5.24839248942769
H           -0.09952939605213       -3.19609425270554        5.40604542924738
O            2.68572091051580        0.08245230214073        4.71549486980535
H            3.44146115208856        0.54656686615168        5.08491679572313
H            2.62894428628287        0.31738072707620        3.79698086563405
O           -2.07933701158164       -1.76561567246940       -3.17224890873487
H           -1.92317992521181       -2.70541240392216       -3.18187512641268
H           -2.85809925379065       -1.59736986196177       -3.69781828928475
O            0.89694656022316       -2.32368757152032       -4.88547712565588
H            1.47547858311362       -3.08623779772741       -4.86590496549637
H            1.33409466644785       -1.61890425672237       -5.32884760702518
34
 energy: -56.639911668835 gnorm: 0.120340093903 xtb: 6.7.1 (edcfbbe)
H            1.35680309164456       -0.68412381623740       -0.49880480465989
C            0.27364199815350       -0.69261799622730       -0.61927957014654
H            0.38738634354302        0.51784601808483       -2.31353862201464
H           -0.02019824549170       -1.61552353565558       -1.11886117369910
N           -0.13321144030202        0.46388111716002       -1.43969780784099
H           -0.11148046613853       -1.37731061587440        1.41013971505681
C           -0.37916252128614       -0.55703708954232        0.75095450297438
O            0.06554311370404        1.81705503414078        0.74927921129899
C            0.06880820570497        0.76220486506449        1.46981694759304
H           -0.00743126187400        1.30087721991739       -0.77392645060115
O            0.51301614518826        0.68160879886429        2.60616702108534
H           -1.13653651655868        0.40426496199094       -1.64367292985300
H           -1.46438790804254       -0.53909689099113        0.64958416394612
O           -2.64120011890659       -0.43652320045801        4.94825417252536
H           -3.13225577909594       -0.39502637816609        4.15282616480128
H           -1.96200367094945        0.18301018917336        4.96625171940965
O            3.91817841733801       -1.41590626439467        1.94049060270493
H            3.61998699846401       -0.79131164723005        1.25847939092273
H            3.49898052533283       -2.26280167996261        1.70053044681803
O            1.76703251585914       -2.55582610543477        3.73759859374378
H            2.58479240791206       -2.21096931258939        4.16302459408848
H            1.85620133927049       -3.51321482895983        3.58483053497627
O           -0.55277142718213       -2.37860293913950        5.44436298003104
H            0.10219043909887       -1.70160343839444        5.19895073505827
H           -0.09890328678358       -3.21541057589553        5.42854299815603
O            2.71757667997753        0.02893130279657        4.76471597040253
H            3.47936971798653        0.57940793675264        5.07290920202073
H            2.51991994148394        0.33213313346714        3.81739217945424
O           -2.10607573619377       -1.74169578649097       -3.06973967789932
H           -1.91008725031947       -2.70913414793806       -3.22099507111773
H           -2.83578361905516       -1.58397624727205       -3.73177424985785
O            0.91886328486248       -2.30392496049246       -4.81022395818161
H            1.47852332272888       -3.08796044334332       -4.87792997314349
H            1.33469275992707       -1.63746667672384       -5.40846855805109
34
 energy: -56.646892020139 gnorm: 0.071614619445 xtb: 6.7.1 (edcfbbe)
H            1.35319832050431       -0.68199235503327       -0.50900193266690
C            0.26904145147590       -0.69392022537765       -0.62203579242123
H            0.38352841734208        0.52538311912924       -2.31178256049373
H           -0.02952220247106       -1.62018638978669       -1.11273286070141
N           -0.14486134235503        0.46096923973274       -1.44265368391559
H           -0.10552213741776       -1.37107684503323        1.41678774988996
C           -0.37288314477477       -0.55351254206734        0.75261573774240
O            0.07201915863992        1.81700113710407        0.72878429047211
C            0.09245304782018        0.76954130056742        1.45184496463161
H           -0.02833553018841        1.29674960806480       -0.77113344082662
O            0.49984690015975        0.70283051586585        2.61390022464335
H           -1.14521173396861        0.39103740764421       -1.65816999395575
H           -1.45873854947112       -0.52881334219568        0.65611208232507
O           -2.71228642619790       -0.41715191811480        5.00636864051406
H           -3.12147072345864       -0.39523520015862        4.11852024155224
H           -1.92789009080306        0.15950297678744        4.94151958702051
O            3.92885289765547       -1.41490137704947        1.92861298568579
H            3.62893263380406       -0.78826095036465        1.25135634384296
H            3.50744789177245       -2.25971383521737        1.69466645906837
O            1.75176688756659       -2.57342112038484        3.73277926679169
H            2.57979459203551       -2.19423656440611        4.14458240110001
H            1.88390392091121       -3.54506379794083        3.58922693553916
O           -0.55060500486297       -2.37732545395533        5.43126217106010
H            0.09930682962955       -1.71264340793107        5.21180035302330
H           -0.10250365573035       -3.22057415693114        5.43097155851636
O            2.71320821581073        0.04104277939469        4.76672355123552
H            3.45986705369241        0.55997094732910        5.09439455647146
H            2.56155741446779        0.32502706511031        3.84643335790511
O           -2.07720196192327       -1.74998504013178       -3.15689976410773
H           -1.92445281326843       -2.68436164263112       -3.16051539229427
H           -2.85197012526672       -1.57094045911286       -3.67423594492754
O            0.92106752103764       -2.30362897215461       -4.81421903038266
H            1.47958319591005       -3.08985797912658       -4.87624879671160
H            1.33809709192291       -1.63809652162595       -5.41144526562404
34
 energy: -56.638457366124 gnorm: 0.145807662437 xtb: 6.7.1 (edcfbbe)
H            1.35233494757723       -0.67651222970239       -0.52505960118007
C            0.26322526266005       -0.69312329147328       -0.62626672628074
H            0.38582572660529        0.54140824749514       -2.31236456013787
H           -0.04147893997249       -1.62603068465074       -1.10789456274987
N           -0.15902360702513        0.45929649026196       -1.44630016095782
H           -0.09571241943164       -1.36633087110911        1.42228848611339
C           -0.36531563300160       -0.54741444513058        0.75551734602327
O            0.05729763909148        1.82181003834275        0.73486873769567
C            0.14861321218902        0.77960903931943        1.41254288015547
H           -0.05171154338397        1.29342914720015       -0.76352239422300
O            0.48470350776058        0.72475026662451        2.61621954895026
H           -1.15882648026831        0.37379228007752       -1.67935418950670
H           -1.45581262419124       -0.51432333082012        0.67018994881575
O           -2.73282700027252       -0.41115614522231        4.99724240635808
H           -3.15757997597112       -0.38634467085288        4.12947313173546
H           -1.94632007570866        0.16204784968510        4.94709902960223
O            3.90459995143894       -1.40898477684252        1.90086659170177
H            3.67774070443990       -0.78735360557988        1.23645045169457
H            3.54935700640487       -2.25276864553908        1.68119519816044
O            1.78897952736021       -2.56729084698357        3.73784934616859
H            2.56880504136901       -2.33324273959116        4.14602664209686
H            1.81194737950210       -3.48333329266735        3.57306541906888
O           -0.55215689320906       -2.38813358852344        5.48283849512061
H            0.11810445413056       -1.73632959427747        5.17390885962072
H           -0.08500550719957       -3.24092652396378        5.41488820722471
O            2.71169024119411        0.06742476252984        4.76265142558346
H            3.44320320064193        0.54685610449859        5.10923282866194
H            2.61554007979917        0.33011825620008        3.89028661044129
O           -2.10041846846552       -1.73359930096926       -3.08114934653642
H           -1.91864420079818       -2.68275409377725       -3.17683465487990
H           -2.83841630922930       -1.55723786850610       -3.68942535291764
O            0.90899250071668       -2.32953657047325       -4.92471288751337
H            1.48621327394221       -3.08814811849188       -4.85677888836846
H            1.35209402130586       -1.62551124708874       -5.31684926573886
34
 energy: -56.649301787936 gnorm: 0.062024002155 xtb: 6.7.1 (edcfbbe)
H            1.34982071264618       -0.67759661701570       -0.53281662422987
C            0.26256486302548       -0.69427573353084       -0.62851863995991
H            0.38167816885021        0.54144088005357       -2.31101134347294
H           -0.04425885091442       -1.62693675410477       -1.10491552742762
N           -0.16378068112737        0.45600006147238       -1.45000463863112
H           -0.08918126219267       -1.36252954288156        1.42123045530468
C           -0.35942435077402       -0.54455533184535        0.75616722058086
O            0.07580144619833        1.82172146252447        0.71810707421075
C            0.12385187356169        0.77888740945022        1.42846526294585
H           -0.06003637364203        1.29042966337191       -0.77104042051526
O            0.50039925689514        0.73172742043525        2.60757687231431
H           -1.15905736847193        0.36573662605204       -1.68760448039831
H           -1.44782608794870       -0.51123793900822        0.67402654211871
O           -2.72951482153758       -0.40481277114419        4.99360270657821
H           -3.16181565279960       -0.37917433076194        4.13988590112527
H           -1.95765184192794        0.16716373750139        4.94972109042409
O            3.94511709064091       -1.41111404016265        1.90569771678574
H            3.66541874226250       -0.78067925920580        1.23771063345126
H            3.53058719914547       -2.25362450549058        1.68116453080903
O            1.76630603969114       -2.58963540227980        3.71748756523354
H            2.56791714280370       -2.27711604236175        4.13655892935634
H            1.84582697637400       -3.53367464864876        3.57985875782098
O           -0.54939171733306       -2.38857749426464        5.47191351457745
H            0.11689661507152       -1.74331802582503        5.19041864664596
H           -0.09532215614296       -3.24127482417483        5.41462128921719
O            2.73719495017699        0.02369738345331        4.80073912962324
H            3.48662387803006        0.57733122559875        5.10113422956155
H            2.52331833977202        0.33431789429401        3.88118422463526
O           -2.08433286121944       -1.73381903349333       -3.11745751296663
H           -1.92282043307927       -2.67093157624442       -3.14961469392715
H           -2.84444801438081       -1.55108104967768       -3.66262353155371
O            0.90847161556987       -2.33564144936944       -4.92790026156467
H            1.48914133640616       -3.08981958355915       -4.85339193533808
H            1.36194422637123       -1.62287180915777       -5.32218368333219
34