37
 energy: -59.765998629946 gnorm: 0.173197178629 xtb: 6.7.1 (edcfbbe)
N            0.05814800000000       -0.92758300000000        1.46960700000000
C            0.21195900000000        0.51002000000000        1.25738900000000
C           -0.42029600000000        1.02660100000000       -0.05399500000000
C            0.23290900000000        0.51099500000000       -1.35178600000000
C           -0.12525300000000       -0.89643600000000       -1.75561800000000
O            0.43258500000000       -1.42088200000000       -2.86197900000000
O           -0.94795900000000       -1.55110300000000       -1.13717200000000
H            0.42854800000000       -1.16686800000000        2.41684100000000
H           -0.95187600000000       -1.19383100000000        1.43153800000000
H           -0.27873900000000        1.04478500000000        2.10014800000000
H            1.29199600000000        0.77262900000000        1.27882300000000
H           -0.26331200000000        2.12751800000000       -0.03828000000000
H           -1.51695700000000        0.85134800000000       -0.07337000000000
H            1.33463900000000        0.61768200000000       -1.26361400000000
H           -0.10456000000000        1.15854300000000       -2.18948000000000
H            0.61816600000000       -1.46341800000000        0.77094700000000
O           -2.68977100000000       -2.79974100000000       -1.95634800000000
H           -2.25738800000000       -3.68357300000000       -2.06814000000000
H           -2.94958200000000       -2.76967600000000       -1.00125200000000
O            2.55477900000000       -3.42126200000000       -0.58650200000000
H            2.13828600000000       -3.40941400000000       -1.48483600000000
H            1.87121700000000       -3.83501700000000       -0.00155500000000
O           -2.84434800000000       -3.15399000000000        2.15333900000000
H           -3.02758500000000       -3.56306100000000        3.03634300000000
H           -2.96073400000000       -2.18179600000000        2.30134300000000
O           -1.29494900000000       -1.01090000000000        5.73709000000000
H           -1.62050100000000       -0.51184200000000        6.52801800000000
H           -0.88008700000000       -1.82785500000000        6.11270600000000
O            2.48992000000000       -1.13617600000000       -4.75895800000000
H            2.16229700000000       -1.94695800000000       -4.29430000000000
H            2.84975000000000       -0.56386500000000       -4.03535900000000
O            0.71318500000000       -0.84554400000000       -6.69744500000000
H            0.99605100000000       -1.70926900000000       -6.30428400000000
H            1.34062200000000       -0.18161100000000       -6.31517700000000
O           -0.73419200000000       -3.34493600000000        3.65983400000000
H           -1.13590400000000       -2.45384000000000        3.50113500000000
H           -0.88436700000000       -3.83884200000000        2.81477900000000
37
 energy: -59.795242338659 gnorm: 0.091307564906 xtb: 6.7.1 (edcfbbe)
N            0.06262342931742       -0.92865515605494        1.47148903359020
C            0.21178207491174        0.51894257960467        1.25673171323892
C           -0.40723518690903        1.03456588066327       -0.04929101338706
C            0.24014423404904        0.52952753990941       -1.34875918929674
C           -0.12826042695428       -0.88613118191699       -1.76083151790705
O            0.46935995881043       -1.39434385745675       -2.79313654745551
O           -0.88369119949127       -1.56403498525332       -1.05291685702180
H            0.42325094924994       -1.18331520281622        2.40688467597653
H           -0.93074923337344       -1.20259114054039        1.40432608710218
H           -0.27411785669001        1.04285011931818        2.09023166599840
H            1.27903926274660        0.77231909955573        1.27088089769957
H           -0.27894798751117        2.12454115846170       -0.03815085780029
H           -1.48565657771714        0.83245243496799       -0.07431632885911
H            1.33151310643835        0.62006167508840       -1.28374540965752
H           -0.09178002955136        1.16289347447022       -2.18231570417662
H            0.59674163982418       -1.45739397707755        0.76596444045198
O           -2.80358428789236       -2.86675101687992       -1.98276403562011
H           -2.26109241627957       -3.67750565421730       -2.06757531267368
H           -2.94623859144059       -2.78442210441985       -1.01639516555732
O            2.53339117407217       -3.40053096253615       -0.58780452874434
H            2.13679259684339       -3.40174314031390       -1.47351559685244
H            1.88474339782654       -3.85488305168486       -0.02208928903436
O           -2.87811439946815       -3.13484456585688        2.14102597526365
H           -3.04612851321749       -3.55977995900662        3.00152180892627
H           -3.00286800893681       -2.18591636428403        2.30457223222098
O           -1.29525151912079       -1.01401995368847        5.74196497401790
H           -1.61374995425641       -0.52034803391180        6.51466870614828
H           -0.88441478703571       -1.81702282794737        6.10284650750478
O            2.57949461002727       -1.16530841946834       -4.74914543230809
H            2.12862212155467       -1.89945170764597       -4.27907562446535
H            2.84276602524869       -0.56218748096396       -4.03084203708879
O            0.71385939267679       -0.84332961940353       -6.73467339610400
H            0.96913489365630       -1.68625626254650       -6.32391617977167
H            1.31677492126931       -0.19793933531265       -6.32538233151196
O           -0.65863680985567       -3.33010232700481        3.65365718415526
H           -1.12672903742809       -2.47843711548176        3.54456431859997
H           -0.88608996539351       -3.83007655834904        2.84574213439892
37
 energy: -59.804894243929 gnorm: 0.048238740922 xtb: 6.7.1 (edcfbbe)
N            0.06791439393477       -0.92565200816373        1.47235918769530
C            0.21762555773936        0.53349572565322        1.25722552960269
C           -0.40083167313384        1.03994528961451       -0.04243439384088
C            0.25522977871994        0.53493128697940       -1.33192824340841
C           -0.03718632151269       -0.93782671281744       -1.69823572604094
O            0.42787245085173       -1.32981037715810       -2.77636223513426
O           -0.82127639643228       -1.57879369612812       -0.96827112080594
H            0.41590951206923       -1.20103727648686        2.39594947901319
H           -0.91020790503481       -1.20653367499228        1.36418677306923
H           -0.26866481011490        1.04301619734973        2.08299032839927
H            1.27570840742318        0.77275027232696        1.26534065229548
H           -0.30588564372711        2.12206683520950       -0.03575095409173
H           -1.46094910224278        0.79849824595024       -0.07723670156722
H            1.33507338548243        0.63048037495306       -1.28758678526589
H           -0.08146587300080        1.14170658708698       -2.17246463889471
H            0.57065039397225       -1.44692995372954        0.75177753930169
O           -2.85843496534942       -2.91558786527218       -1.99939243901078
H           -2.28320931297021       -3.68049969482099       -2.07828407889625
H           -2.95838451824606       -2.80037253416666       -1.04823426250912
O            2.50721574106439       -3.37861366542109       -0.58766155149111
H            2.13196124168618       -3.37942600091230       -1.46358650503111
H            1.89754673619411       -3.88227007962913       -0.04213032752557
O           -2.86444730268538       -3.10801031271575        2.14667894007196
H           -3.09213008681475       -3.56141916256334        2.96360775534943
H           -3.07137818007322       -2.18573665793321        2.30614513229001
O           -1.29841652577736       -1.02026824160698        5.74162829872069
H           -1.60975476706378       -0.52395045955796        6.49392040613405
H           -0.88510050655836       -1.80838894197011        6.08792814610712
O            2.59222102155895       -1.16735583297931       -4.72800025595414
H            2.11777254275983       -1.85954876097457       -4.26113884596042
H            2.86353077755691       -0.56726924733599       -4.04265740061305
O            0.70261894520821       -0.83586521742184       -6.75264602868729
H            0.94899963539022       -1.66921937260781       -6.35706716561661
H            1.30624513504060       -0.21332133735085       -6.34642008755090
O           -0.60358386024493       -3.31630213469259        3.64819766687681
H           -1.10925785847613       -2.49423757488776        3.59143207274659
H           -0.87683304719331       -3.81181202082783        2.86855184022277
37
 energy: -59.810307077598 gnorm: 0.073282027827 xtb: 6.7.1 (edcfbbe)
N            0.07104941431426       -0.92542830669809        1.46911671354574
C            0.22741228964948        0.53636816208864        1.26601019679510
C           -0.40243518074662        1.03568582639534       -0.03090137815545
C            0.25619435494720        0.53190917163558       -1.31666276028359
C           -0.04809440287645       -0.94341987560668       -1.71035123081384
O            0.48012736300002       -1.34936706011901       -2.74690216343528
O           -0.76365402748975       -1.62015700009452       -0.92538132506202
H            0.41247672106732       -1.21708055402214        2.39120598951263
H           -0.90824433526785       -1.20440510778218        1.33926716556835
H           -0.26160579171895        1.04156561667571        2.09557851010178
H            1.28913382995865        0.77128046809257        1.27041605003749
H           -0.32564794928175        2.12249937606761       -0.02390079865173
H           -1.45943041761820        0.77071927723285       -0.07083110775625
H            1.34054429238915        0.63100053357970       -1.27826178736753
H           -0.08592691469887        1.13739583365566       -2.15759797254777
H            0.56613883720850       -1.44036674245219        0.73417243596444
O           -2.90095825640998       -2.93968061901049       -2.00993968423841
H           -2.28606695657446       -3.67870003219945       -2.09526369654793
H           -2.95690417366149       -2.79912217742563       -1.05345392751280
O            2.47476532202585       -3.31884854684445       -0.57729172065465
H            2.12936509875002       -3.36118463180340       -1.47139917730316
H            1.91373903525915       -3.93921384252204       -0.05953458240591
O           -2.83015989991540       -3.07671912942483        2.15065535311755
H           -3.14708146455974       -3.57837661431402        2.92610971539604
H           -3.15670922161363       -2.16911607320284        2.31434058707636
O           -1.30480257956809       -1.02727234658678        5.72586916394647
H           -1.61195829300233       -0.51807850730474        6.47627018583358
H           -0.87827986642622       -1.81192002611482        6.07380965932923
O            2.66275921829594       -1.19645281432197       -4.72312205870422
H            2.04930082531109       -1.80778653462790       -4.22465364893906
H            2.87476353691146       -0.53937727241861       -4.04863552174969
O            0.69887152436317       -0.82547096937086       -6.79024995377355
H            0.91400470815817       -1.67250119852112       -6.39274972198397
H            1.30295878178093       -0.21339091649443       -6.35937507558842
O           -0.51055769177332       -3.29067738314047        3.63478038909091
H           -1.10621004415188       -2.50096992645195        3.65393974662762
H           -0.88218068603510       -3.80250805654932        2.88534743153200
37
 energy: -59.810877753268 gnorm: 0.067193098693 xtb: 6.7.1 (edcfbbe)
N            0.07515044918443       -0.92631136703611        1.47084048143059
C            0.23569691320482        0.53623460881453        1.28013748407184
C           -0.40474858534738        1.02567444060241       -0.01667577667302
C            0.26093078699148        0.52613068056260       -1.29728859100418
C           -0.05641834511808       -0.94753053740520       -1.72472093533362
O            0.56142096647708       -1.38189809420981       -2.71779776400742
O           -0.70912060145102       -1.66033480637635       -0.90438759734619
H            0.40977364873555       -1.23691286941434        2.39160290625097
H           -0.90636668935557       -1.20351989421326        1.32063669335547
H           -0.25240449762503        1.04096062333449        2.11556337143402
H            1.30178233687292        0.77049102868315        1.27786427098644
H           -0.35166311215517        2.11912385901669       -0.01226008780148
H           -1.45867982623957        0.73580044271498       -0.05868906405062
H            1.35058655870719        0.63158554833530       -1.25654619642313
H           -0.08399239027187        1.12745139160634       -2.14366997287009
H            0.56475413283472       -1.43421290515567        0.72003587613413
O           -2.96939217299667       -2.98127069707551       -2.03044388227217
H           -2.28313758958604       -3.67927392370954       -2.11884746897452
H           -2.95115898283726       -2.79811586767353       -1.06194307271402
O            2.46259676681455       -3.32293480838346       -0.57320901393707
H            2.12160203774013       -3.33064663188235       -1.47406597003663
H            1.90520239977997       -3.93538604950277       -0.06583753910232
O           -2.90547439686497       -3.04948186329596        2.13583784865017
H           -3.18203721456944       -3.57638822144408        2.89953807546069
H           -3.19924217399398       -2.14917136693392        2.31754664351406
O           -1.31533553358099       -1.03665693133064        5.70023050274188
H           -1.61789935803862       -0.50962606216431        6.44926299020017
H           -0.87030716650816       -1.81529426361245        6.05651916482365
O            2.59260112801887       -1.15615242450767       -4.69683939645184
H            2.10002464472347       -1.79887173825693       -4.21149360960242
H            2.91316982540387       -0.51788015338211       -4.05817236924009
O            0.69557604650427       -0.81301736733091       -6.83504213270011
H            0.87053270769553       -1.67742114709898       -6.43208074061190
H            1.29920466759045       -0.21269952237601       -6.37080493979692
O           -0.52825461507834       -3.29694039857886        3.67545526509437
H           -1.02229676823897       -2.48056653347883        3.68806314715903
H           -0.81597899742125       -3.77410417784325        2.90211139964175
37
 energy: -59.816233460728 gnorm: 0.029683806497 xtb: 6.7.1 (edcfbbe)
N            0.07797999587209       -0.92968539405946        1.47860972255611
C            0.23448073282582        0.53106613277881        1.29019551511026
C           -0.40809010904768        1.01431153748208       -0.00904134953292
C            0.27234698815734        0.52019544122891       -1.28484985077283
C            0.00461946050689       -0.97048042192687       -1.68514677676009
O            0.58441667747856       -1.38216788131066       -2.72033443382579
O           -0.70560068350892       -1.65410657164990       -0.92894423727609
H            0.41327639857372       -1.24478754821952        2.39746426000225
H           -0.90376103619124       -1.20645813281693        1.33003037200699
H           -0.24703930646271        1.03832435154042        2.12916892276363
H            1.30022688810178        0.77014375162321        1.28383777672204
H           -0.36837247278374        2.10930281311051       -0.00788471213433
H           -1.45997339041680        0.71674872660308       -0.04526960254972
H            1.35880404014441        0.64232305340506       -1.23075187719956
H           -0.07497447350558        1.10871658519981       -2.14207457534689
H            0.56822538478661       -1.43449514810695        0.72415091851710
O           -2.94975561140126       -2.98945039202706       -2.03547638830964
H           -2.31915476813502       -3.70374916362822       -2.14114626925167
H           -2.98809126670767       -2.81997116774195       -1.09056819376539
O            2.46022026533555       -3.33540732771029       -0.57860374855761
H            2.11187995072566       -3.30539000836768       -1.47594362419060
H            1.89675139976723       -3.91984964860941       -0.07594207043917
O           -2.93661415536102       -3.03351504860772        2.13381913821947
H           -3.19452269457700       -3.57135683718791        2.88892174834462
H           -3.22048706796111       -2.13992818395558        2.32385200796341
O           -1.32119894110049       -1.04408486022073        5.68256156202825
H           -1.61758244549932       -0.50929146152139        6.43055816965708
H           -0.86507194610741       -1.81471777961010        6.04710324181203
O            2.62860991370698       -1.16574531966503       -4.69908361938743
H            2.04644625934175       -1.75095055412644       -4.18120027994338
H            2.93111577412273       -0.49619364931779       -4.07408146497761
O            0.69015481420289       -0.80728278569170       -6.85550397609490
H            0.85239030451825       -1.67864082917561       -6.46114315148790
H            1.29978676981213       -0.21717783215540       -6.38423568053118
O           -0.47618062939592       -3.27895703209881        3.66819064121603
H           -1.01674770333469       -2.47816464612462        3.73212411106788
H           -0.82181631648178       -3.75829476734088        2.90706777434707
37
 energy: -59.814930212686 gnorm: 0.096521271704 xtb: 6.7.1 (edcfbbe)
N            0.08193811839327       -0.93882360723155        1.49222024885958
C            0.23418251801536        0.52013042442080        1.29822254208308
C           -0.41059721726610        0.99112201651659       -0.00386581405933
C            0.28305425018313        0.50387307663018       -1.27651853356262
C            0.06043523202000       -1.00357628899432       -1.65283875853969
O            0.60997843797998       -1.38641909901567       -2.70823970062718
O           -0.70318237770514       -1.66424022836414       -0.94975212468858
H            0.41641637253956       -1.25699915506205        2.40699611154275
H           -0.89685264789168       -1.21480738997698        1.34463558136400
H           -0.23847749948409        1.03099587542428        2.13687057205062
H            1.29631047950256        0.76314222754893        1.28788506395016
H           -0.38636005993985        2.08308988998467       -0.00734413461528
H           -1.45675911288110        0.68570527134343       -0.03308624522775
H            1.36329975077374        0.63918141705223       -1.20931378499879
H           -0.06053956799812        1.08446402443922       -2.13807226036183
H            0.56877458295453       -1.44218395986339        0.73769913137127
O           -3.01233310048784       -3.02620559499378       -2.05491874662383
H           -2.30831574524038       -3.69520649134404       -2.16281463443058
H           -2.96543287909970       -2.81786090548411       -1.09721097656293
O            2.41114300016888       -3.24337422904473       -0.56130590241826
H            2.09973806553807       -3.26875038036239       -1.47213875257936
H            1.92092829140184       -4.00380474030741       -0.10801829650474
O           -2.84861513596365       -2.99176404501473        2.16246698609349
H           -3.24168082253005       -3.58329821790564        2.85563217725961
H           -3.31309666994702       -2.12465984808856        2.34928980681660
O           -1.32594726479437       -1.05883762138580        5.65650293452206
H           -1.61523039505472       -0.51385583645851        6.39467851945655
H           -0.85703209792693       -1.81179083890710        6.03299002599634
O            2.61445059149723       -1.14077582175336       -4.69654082454461
H            2.01869654261437       -1.68866449448336       -4.15889226531516
H            2.96455926562705       -0.47456076649397       -4.09974674053052
O            0.67079042454346       -0.80190513711026       -6.85947267441806
H            0.84543785313487       -1.67622498039550       -6.50272321623419
H            1.30285096793729       -0.22883290012669       -6.41324984112705
O           -0.40443373402441       -3.23432748518102        3.64577130064254
H           -1.03263086600207       -2.47084237299103        3.78810566042089
H           -0.84877055058684       -3.72827978702391        2.91652756553967
37
 energy: -59.820663575873 gnorm: 0.049518020223 xtb: 6.7.1 (edcfbbe)
N            0.08493877970574       -0.94536738225184        1.49856419032802
C            0.23771126623508        0.51367422649258        1.30339288078537
C           -0.41020943918977        0.97987867130190        0.00154122424026
C            0.28863554390898        0.49901078340964       -1.27064064185359
C            0.05466059316833       -1.00287538446847       -1.66325812667116
O            0.64360305313450       -1.39744864096143       -2.68490031213008
O           -0.67254402594215       -1.68741944033946       -0.92807136753342
H            0.41737510342952       -1.26740563566488        2.41213534181223
H           -0.89319184835301       -1.22118506486509        1.34856501966332
H           -0.23524803183337        1.02458084221844        2.14113847110962
H            1.29919512679908        0.75739464245513        1.29229477158128
H           -0.39563161734742        2.07124508912658       -0.00176442276932
H           -1.45347680324389        0.66470603732217       -0.02983393710507
H            1.36872290070943        0.63767179182413       -1.20347961637492
H           -0.05603946832412        1.08087750767733       -2.12834407252219
H            0.57006094618215       -1.44811935592954        0.74360070220551
O           -3.01476172297213       -3.03796889957154       -2.05902839136210
H           -2.32402450235666       -3.70354365617381       -2.18054124233726
H           -2.97898341934495       -2.82755379594882       -1.11266572623946
O            2.42124533296528       -3.28747001988503       -0.57514135366034
H            2.08485596627521       -3.23814188951608       -1.47197092323166
H            1.90199067905200       -3.95865160033726       -0.10991696000495
O           -2.90642683270335       -2.98759369829821        2.16509734813924
H           -3.23860520761072       -3.56379970069670        2.86748669605744
H           -3.29603510583978       -2.11899508881502        2.34788392213604
O           -1.32849888837970       -1.06919186820747        5.64082788718192
H           -1.61585774461401       -0.51489121138049        6.37183067525637
H           -0.85130352447655       -1.81207559831530        6.02521059574145
O            2.64419892439753       -1.14644982820060       -4.70092092349878
H            1.96445474726366       -1.63245046432759       -4.13605877564478
H            2.97898788449090       -0.45548825963708       -4.11775112205274
O            0.66412185438032       -0.79685163917615       -6.86760091374532
H            0.83575077930353       -1.67780038163807       -6.52889923171822
H            1.30787431407725       -0.23572531914534       -6.42503392152225
O           -0.43503172303669       -3.22523547124495        3.66302839964290
H           -1.00175544982880       -2.45111756116564        3.78830664536648
H           -0.82406144008015       -3.70739073567019        2.92534721072897
37
 energy: -59.809104089756 gnorm: 0.148844550682 xtb: 6.7.1 (edcfbbe)
N            0.08695883521461       -0.95429368675996        1.50789000084029
C            0.24057947874474        0.50402756238707        1.31121568199663
C           -0.40869595150353        0.96682611683838        0.00873202950997
C            0.29947526976860        0.49329762809691       -1.26097068619468
C            0.04782231395478       -0.99528477419525       -1.67471789329325
O            0.70124055069009       -1.42066663216974       -2.65357530689188
O           -0.62446062999662       -1.71595305751322       -0.89520200626406
H            0.41781179807110       -1.27957456336689        2.42245073544198
H           -0.89283512750351       -1.22946598227210        1.36114678536662
H           -0.23622331149261        1.01724415830015        2.14698785755473
H            1.30284721996814        0.75032341179963        1.29922737719674
H           -0.40913603828802        2.05962554675724        0.00448101757361
H           -1.44881342569261        0.63375359311781       -0.02980182423849
H            1.38087303235149        0.63941114085103       -1.19426079117200
H           -0.05068456463430        1.07339751025503       -2.11723517272779
H            0.57445771496665       -1.45803535874569        0.75457093833524
O           -2.97195647807151       -3.04720706586102       -2.05613639349751
H           -2.37225720388638       -3.73711850568175       -2.21156536867727
H           -3.03063943974741       -2.86366579182752       -1.15093876137827
O            2.41862307865405       -3.31417348808507       -0.57677525604747
H            2.06721555684129       -3.20092425269009       -1.46760717412953
H            1.88252751676928       -3.92684722030124       -0.11830455743687
O           -2.96559850989213       -2.97583307336074        2.17378964736413
H           -3.24284888484461       -3.54093998311321        2.87770058733793
H           -3.27624730590791       -2.11043206252556        2.34817871906079
O           -1.33385978681632       -1.08341287578036        5.61656238162656
H           -1.61817480097113       -0.51166868555697        6.33832274191810
H           -0.84225560341481       -1.81156967559861        6.01624426220563
O            2.54643453993662       -1.07171246855968       -4.68721693851284
H            2.05478932560705       -1.62662889997960       -4.15976835211812
H            2.99309062480022       -0.43552922700373       -4.11613309042790
O            0.66817328367760       -0.78548355756230       -6.89950096464005
H            0.79904568899415       -1.68295154239345       -6.56186591672271
H            1.31435850519122       -0.24699648273759       -6.41790717675714
O           -0.33753152874160       -3.16917122571516        3.62403538639570
H           -1.03085818190505       -2.44733657505416        3.84301623818729
H           -0.86655056089037       -3.68419795399753        2.93536124321301
37
 energy: -59.823247802945 gnorm: 0.031688666302 xtb: 6.7.1 (edcfbbe)
N            0.08748473667585       -0.95843857236831        1.51049995362504
C            0.24033061638838        0.49876964893668        1.31339053355548
C           -0.40897027946693        0.96068082792278        0.00987703729364
C            0.30151883006668        0.48505480691618       -1.25840057285882
C            0.07682514298232       -1.01187508164020       -1.65146459259034
O            0.70133379067429       -1.42187245111227       -2.65766225367064
O           -0.63912804140911       -1.71363911614998       -0.91525945689179
H            0.41910846569366       -1.28390254831958        2.42585350587523
H           -0.89332035771211       -1.23237892769620        1.36911159144093
H           -0.23604794491846        1.01371636670661        2.14898360263166
H            1.30273922045562        0.74668536073169        1.30130822267042
H           -0.41113326170480        2.05372173093363        0.00459129753048
H           -1.44850744552454        0.62588796290813       -0.02836586973216
H            1.38150596812354        0.63769121315894       -1.18748651600681
H           -0.04838149702140        1.06335182787024       -2.11787505419539
H            0.57716044390002       -1.46304778199057        0.75884922929514
O           -3.01787467277481       -3.06236595282133       -2.07073285091600
H           -2.35186985781054       -3.72953829306469       -2.21676038007505
H           -3.00751331704591       -2.85341314489237       -1.13953734178811
O            2.40371551586333       -3.27274001766130       -0.56942801988786
H            2.06374542217797       -3.18955083512402       -1.46627334159697
H            1.88999152869712       -3.96488362179489       -0.12936327764798
O           -2.92297896596590       -2.96241425056434        2.18089719980289
H           -3.26165574596976       -3.55168762069849        2.86618194696157
H           -3.30885681564667       -2.10074296432931        2.35908090922954
O           -1.33510876998446       -1.08861333319559        5.60832173185659
H           -1.61977874651341       -0.51194525957182        6.32679135570523
H           -0.83987163019813       -1.81120461553202        6.01537334784482
O            2.58411834561883       -1.08084344842432       -4.69944469809212
H            2.01115987227458       -1.59567956696337       -4.13686177972751
H            2.99926556790814       -0.42303863368124       -4.12976939780563
O            0.66994478113974       -0.78342685531160       -6.90856380167589
H            0.79033603293127       -1.68382982772665       -6.57132651620377
H            1.31598277515562       -0.25168418296801       -6.41584413877533
O           -0.42059579734637       -3.18321674697868        3.66053724798558
H           -0.98808232951723       -2.42330029374746        3.81690197598077
H           -0.81989458019488       -3.66545380176162        2.93429917085046
37
 energy: -59.809132608758 gnorm: 0.151691809496 xtb: 6.7.1 (edcfbbe)
N            0.09063307761022       -0.97162745153384        1.52228565867480
C            0.24244286569756        0.48473789733184        1.32120127773413
C           -0.41028084504379        0.93717209388894        0.01564482334072
C            0.30543283936592        0.46308575905177       -1.25072479959495