37
 energy: -59.877434667681 gnorm: 0.000694201456 xtb: 6.7.1 (edcfbbe)
N           -0.87103256654813        0.06316655630812        2.11123009760211
C           -0.64680425224834       -0.86303188285718        0.98573841354547
C            0.06534661346287       -0.15150219401919       -0.16037153936191
C            0.20614963240387       -1.05102881128721       -1.38368085726591
C            1.13642673005951       -0.42036828006988       -2.44370129516075
O            2.23292927970859        0.03226878011961       -2.06466802728054
O            0.73561555840818       -0.41309248131510       -3.63782895388776
H            0.00788684040284        0.50164664480037        2.38581175053801
H           -1.55940657980598        0.79068190249734        1.82745851990117
H           -1.61499389080040       -1.22575311689033        0.64188612541228
H           -0.04829771743816       -1.70817386577238        1.32580950900615
H            1.07233228677775        0.15696281942356        0.13102056554631
H           -0.48956430563753        0.74042451754630       -0.45597171957241
H           -0.75956345009317       -1.25670962012253       -1.84437637099023
H            0.66953064605794       -1.99911825683954       -1.09958107879775
H           -1.28236309568284       -0.44351191386354        2.93858922261116
O           -3.86130277783115       -1.17598854197482       -2.64145078877974
H           -4.18905379491318       -2.02725203693795       -2.94724484541199
H           -3.11943556276474       -0.95691573332541       -3.23223401627961
O           -3.61007632783389        1.30827028412262        4.09040377885457
H           -3.54867463730348        1.44248021662921        3.12670344461983
H           -3.34531480996995        2.13791213502895        4.49669673507404
O           -3.05771248132448        1.58915244727111        1.36367095658527
H           -3.39973790729694        0.80369987647470        0.88746290363514
H           -3.19764468282624        2.34389795653525        0.78692392801990
O            1.17398451527497       -3.18205216033554        2.53959935027792
H            2.12579960078653       -3.21382517915918        2.66892684825422
H            0.81407459827941       -4.01995523026100        2.84542408143768
O           -2.09165153849010       -0.96092807309070        4.30671565552916
H           -2.76886405130919       -0.25488724662983        4.33635154320066
H           -1.65722196748813       -0.97150101881035        5.16343258573293
O           -1.77855294335472       -0.85076299120546       -4.42955538557760
H           -0.84987279412428       -0.72209419075468       -4.12199496371036
H           -1.82186466083107       -0.43240412841674       -5.29409968529802
O           -3.86315494344362       -0.67191117456292        0.08515450637632
H           -4.62036315313127       -1.17813211439081        0.39271849787133
H           -3.84519440908777       -0.76354789393879       -0.88279749225879
