37
 energy: -59.774479104911 gnorm: 0.175678715898 xtb: 6.7.1 (edcfbbe)
N            0.00260500000000        0.26833900000000        2.34949800000000
C            0.00561000000000       -0.53426800000000        1.12782400000000
C           -0.01360500000000        0.36044200000000       -0.11757000000000
C           -0.00658000000000       -0.48411400000000       -1.39958300000000
C            0.00530900000000        0.34606300000000       -2.65559300000000
O            0.01598000000000        1.56658800000000       -2.61114500000000
O            0.01013600000000       -0.27058000000000       -3.85192000000000
H            0.84383000000000        0.88923800000000        2.37341700000000
H           -0.86762500000000        0.84621600000000        2.39703300000000
H           -0.88589600000000       -1.19861800000000        1.12403900000000
H            0.91775600000000       -1.17084600000000        1.11100500000000
H            0.88289000000000        1.01613200000000       -0.10393900000000
H           -0.92488100000000        0.99783100000000       -0.09978000000000
H           -0.91002800000000       -1.12912700000000       -1.41351300000000
H            0.89428700000000       -1.13411000000000       -1.40682800000000
H            0.03021100000000       -0.36918600000000        3.17705500000000
O           -3.15208000000000       -2.61661600000000       -2.54584400000000
H           -3.19967500000000       -2.07934900000000       -1.71536800000000
H           -2.40562100000000       -3.24841800000000       -2.39016000000000
O           -3.06253400000000        2.77438400000000        4.17516200000000
H           -2.97955400000000        1.78768800000000        4.16265200000000
H           -2.45499900000000        3.08357900000000        3.45689200000000
O           -2.89266900000000        2.16287900000000        1.38079200000000
H           -3.18181100000000        1.22285600000000        1.26518700000000
H           -3.37082600000000        2.65879800000000        0.66942400000000
O            0.81788900000000       -3.83785500000000        3.25530700000000
H            0.49539300000000       -4.28853100000000        4.07597600000000
H            0.13694400000000       -4.05407300000000        2.56961200000000
O           -2.87176600000000       -1.40751500000000        3.30404900000000
H           -3.60889000000000       -0.76511000000000        3.46081400000000
H           -2.06151700000000       -0.93925600000000        3.62784300000000
O           -2.39575600000000       -1.71933300000000       -6.35286200000000
H           -2.32121600000000       -0.97366000000000       -5.70554000000000
H           -2.59580700000000       -2.51286000000000       -5.79527200000000
O           -3.64775900000000       -1.11571200000000        0.86882400000000
H           -4.01161600000000       -2.03439200000000        0.80366300000000
H           -2.89377200000000       -1.10138800000000        0.22702100000000
37
 energy: -59.795844832131 gnorm: 0.085007378704 xtb: 6.7.1 (edcfbbe)
N            0.00080476080834        0.26910120931116        2.35202181441897
C            0.00685853477136       -0.54217275519850        1.12554410861171
C           -0.01367735305568        0.35294627827918       -0.11396348315792
C           -0.00631395505311       -0.48443571819463       -1.39368399987078
C            0.00977873752106        0.35474767761456       -2.66214947389032
O            0.01400973215625        1.59184972678348       -2.60504351928028
O            0.00316645713273       -0.28120646567513       -3.78938998113278
H            0.82513980348408        0.89010037616113        2.37357474909542
H           -0.85628350424762        0.84682130108963        2.38653805643329
H           -0.87335466650081       -1.19539793609882        1.13106903379918
H            0.90348266263073       -1.17311550963059        1.10973637204962
H            0.86321448629537        1.01122692122178       -0.12535742601829
H           -0.90274232235637        0.99531706845641       -0.11205948171006
H           -0.89229483346852       -1.13056483166761       -1.43392775283490
H            0.87790385330901       -1.13470510385674       -1.42001165313855
H            0.03400496549067       -0.35096427647715        3.17621550568150
O           -3.14342064901316       -2.62726197677045       -2.54342032985083
H           -3.21009653311592       -2.08489852637016       -1.73950536046169
H           -2.41397920965805       -3.24770164650957       -2.37924420642279
O           -3.02576493411711        2.77727860880716        4.20794696197964
H           -2.99297033284224        1.80617080981733        4.15725267938974
H           -2.49650255383332        3.08065111261327        3.44528344226463
O           -2.85005041460303        2.11923232434111        1.34909244992130
H           -3.21647100757506        1.21761644714629        1.26197052465603
H           -3.35283233472936        2.64840572582360        0.70604671473140
O            0.78919504959123       -3.81211369717624        3.25766537733327
H            0.51083702753277       -4.28633791298898        4.05977560890040
H            0.14793588819497       -4.07622879338381        2.57580630422181
O           -2.85160251697469       -1.40216649873163        3.33304704375982
H           -3.59971529565545       -0.79496025286444        3.45534903572430
H           -2.07797261050334       -0.92894337822757        3.67893319424818
O           -2.42622120351964       -1.71588883160192       -6.34991347441338
H           -2.29110028458525       -0.99015057650356       -5.71647026411336
H           -2.59137628890659       -2.49902256662301       -5.79824420476305
O           -3.66272496282323       -1.09213362642803        0.80773504733050
H           -4.00315756206432       -2.00451207347409        0.81567740045452
H           -2.89334962971669       -1.11046663301361        0.21427518605337
37
 energy: -59.803086738039 gnorm: 0.027700556562 xtb: 6.7.1 (edcfbbe)
N           -0.00231113067553        0.27455375439324        2.35390676528707
C            0.00860403107837       -0.54882790089294        1.12451394024353
C           -0.01443642599979        0.34321287027358       -0.11112034046180
C           -0.00918147858204       -0.48856147290264       -1.38839068054406
C           -0.00551321913055        0.36036462583954       -2.67629449354780
O            0.01848639562146        1.60842720971180       -2.58062559649200
O            0.00974636824129       -0.27456873145330       -3.74319146888363
H            0.80810852317649        0.89934896396432        2.36900520600062
H           -0.85130267936046        0.85159899522093        2.36557568694195
H           -0.86711392886776       -1.19163531483287        1.13933504346253
H            0.89804125380429       -1.17273592393251        1.11308176487350
H            0.85400495554675        0.99908358494936       -0.14192542632321
H           -0.89314168466188        0.98469270964080       -0.11836884513722
H           -0.88571053852935       -1.13168032265987       -1.45580121304935
H            0.87037356569516       -1.13127202107219       -1.43929847403329
H            0.03552879846528       -0.33007463977540        3.17825223178970
O           -3.13526834417724       -2.64620101491524       -2.54804244071226
H           -3.23564512397653       -2.08406690204380       -1.77509801291481
H           -2.42069417900640       -3.25812747295448       -2.36135127979304
O           -3.00473617359011        2.78438294696716        4.21994976414548
H           -3.00761138157589        1.82586748939483        4.16408876009670
H           -2.53217390094197        3.08032336173035        3.42940010663026
O           -2.86511683555559        2.06461882558079        1.38200613168658
H           -3.21878253360674        1.18332008706425        1.23690995255233
H           -3.28290258314679        2.62201875620154        0.72631807489733
O            0.76591385098932       -3.79288261056342        3.25342797005950
H            0.52560618481722       -4.26741252348018        4.05246765027211
H            0.15545082402413       -4.09701814591641        2.57613805472912
O           -2.82058178755900       -1.38552635147074        3.32842389792010
H           -3.60055556469585       -0.84086817130649        3.45917641297533
H           -2.09488583142306       -0.92501446278994        3.76848290090048
O           -2.44258564543811       -1.71372639229610       -6.34874398035776
H           -2.25778915399203       -0.99754970871578       -5.73418478554515
H           -2.60139131482490       -2.48613903342118       -5.80314609806782
O           -3.65137242044189       -1.06670085507120        0.77651246774507
H           -4.00970363318298       -1.95625624744804        0.81782991655066
H           -2.89700025851673       -1.09885196101726        0.18895243610248
37
 energy: -59.805727660860 gnorm: 0.072938172960 xtb: 6.7.1 (edcfbbe)
N           -0.00831741405930        0.28387784295059        2.35373387813905
C            0.00785155676943       -0.55064693662947        1.12784852002234
C           -0.01439706807296        0.33686994960185       -0.10913542249376
C           -0.00604960393016       -0.49050883120921       -1.38549116174291
C            0.01723982173865        0.36422370657502       -2.68568419006075
O            0.00827163766407        1.61405700455026       -2.56628923727781
O           -0.02053298683904       -0.27431084950977       -3.74244240675096
H            0.79717315459494        0.91525023869601        2.36228788375662
H           -0.85990441921641        0.85714662866186        2.34890766490555
H           -0.86909074615803       -1.19192515497229        1.14927234654295
H            0.89919475433360       -1.17223711622017        1.12255800792035
H            0.85551126509268        0.99081315569203       -0.14621858257245
H           -0.89373608901398        0.97746690133748       -0.12164600918050
H           -0.88422769235068       -1.13010735438279       -1.47098077714271
H            0.87432241635525       -1.13050757596896       -1.44330696118674
H            0.03126252622428       -0.31282819334822        3.18294340529683
O           -3.12409573663319       -2.66778496291958       -2.56756443673900
H           -3.27384560215953       -2.07707180422962       -1.81886859665845
H           -2.42206355010657       -3.27969451206061       -2.32597681161888
O           -2.93783510943087        2.80303885480541        4.27923704163646
H           -3.05543669218039        1.83852900808154        4.14906930188550
H           -2.59085047510285        3.08445220709667        3.38662576535683
O           -2.79732806442039        1.97645429789537        1.37359195397817
H           -3.27596944966669        1.13459635737118        1.23064619417626
H           -3.22335381984734        2.61574229864151        0.78311022177393
O            0.71802932887668       -3.72559227448290        3.25368268939954
H            0.55902987803340       -4.26586490686021        4.04592138002189
H            0.16403998427283       -4.14661583806258        2.56304434644839
O           -2.77400607497034       -1.37041341543882        3.32041330819109
H           -3.60791017567317       -0.89417326965758        3.45162618935869
H           -2.11083348930520       -0.90925699847865        3.89252303433898
O           -2.49815868425372       -1.70571878901954       -6.35856548362800
H           -2.19111000200647       -1.00271923253890       -5.74938491174168
H           -2.60056111467476       -2.48412497585074       -5.80152908652053
O           -3.66820381005060       -1.00398708412223        0.70116709182574
H           -4.00902552263172       -1.90483990073050        0.85138091559920
H           -2.87272593120052       -1.10547247526293        0.16166493473900
37
 energy: -59.807753492364 gnorm: 0.058620391871 xtb: 6.7.1 (edcfbbe)
N           -0.01655056475565        0.29422948946720        2.35108065875759
C            0.00705883766395       -0.55037596096352        1.13113693415156
C           -0.01396716334268        0.33193568473256       -0.10925886006512
C           -0.00633617613688       -0.49232447589568       -1.38512506361288
C            0.01753859590133        0.36787998748710       -2.69250724859678
O            0.01097808751241        1.61578529373892       -2.56053333831863
O           -0.04014448927616       -0.27834003941559       -3.75514127974877
H            0.78626801846693        0.93221188441677        2.35554071919040
H           -0.87402936336895        0.86216409139141        2.33264326239861
H           -0.87095960091336       -1.19359435499126        1.15817322959995
H            0.90139411997300       -1.17171899115812        1.13348526896428
H            0.85794771596517        0.98590699152568       -0.14847067944479
H           -0.89570683523422        0.97215639961527       -0.12231137728230
H           -0.88648670014203       -1.13044890509003       -1.47630616119842
H            0.87605049270991       -1.13142104254407       -1.44842280675656
H            0.02181206782504       -0.29708112525938        3.18581836700016
O           -3.11411166809289       -2.68680250682971       -2.58910407025912
H           -3.31114904652528       -2.07213687485203       -1.86096486091263
H           -2.42515402134915       -3.30070062939499       -2.28903887783588
O           -3.01343309257893        2.80617838872133        4.20695225363051
H           -3.05356467787359        1.85433647680434        4.17420135003363
H           -2.55211654285783        3.09263797166831        3.43490814531632
O           -2.76093265084366        1.90893565575781        1.38395447034470
H           -3.28241511165146        1.08556074282245        1.22845418487718
H           -3.17465311640410        2.58343612329438        0.81441919900940
O            0.72145147328865       -3.73862949402985        3.23682172482776
H            0.56699467015786       -4.23899234409554        4.04745386363975
H            0.15117766832375       -4.13269385132663        2.56682515500776
O           -2.75395123990273       -1.37829766534160        3.37415633472480
H           -3.59855582117835       -0.91093418605292        3.45194950902192
H           -2.11369548758528       -0.90336957208327        3.93454168459941
O           -2.49513548579640       -1.70141195631427       -6.36052795658262
H           -2.17657053462467       -1.00151047180106       -5.76261036422075
H           -2.60438693047189       -2.48094624955076       -5.80473562240564
O           -3.67621584611886       -0.95373804071090        0.65361248183800
H           -4.01152942465748       -1.85450035970961        0.86164035158766
H           -2.85456315610486       -1.09727008403098        0.14546141871863
37
 energy: -59.808693845977 gnorm: 0.057696307282 xtb: 6.7.1 (edcfbbe)
N           -0.02889610036252        0.30569397963346        2.34414738049307
C            0.00688462329509       -0.54796853079525        1.13261681509533
C           -0.01310958346118        0.32743882233364       -0.11373662870783
C           -0.01200281284809       -0.49686162995057       -1.38919031400222
C           -0.02690043447954        0.37182321556789       -2.69509927943815
O            0.03439467461139        1.61312001551407       -2.56011091636835
O           -0.03141405758133       -0.27770983426874       -3.77438833191961
H            0.77242730056861        0.94949001398296        2.34850197560410
H           -0.89508426096365        0.86623132455039        2.31306645544924
H           -0.87016681890139       -1.19674526750920        1.16240382771202
H            0.90432442092087       -1.17000093857465        1.14529426713111
H            0.85973108120445        0.98393384385286       -0.14926197403954
H           -0.89804888120244        0.96741351660444       -0.12001627714195
H           -0.89180828878154       -1.13690802466245       -1.47005493712780
H            0.87450071626408       -1.13444274990574       -1.45918302423704
H            0.00407393013558       -0.28180045501421        3.18454590044171
O           -3.11902574388995       -2.69920094343930       -2.60070205291843
H           -3.32753075599261       -2.08116521257293       -1.88443025303046
H           -2.43777472951945       -3.31174046645983       -2.27905868702928
O           -2.97956698292468        2.82003571964813        4.22982734342449
H           -3.08900336725682        1.86521670399931        4.17293438136199
H           -2.57844256614988        3.09186044044069        3.40583730785798
O           -2.79903954165026        1.88330628440482        1.44466222678323
H           -3.18262679734779        1.03791650130376        1.23347680790258
H           -3.14086517053193        2.49785570145796        0.80158181050576
O            0.71921134444955       -3.74327317955469        3.22431130302621
H            0.57343174450360       -4.21236166611218        4.04807608163764
H            0.14444871483882       -4.12412052043005        2.57008340664216
O           -2.74607896925106       -1.38626800728244        3.43004032913636
H           -3.57449952595467       -0.90754740298483        3.46928748993151
H           -2.11440039080419       -0.91622644001002        3.94598097678353
O           -2.45407963465636       -1.69632502496203       -6.35504595605842
H           -2.19523500784591       -0.99726038145441       -5.77287447740308
H           -2.61177026033019       -2.47401298233417       -5.81074724628688
O           -3.63477931937628       -0.95146134557866        0.69558957958471
H           -4.02397384213157       -1.80529588819332        0.80124263557165
H           -2.87494770659450       -1.03652319124120        0.12856405363103
37
 energy: -59.812362695677 gnorm: 0.046949261778 xtb: 6.7.1 (edcfbbe)
N           -0.04269620641033        0.31445099512275        2.33877995195130
C            0.00367695080678       -0.54604304546585        1.13217972875278
C           -0.01449513635356        0.32332564479677       -0.11864394885766
C           -0.01263779260214       -0.50266749858890       -1.39366480196993
C           -0.02356535165604        0.37312563626580       -2.69481919946596
O            0.03403332377590        1.61203538633217       -2.55523713615265
O           -0.04948892785107       -0.26565512938826       -3.77233383555945
H            0.75496820285220        0.96090740027777        2.34503416379125
H           -0.91143470827555        0.87052469857369        2.30026337756116
H           -0.86869183043250       -1.19887389325706        1.16131978144918
H            0.90204136788105       -1.16472646612611        1.15309139378063
H            0.85711939624334        0.98011796973803       -0.15147678710671
H           -0.89760629549621        0.96446976311332       -0.12505591931060
H           -0.89121489837569       -1.14306552405777       -1.47506662388136
H            0.87312818535081       -1.13896382057499       -1.46337526934034
H           -0.01302225094821       -0.26787772429272        3.18176183908351
O           -3.12867362960758       -2.71001463057134       -2.60466221506126
H           -3.33500448206349       -2.09474629358771       -1.89574786128703
H           -2.45025985594139       -3.31582284888398       -2.28452348308784
O           -2.96819255705736        2.82929851994556        4.23830977435609
H           -3.10689551795654        1.87658580690188        4.17793781896198
H           -2.59424818213505        3.09111515191168        3.38889713961330
O           -2.78633064288611        1.83021627010311        1.47976735869670
H           -3.16929984706944        0.99113614234207        1.22648220623444
H           -3.08347566384662        2.46364497106234        0.82464934411467
O            0.69690060929638       -3.70861656976110        3.21888481454231
H            0.58979141298786       -4.19438805503167        4.04445256253251
H            0.14668159828467       -4.15360517363897        2.56348083401772
O           -2.70690558142375       -1.36024257477227        3.38009751179075
H           -3.57485928061153       -0.94512882747147        3.46547445181065
H           -2.13089021744304       -0.91042020397263        4.05707306307038
O           -2.50017718728383       -1.69036861294672       -6.36218227401429
H           -2.13115216502315       -1.00238082916808       -5.78102877806275
H           -2.61076669505879       -2.46936527852178       -5.80479858954826
O           -3.62337813412132       -0.90697232766335        0.67006067058473
H           -4.03050621386150       -1.75700325961425        0.82440298687764
H           -2.86011479568466       -1.03788976912608        0.10838794913025
37
 energy: -59.810063171676 gnorm: 0.091235604757 xtb: 6.7.1 (edcfbbe)
N           -0.06450408130976        0.32621669715982        2.33100169859902
C           -0.00281067623938       -0.54381898930519        1.13139149913437
C           -0.01782140773426        0.31702634855904       -0.12559843649243
C           -0.01062958862867       -0.51120612394410       -1.40029599733376
C            0.01288156550230        0.37268681837597       -2.69425371376341
O            0.01911202904487        1.60962003186749       -2.54647406005718
O           -0.09444532317420       -0.24553064759825       -3.76606172341768
H            0.72753547982639        0.97599761592471        2.34071205683209
H           -0.93653225197992        0.87556621638579        2.28349652653769
H           -0.86813266972595       -1.20255105782751        1.15883417396980
H            0.89806716359881       -1.15515400581187        1.16363935494134
H            0.85337181053826        0.97239963128048       -0.15620693254108
H           -0.89815736050935        0.95967045938202       -0.13701554352028
H           -0.88864706763006       -1.15151570821669       -1.48849886152582
H            0.87354442528771       -1.14500593259150       -1.46500927855978
H           -0.03979696869528       -0.24872388386239        3.17703789717358
O           -3.13154094547809       -2.72891215418883       -2.61753944709544
H           -3.36068698814330       -2.10589643050336       -1.92384056310232
H           -2.46197435451636       -3.32576120422114       -2.27229464119541
O           -2.91066634328611        2.84414114133120        4.28831920139248
H           -3.14814660029898        1.89086940516417        4.16601662076693
H           -2.63998974500956        3.08978478361696        3.34834443027155
O           -2.71768547995704        1.73655669260603        1.50408247828062
H           -3.20375183952305        0.92523226474116        1.22297947206329
H           -2.99449242466499        2.44119684211934        0.88594078619577
O            0.66634075644284       -3.65928479186846        3.21356941883226
H            0.61224456840945       -4.17693407963932        4.03693555376993
H            0.15233628835148       -4.18972697052602        2.55390361966815
O           -2.71044505092329       -1.37485157628385        3.45040782499741
H           -3.55465676199873       -0.93226510583634        3.48069722419626
H           -2.12144802790294       -0.90819970298391        4.02005093704100
O           -2.50414201100518       -1.68424427920956       -6.36346683898423
H           -2.09771950630881       -1.00173907027507       -5.78811072338133
H           -2.61695098389607       -2.45938730734388       -5.80474522079200
O           -3.62282025298263       -0.82944358530966        0.60972484714186
H           -4.03197619733883       -1.69481312330555        0.89413908210218
H           -2.82250617813765       -1.06588321785694        0.08635927785165
37
 energy: -59.816081293401 gnorm: 0.025456963321 xtb: 6.7.1 (edcfbbe)
N           -0.07666782181700        0.33102502150844        2.32690104380216
C           -0.00546250432855       -0.54373185471324        1.13140139457719
C           -0.01820065832399        0.31423134027058       -0.12762713248484
C           -0.01154942321605       -0.51307000535958       -1.40218372433025
C           -0.00220529621109        0.37388782218593       -2.69523606988641
O            0.02606076653259        1.61065456113261       -2.54359146473951
O           -0.09760053072366       -0.24521339935840       -3.77289985128398
H            0.71338387211915        0.98441146488543        2.33808114660320
H           -0.95300377076789        0.87647751828660        2.27177288291878
H           -0.86931533641774       -1.20594257898419        1.15767985076534
H            0.89858911487415       -1.15180134804500        1.16954811749584
H            0.85332573908561        0.97031374116255       -0.16019466754690
H           -0.89984941206608        0.95604071352367       -0.14237297711676
H           -0.88910275492803       -1.15463720057454       -1.48915828051739
H            0.87425426008984       -1.14616003135644       -1.47013627793530
H           -0.05470622389609       -0.24090195089377        3.17583637907891
O           -3.12907164601343       -2.73805162135303       -2.62850644606680
H           -3.37955202279259       -2.10589008614861       -1.94173518120025
H           -2.46476829718524       -3.33491013853164       -2.25784332291703
O           -2.95494377559986        2.84069575087976        4.25281722482704
H           -3.13467146688231        1.89638316130852        4.17574469358920
H           -2.62362066559901        3.10110550165405        3.37947867334746
O           -2.67856670534234        1.71407537269214        1.49952954700279
H           -3.17838748400501        0.90515482887878        1.25430161407238
H           -2.98929253492934        2.40057324261213        0.89960627342264
O            0.68306564225680       -3.68690457991197        3.20435889044947
H            0.60513714595109       -4.16635690656351        4.03493381396300
H            0.14506560770916       -4.15445761298726        2.56023094393308
O           -2.68455245368953       -1.36223907061488        3.43205851484036
H           -3.55754062618728       -0.95739825650055        3.47966618017281
H           -2.12973801006039       -0.89919522552811        4.07755440048262
O           -2.47388482787446       -1.68059930823461       -6.35905376279973
H           -2.11568458843273       -1.00012326058767       -5.78998588451589
H           -2.61812411622128       -2.45514220524416       -5.80865560133599
O           -3.60317935751531       -0.83818994227351        0.63925415693718
H           -4.02225538923876       -1.68191934749480        0.84545647991825
H           -2.84102744834948       -1.01607810971558        0.08114042247515
37
 energy: -59.812380892914 gnorm: 0.091332394503 xtb: 6.7.1 (edcfbbe)
N           -0.10507200111319        0.34302984217042        2.31638430652469
C           -0.01009845569361       -0.54186692500837        1.13062508351249
C           -0.01888815334407        0.30950091354771       -0.13307499258642
C           -0.01841402983691       -0.51651025495900       -1.40766303063677
C           -0.06392023973724        0.37654678126470       -2.69835419603192
O            0.05497124873683        1.61150139666937       -2.54105859383912
O           -0.08138464847752       -0.24378985796050       -3.78673923090264
H            0.68002588525399        1.00408415186513        2.33225994507634
H           -0.99121258759027        0.87964727478347        2.23994224286190
H           -0.87021510660630       -1.21154182315001        1.15455417608191
H            0.90017007794821       -1.14301786792545        1.18333885376749
H            0.85287290923623        0.96728428494252       -0.16792281061981
H           -0.90275882099683        0.94984743261782       -0.14866979233164
H           -0.89259034984142       -1.16281934934118       -1.48474231821055
H            0.87264148207331       -1.14597467338054       -1.48722755544252
H           -0.09215237603214       -0.22168105846103        3.17189519452067
O           -3.13914073075007       -2.75343983552815       -2.63968274288688
H           -3.39817837114253       -2.12112358786907       -1.96200688752762
H           -2.48028054746335       -3.34606232087517       -2.25770138708968
O           -2.97099614051220        2.84768757792916        4.23033104689993
H           -3.16379833426768        1.90950974748370        4.17410766627097
H           -2.60178891762768        3.10456526324265        3.40598081799250
O           -2.67111209783803        1.68857478169759        1.56182855096541
H           -3.05988460413447        0.86017143291165        1.30668111351747
H           -2.94743640266426        2.30627043797016        0.90551857566596
O            0.65014650615452       -3.63981974980198        3.19640615793137
H            0.62809730967354       -4.15059329822715        4.02498030476908
H            0.15148528272023       -4.18371471403479        2.55149054424849
O           -2.66445860375619       -1.34457963376961        3.43072296985368
H           -3.54369150155868       -0.96477763377429        3.49737825070842
H           -2.13842213577347       -0.90738405242092        4.12439523034372
O           -2.56358995461969       -1.66305650776303       -6.36812384077966
H           -2.00006047589520       -1.01643080240400       -5.79483546628326
H           -2.60607442177428       -2.45203915688134       -5.79724493720785
O           -3.61227973421232       -0.79993998968302        0.61017264796220
H           -4.00478454302408       -1.64115651343662        0.84646986994103
H           -2.83536941550970       -0.99078571243440        0.07775623295842
37
 energy: -59.817536796558 gnorm: 0.057304867265 xtb: 6.7.1 (edcfbbe)
N           -0.12000123464935        0.34803741019392        2.31062192330840
C           -0.01383047790635       -0.54092988773612        1.12946371435921
C           -0.02024963713573        0.30680492755442       -0.13696127504486
C           -0.01792184189533       -0.51964834489782       -1.41180478542368