37
 energy: -59.870307568228 gnorm: 0.000256214572 xtb: 6.7.1 (edcfbbe)
N            0.63559496211933       -0.16251023415429        1.49082042340494
C            0.95853590285574       -0.50144248577569        0.08696484671069
C            0.48847230148294        0.59949009125898       -0.85400921685007
C            0.73310816392623        0.20013627302777       -2.30242726407323
C            0.26295772917928        1.24925770994463       -3.31644459150428
O           -0.21723356880741        2.32257281190188       -2.90070018738869
O            0.39572381611460        0.95493379146771       -4.53551818751515
H            1.04064106675506        0.76668780986585        1.73928381411629
H           -0.37905921468576       -0.11540725724361        1.61199131383197
H            0.46634429484000       -1.43765354383239       -0.18094301517643
H            2.03662543969842       -0.63336823238672       -0.00361547686314
H            1.01162556449278        1.53605985164497       -0.65781955303895
H           -0.58026148353741        0.78447903133677       -0.73318248186422
H            0.21314936544490       -0.73015914555004       -2.53756029731078
H            1.79539437285058        0.03377928758392       -2.49323520046430
H            1.02080449931513       -0.87110660595909        2.11965456587785
O           -0.24896976149179        2.79392218706585       -6.54380004194218
H           -0.00815353760153        2.09889615194921       -5.90022422450872
H           -0.48348450837142        3.55647481488121       -5.98729338491335
O            1.63688853709775        2.32060518142587        2.21394226439542
H            1.13337952849451        3.13824157103617        2.19616629710408
H            2.56640653074768        2.54716099987077        2.30435257678140
O           -0.56995417523745       -3.23135878095182       -0.77362984215064
H           -0.43701226530609       -4.15809427052781       -0.55392437265649
H           -0.60037682259073       -3.18951016523615       -1.74244465602997
O           -0.60054064132293       -3.12236504995322       -3.60108048323560
H           -1.38984483857103       -3.07751082018475       -4.14848845684642
H            0.09747211226289       -2.65546729716832       -4.09679360396914
O           -0.96830029723744        4.47746320058517       -4.38157868938039
H           -1.89206976268395        4.61248068497442       -4.14604646316906
H           -0.66271510997151        3.72458199187568       -3.82652357853150
O            1.14904863410352       -1.57723840497898       -5.09764020690725
H            1.32898887081658       -1.62662346242210       -6.04130903716725
H            0.89181703977632       -0.64437041646215       -4.91901393850631
O            4.12137168887485       -1.41893591007499        0.27842317853283
H            4.95124362074588       -0.95242030390248        0.14683540301481
H            4.25403994539502       -2.32404105489493       -0.01751123167374
