37
 energy: -59.747048103521 gnorm: 0.186422537159 xtb: 6.7.1 (edcfbbe)
N            0.00260500000000        0.26833900000000        2.34949800000000
C            0.00561000000000       -0.53426800000000        1.12782400000000
C           -0.01360500000000        0.36044200000000       -0.11757000000000
C           -0.00658000000000       -0.48411400000000       -1.39958300000000
C            0.00530900000000        0.34606300000000       -2.65559300000000
O            0.01598000000000        1.56658800000000       -2.61114500000000
O            0.01013600000000       -0.27058000000000       -3.85192000000000
H            0.84383000000000        0.88923800000000        2.37341700000000
H           -0.86762500000000        0.84621600000000        2.39703300000000
H           -0.88589600000000       -1.19861800000000        1.12403900000000
H            0.91775600000000       -1.17084600000000        1.11100500000000
H            0.88289000000000        1.01613200000000       -0.10393900000000
H           -0.92488100000000        0.99783100000000       -0.09978000000000
H           -0.91002800000000       -1.12912700000000       -1.41351300000000
H            0.89428700000000       -1.13411000000000       -1.40682800000000
H            0.03021100000000       -0.36918600000000        3.17705500000000
O           -0.04942400000000        2.50820000000000       -5.96689300000000
H           -0.19904700000000        1.68011100000000       -6.48890100000000
H            0.92229400000000        2.50908000000000       -5.77616500000000
O            1.07437900000000        3.75330800000000        1.01992500000000
H            1.14777800000000        3.42533800000000        1.95140800000000
H            1.70046600000000        3.18347100000000        0.50620000000000
O           -0.33661100000000       -3.68486600000000       -2.12583600000000
H            0.57369400000000       -3.79443000000000       -1.75173400000000
H           -0.28249600000000       -2.86130800000000       -2.67304400000000
O            1.66462600000000       -3.14123300000000       -3.71619400000000
H            1.03888600000000       -3.60979800000000       -4.32406500000000
H            1.85838800000000       -2.28390900000000       -4.17233500000000
O            0.16805400000000        4.10207200000000       -4.44074400000000
H           -0.40576700000000        4.72056200000000       -3.92227300000000
H            0.47147000000000        3.43122700000000       -3.77853700000000
O            1.89959300000000       -0.41826200000000       -5.64719300000000
H            1.53643100000000        0.39842000000000       -6.07351900000000
H            2.15566700000000       -0.12921000000000       -4.73533300000000
O            2.84798800000000       -1.51969000000000       -2.33277000000000
H            3.33168000000000       -0.73526700000000       -1.97037000000000
H            3.03361000000000       -2.24617600000000       -1.68595000000000
37
 energy: -59.778415881119 gnorm: 0.093328508021 xtb: 6.7.1 (edcfbbe)
N            0.00189026489813        0.26524377463695        2.35667428151068
C            0.00513743740960       -0.54112915997575        1.12494573336206
C           -0.01494957369230        0.35694546745074       -0.11126032242496
C           -0.01477543486438       -0.48085865843392       -1.38924249451328
C           -0.00640990142159        0.35642787757085       -2.65607518722174
O            0.03912191046563        1.59506454245759       -2.60184531457309
O           -0.01475415643273       -0.27805822558023       -3.78140474988654
H            0.82859642677057        0.88251231183494        2.37686337773887
H           -0.85246589306127        0.84422972232796        2.39963081330525
H           -0.87233770138997       -1.19790859062431        1.11490761773143
H            0.90299787977155       -1.16982179496382        1.10527041672831
H            0.86300408420226        1.01395380367477       -0.11986404500034
H           -0.90631796005270        0.99695477451614       -0.11129957691933
H           -0.90235831961383       -1.12515602111738       -1.41797575642578
H            0.87057611604959       -1.12908754735873       -1.42304429955979
H            0.02821728712704       -0.35543255808189        3.18145414492204
O           -0.04669466823055        2.47880332881431       -6.03218279580643
H           -0.19945535404483        1.64386631685187       -6.50497733912671
H            0.89788061136265        2.48889775035691       -5.80204510638164
O            1.05882402877718        3.72640804185516        1.01768322323650
H            1.17061317701100        3.44620225373215        1.94442877722137
H            1.70232525839862        3.20411941999521        0.50920875029993
O           -0.36874019288336       -3.65687974683849       -2.07435550129653
H            0.54999750961411       -3.81557416990869       -1.78270361841328
H           -0.28360366124417       -2.89021973427615       -2.67342324888179
O            1.69532603340453       -3.17017349107631       -3.77468179572827
H            1.04129299389040       -3.61096745525806       -4.34139307450058
H            1.82830223306508       -2.29477597648028       -4.18037009226982
O            0.22831999605731        4.17954825114668       -4.37504709053209
H           -0.41199937253253        4.72977376575350       -3.88969882288249
H            0.40957124620130        3.42519257960119       -3.76597697398219
O            1.99170961621832       -0.40189506877086       -5.68334400590660
H            1.52336974692067        0.36881521225559       -6.06316113690184
H            2.11360630677889       -0.14673032036554       -4.74374640518902
O            2.86328776374079       -1.48317594762411       -2.29113393729183
H            3.36971372590453       -0.73314472129865       -1.94155205936859
H            3.06283853542442       -2.23433000679946       -1.70358538507147
37
 energy: -59.789642045467 gnorm: 0.037869880433 xtb: 6.7.1 (edcfbbe)
N           -0.00009452511054        0.26050237000211        2.36548683397513
C            0.00304687624121       -0.54659650789734        1.12110491742511
C           -0.01996587341023        0.35724867740498       -0.10463689349860
C           -0.02673838324195       -0.47213003815400       -1.38104660160506
C            0.00000925659974        0.36770822781650       -2.66963368113524
O            0.07377953315620        1.61959326960026       -2.58651678936854
O           -0.02051343355659       -0.26868628599423       -3.73131127260941
H            0.81583490408598        0.87557552686763        2.37809769757275
H           -0.84149507489405        0.84262303901241        2.40041004888251
H           -0.86645689285830       -1.19630201141547        1.10602872004250
H            0.89407037477474       -1.16590281168033        1.09869103170065
H            0.84896322921210        1.01038745116531       -0.13299008484050
H           -0.89905172428480        0.99745965638437       -0.11521199802929
H           -0.90500022751755       -1.11367997680397       -1.42962598231888
H            0.85074450973915       -1.11411660470141       -1.43885868505277
H            0.02473206465911       -0.34678769778939        3.18910764235377
O           -0.05880778354109        2.44850798316031       -6.09319710106271
H           -0.20633667374378        1.60551987076977       -6.52356835861863
H            0.86266127833547        2.49045016929311       -5.82685368774152
O            1.03632115242676        3.69267306085193        1.01711272065776
H            1.20998983821344        3.47752269808011        1.94532201798498
H            1.70654418890796        3.23249365848865        0.50329360815521
O           -0.38383877370582       -3.65332068698434       -2.06500091566772
H            0.52485563222619       -3.83441422808019       -1.80370744965619
H           -0.29728032395172       -2.90111446119352       -2.65538587216029
O            1.67603500208339       -3.19208477971472       -3.80912631156616
H            1.05725730915526       -3.63022422709231       -4.38828361129058
H            1.82744136345358       -2.32572140106118       -4.18639078310029
O            0.25829726685673        4.21281953827256       -4.30593664423921
H           -0.41623926941733        4.74037985709216       -3.87032893472353
H            0.36556393869420        3.43158208919008       -3.72961266544804
O            1.98702750601674       -0.40756496412367       -5.67330309758658
H            1.55264814243997        0.34086153579351       -6.07119484779480
H            2.10197253337183       -0.16126032613742       -4.75677895319045
O            2.87772814133139       -1.43551689993961       -2.24005784700616
H            3.43043321937628       -0.72496397437254       -1.90965419346162
H            3.10751969787634       -2.22588079611036       -1.73076497597725
37
 energy: -59.793383699353 gnorm: 0.095550541967 xtb: 6.7.1 (edcfbbe)
N           -0.00447951696366        0.25849941654928        2.37137017480784
C           -0.00162020862706       -0.54572188028996        1.12000900482287
C           -0.02620994657631        0.36539909929060       -0.09850921241404
C           -0.03711311860499       -0.45744303253792       -1.37545508122330
C            0.01049661652226        0.38162707543647       -2.68102811719696
O            0.10629179918586        1.63549293252725       -2.57955224172985
O           -0.03460219871000       -0.26301881008316       -3.72973291198452
H            0.81125249410246        0.87396164496581        2.37748725172332
H           -0.84289101211338        0.84513227792936        2.39931538174567
H           -0.87234154856103       -1.19462947102566        1.10164650474417
H            0.89188171227364       -1.16203044511442        1.09479056593219
H            0.84578966480778        1.01404341647324       -0.13517119350350
H           -0.90519011914891        1.00616993856584       -0.10809249729945
H           -0.92003956374064       -1.09213457697214       -1.43697520531301
H            0.83921504989690       -1.10017624094926       -1.44405980798678
H            0.01855670827600       -0.34569372677177        3.19716401133286
O           -0.07487619286683        2.45206763657874       -6.16630735499511
H           -0.21615287974648        1.56246335156665       -6.52083076476042
H            0.82811736129135        2.49694790204406       -5.82632312278164
O            0.98415545035226        3.64176374691842        1.01155963816844
H            1.27112746119094        3.51970513770301        1.95401581592521
H            1.72478912160262        3.27565083010052        0.48955587121470
O           -0.42645023663967       -3.61983776966899       -1.99739256932804
H            0.51154653583173       -3.88697804532705       -1.84642217431311
H           -0.31722559388623       -2.92203215346071       -2.66413477906155
O            1.69915778398638       -3.23374656993977       -3.85812338448697
H            1.06240188450962       -3.65285628085285       -4.43626444335411
H            1.80827765297451       -2.33181545511104       -4.18350648434379
O            0.30183812158681        4.23184247666110       -4.23901651026525
H           -0.42933237068754        4.74421576397698       -3.85962848107250
H            0.30499307880420        3.40835439406429       -3.68564836423254
O            2.13153936327967       -0.39213460494149       -5.71124923370800
H            1.52486356981107        0.29362625597512       -6.08129621326592
H            2.01508736985231       -0.18831781948533       -4.72222475713763
O            2.88139871291659       -1.38326582843461       -2.18643479846672
H            3.52246637199366       -0.72002979966733       -1.87975761830010
H            3.16493862182410       -2.22746078669354       -1.76809989789158
37
 energy: -59.799041671044 gnorm: 0.054364533554 xtb: 6.7.1 (edcfbbe)
N           -0.00304309418034        0.25642379567561        2.37666033046988
C           -0.00147913251528       -0.54361993837187        1.12169495432289
C           -0.02939257598308        0.37484862802275       -0.09123811697341
C           -0.04432894182258       -0.44201859986851       -1.36944744961389
C            0.01094396814758        0.39973409599846       -2.68091500614950
O            0.12770723150693        1.65124572911921       -2.57542809250804
O           -0.05252900262627       -0.25864653868929       -3.73607380318705
H            0.81461778891014        0.87322027741528        2.37829526183174
H           -0.84155203648029        0.84634359415979        2.40200276820548
H           -0.87321050989168       -1.19533575601973        1.10150487787397
H            0.89510824439159       -1.15968900002111        1.09156702324117
H            0.84520967032441        1.02237450817252       -0.13060551649358
H           -0.90991504754793        1.01686064431432       -0.09405518578784
H           -0.93246040277019       -1.07172929091404       -1.43734052286738
H            0.83062176879091       -1.08902624129125       -1.44259431529864
H            0.01986240767504       -0.34827699821908        3.20435315969038
O           -0.09850155749599        2.45144928304361       -6.24193455613100
H           -0.22505059836162        1.52055312827377       -6.53028733304825
H            0.78757107333242        2.49914998669968       -5.83161763911459
O            1.02362405677682        3.66413771627310        1.02724698636399
H            1.27452221740747        3.51541833123158        1.94643264923814
H            1.71733126556154        3.28692017690871        0.47730445947776
O           -0.44360120652857       -3.62345752967220       -1.99634612234060
H            0.48356064847242       -3.90972192611009       -1.84894328661909
H           -0.33185944848533       -2.93023249714552       -2.66813904623393
O            1.72642500114820       -3.27162616507213       -3.90118018198160
H            1.06493177888845       -3.66631462703679       -4.48173462436422
H            1.79362460588079       -2.33337859443716       -4.17722415235280
O            0.29879208592375        4.22672077486472       -4.18610130150627
H           -0.44105146034809        4.74798206358014       -3.83710551100841
H            0.28849941722868        3.40918209001497       -3.64633600078779
O            2.05536430906607       -0.42467784918649       -5.67879158768996
H            1.55989999700345        0.27412797191438       -6.10909668500870
H            2.06744240159213       -0.19274441929455       -4.75014489381699
O            2.92670989438333       -1.36174404504351       -2.16476519971889
H            3.58022614340894       -0.71395795756968       -1.85480929093763
H            3.18703703921640       -2.21285482172043       -1.76913004917433
37
 energy: -59.798835357220 gnorm: 0.082295064179 xtb: 6.7.1 (edcfbbe)
N            0.00162757916696        0.25388750936635        2.37908679358108
C            0.00173686018883       -0.54025526653754        1.12122712021327
C           -0.03213874179480        0.38353934705643       -0.08839423550413
C           -0.04967611854127       -0.42778347505181       -1.36989221440576
C            0.00285796666136        0.42019107875523       -2.67955732530452
O            0.13718909888725        1.66500374036851       -2.57462834942194
O           -0.03967876831437       -0.24106959616992       -3.74418810739479
H            0.82075879439407        0.87174758966462        2.37899812169522
H           -0.83747065034573        0.84538092128632        2.40557806481964
H           -0.86832098929715       -1.19687090771002        1.10118869462000
H            0.90027940618607       -1.15621789535948        1.08553176237013
H            0.84229841977193        1.03315530710426       -0.12305493929718
H           -0.91382689149368        1.02634862565591       -0.07736183836755
H           -0.93923276012303       -1.05617659701364       -1.44047619122520
H            0.82528818792748       -1.07636665147763       -1.43922438594966
H            0.02532827705742       -0.35302765704621        3.20682450354356
O           -0.13481023351280        2.41356836354180       -6.26544192068298
H           -0.24237783708876        1.51301263074534       -6.57341581321652
H            0.73883343139430        2.50464381861558       -5.86823158867484
O            1.00339753381221        3.62959466265035        1.02729659693945
H            1.33473024907776        3.54884663197847        1.94629098937838
H            1.72962537391507        3.32191617651151        0.46043201450853
O           -0.42054781463741       -3.69205776805867       -2.09673996657557
H            0.43339463614154       -3.89164352880073       -1.80076325928707
H           -0.35975484338656       -2.91873948001050       -2.64069895813095
O            1.68142280283109       -3.26984909219006       -3.89753710551121
H            1.08378390276198       -3.68888506655600       -4.52754608593486
H            1.83107655635370       -2.38139152788681       -4.20515778471691
O            0.24999220259851        4.20274563763433       -4.11993572245069
H           -0.45384515666119        4.76221720856607       -3.79969079147465
H            0.28182008118267        3.42945556294631       -3.58861854155269
O            2.08415221414018       -0.43667089019015       -5.67133577875209
H            1.57468839804157        0.23011198161150       -6.14131140101148
H            2.02656471869774       -0.19930562946664       -4.73897035629054
O            3.00413910285793       -1.35188048457259       -2.15558095398302
H            3.62227326125836       -0.70406343356469       -1.83228124578758
H            3.20607974989092       -2.18547184639675       -1.75674280076239
37
 energy: -59.802146782689 gnorm: 0.075442987596 xtb: 6.7.1 (edcfbbe)
N           -0.00312066352328        0.25538295061626        2.37654752004445
C           -0.00250236121615       -0.53552733460431        1.11781728117094
C           -0.03756419953071        0.38961703392222       -0.09141982703642
C           -0.05214426987075       -0.41926308647570       -1.37603935423558
C            0.00907162996587        0.43456088203442       -2.68052058078162
O            0.13837872699831        1.67377066447255       -2.57307579585292
O           -0.02364665673544       -0.21580031710032       -3.74872089076890
H            0.81639357572320        0.87301394132116        2.37800762989031
H           -0.84202210399732        0.84743517697468        2.40384317580928
H           -0.87139014629437       -1.19393264355978        1.09785462836594
H            0.89652926517529       -1.15103423975343        1.08116919174633
H            0.83592947786571        1.04106986171850       -0.11841975952116
H           -0.91936888533612        1.03290903664995       -0.07271235559074
H           -0.94363505332237       -1.04474477542191       -1.45062514325597
H            0.82349805164749       -1.06797254991719       -1.43856280085632
H            0.01968902180150       -0.35294630245279        3.20345201062454
O           -0.14628836955314        2.42330822504352       -6.29489037140749
H           -0.25572200836531        1.51204538696845       -6.56589995656106
H            0.70992002241824        2.51069489836339       -5.86722120494761
O            1.04043140058679        3.64904445233062        1.04389153492762
H            1.33941187666877        3.55113654040950        1.94370490419567
H            1.71910246634440        3.32619061182229        0.45573836589668
O           -0.44421787933688       -3.68908943052942       -2.09176154628749
H            0.41621115659222       -3.92952402757723       -1.81301545952513
H           -0.37343219243931       -2.91488914285604       -2.63506771441515
O            1.66196332976808       -3.27664200132899       -3.89759333714261
H            1.10145166536510       -3.70592592747199       -4.55538443173274
H            1.84687902360015       -2.40691102418631       -4.21455935487688
O            0.31372738521594        4.22541812171140       -4.06386439598640
H           -0.45621138283991        4.76186572231987       -3.79813876675132
H            0.17804148022713        3.35543787456889       -3.55825203570002
O            2.11288378704211       -0.44861069867147       -5.66689643451754
H            1.59992223986292        0.19589837020073       -6.16699079531775
H            1.99456485486575       -0.20602679347789       -4.72933205744468
O            2.98997039724663       -1.30636164126087       -2.11346925641825
H            3.70248472294010       -0.70931758667388       -1.81843653453182
H            3.25646861443953       -2.19664022812986       -1.80547908120635
37
 energy: -59.801280576343 gnorm: 0.108399104633 xtb: 6.7.1 (edcfbbe)
N           -0.00967598727934        0.25825159257719        2.37100580148588
C           -0.00844029327344       -0.53193680847591        1.11377631116002
C           -0.04350070108954        0.39225040808271       -0.09693145011882
C           -0.05342367487226       -0.41594270334070       -1.38481827218380
C            0.02707006382093        0.44444956284051       -2.67768663356260
O            0.12715394233115        1.68038905181356       -2.56554878287735
O           -0.01417704810608       -0.18430940748945       -3.74641423992203
H            0.80878289626675        0.87468554568764        2.37692960085196
H           -0.84763664461596        0.84940919532190        2.40122697800046
H           -0.87575222896733       -1.18992237038474        1.09435949475461
H            0.88982702043167       -1.14597259148287        1.07737095199408
H            0.82796366770957        1.04568286933138       -0.11770268455235
H           -0.92411023044050        1.03551836621261       -0.07664199335604
H           -0.94723803254205       -1.03650215439647       -1.46340477169572
H            0.82075596164065       -1.06587100733922       -1.44009380835742
H            0.01218042934779       -0.35070062435292        3.19607081799348
O           -0.16165223880865        2.44443173365467       -6.36689918638605
H           -0.25397396840576        1.46657426542132       -6.53128530601071
H            0.66639063277031        2.51548672788896       -5.82893051625698
O            0.99285786780452        3.60087471477429        1.04472852188002
H            1.39906017186008        3.58762596916176        1.95683276157363
H            1.72896149094058        3.35762469584030        0.45054742211657
O           -0.52354944045675       -3.60862565888038       -1.97354249649058
H            0.42944819017918       -4.03009459325278       -1.88936001488738
H           -0.36326829137169       -2.92478555863436       -2.66545791815094
O            1.68463610191540       -3.30937870897623       -3.91730942249505
H            1.11192723562674       -3.71177191619801       -4.57529576919408
H            1.83860302661596       -2.40218671719922       -4.19864982082597
O            0.27800591157221        4.20952571341196       -4.04230878260525
H           -0.46388561896627        4.75770628636444       -3.77124701197680
H            0.21272914857630        3.37696589250476       -3.53717326377772
O            2.13314723191981       -0.46315314031301       -5.66303752348993
H            1.62343315144800        0.16672339567362       -6.18137513680791
H            1.97965673490865       -0.21393145201773       -4.73164558766341
O            3.01288320225230       -1.28828001795937       -2.10405234076928
H            3.74491494715430       -0.70607404815310       -1.81539218953567
H            3.29155337210333       -2.19709650771779       -1.82496673786051
37
 energy: -59.806318314782 gnorm: 0.064951913118 xtb: 6.7.1 (edcfbbe)
N           -0.00493518445502        0.25711361258612        2.37135111656856
C           -0.00500950622745       -0.53250560640984        1.11402367438950
C           -0.04341440988030        0.39408829240918       -0.09481745564262
C           -0.05243747022240       -0.40970255799113       -1.38513117553772
C            0.02583294010555        0.45661066951404       -2.67356943503585
O            0.12822958453384        1.69420943863161       -2.55421846301539
O           -0.00644965817936       -0.16927399073103       -3.74970277196113
H            0.81321181046268        0.87455905507072        2.37677274024597
H           -0.84314571531638        0.84812286067886        2.40370708817564
H           -0.87182870577467       -1.19171193257248        1.09479021048549
H            0.89477013145647       -1.14477795531661        1.07432699792338
H            0.82697947121155        1.04959114731797       -0.11715575753424
H           -0.92598126310767        1.03492886622000       -0.07456303005172
H           -0.94568443785057       -1.03091018071454       -1.46660064365745
H            0.82124149747668       -1.06075149058479       -1.44331818449360
H            0.01849041284457       -0.35267457576639        3.19598310745775
O           -0.17796510292041        2.42072472350682       -6.34442342261582
H           -0.27184690096628        1.48211609570950       -6.55316123875325
H            0.65048839108177        2.52538620445091       -5.85919865977880
O            1.05263672921476        3.63887706964143        1.05593827445792
H            1.37623805102831        3.56698825046289        1.94049721342404
H            1.72341528291174        3.35281850050016        0.44320444077110
O           -0.50239921684196       -3.66832671099681       -2.05038101161513
H            0.39696016464486       -3.98453196532971       -1.83454717834842
H           -0.37517083212276       -2.93136894202206       -2.66281428111602
O            1.69760432339623       -3.32847005711625       -3.93164107039424
H            1.12143748769414       -3.71215669076632       -4.60156438914084
H            1.83235239328860       -2.39413881809557       -4.18297920870602
O            0.25675137243548        4.19505685131457       -4.01752387904509
H           -0.48401917808931        4.74802308594478       -3.75894279020531
H            0.21446604569311        3.38688658869938       -3.51523386223593
O            2.16640827288942       -0.46653952554231       -5.66668933332131
H            1.61130832297762        0.14034171351959       -6.18894354238630
H            1.94135482221625       -0.21975029588391       -4.72492158815088
O            3.07170424114552       -1.30748953511887       -2.11695999203812
H            3.73563682643381       -0.70038970272939       -1.81249560681257
H            3.28442700681182       -2.17333249249164       -1.79341989230391
37
 energy: -59.789250095284 gnorm: 0.177461029463 xtb: 6.7.1 (edcfbbe)
N           -0.00309020226549        0.25692032353050        2.37137019558691
C           -0.00351659067978       -0.53191608058114        1.11377985422902
C           -0.04363848605127        0.39785030721735       -0.09241909745207
C           -0.04999399608983       -0.40056436321843       -1.38465086683829
C            0.00950993849291        0.47311785116496       -2.66892541370774
O            0.13738460495590        1.71343366519015       -2.54246915537858
O            0.01543275355389       -0.15839998753107       -3.75941971311694
H            0.81579188384366        0.87598161764226        2.37627598972958
H           -0.84237905509508        0.84839773128019        2.40474474047110
H           -0.87046748968481       -1.19325081161176        1.09353869176746
H            0.89823813836618       -1.14336662180388        1.07110605535011
H            0.82554550051676        1.05648436975038       -0.11592222190546
H           -0.93019172952679        1.03485270719850       -0.07344575664535
H           -0.94203496093999       -1.02383915459434       -1.46913949227621
H            0.82452392881229       -1.05327339244459       -1.44736994635577
H            0.02124926812189       -0.35457108364265        3.19603126446704
O           -0.18876936121906        2.40228907362488       -6.32087750923778
H           -0.29317881528118        1.51407181788055       -6.57153987753010
H            0.63164580934468        2.53614622295005       -5.88383823312554
O            0.95033695751766        3.53964587873283        1.04725645480277
H            1.48015747154691        3.63109055054409        1.96586633256899
H            1.75295308322152        3.40253262248681        0.43845742305073
O           -0.45959986528463       -3.74293632516433       -2.14169533622508
H            0.35096663254851       -3.91474201640486       -1.77669557468414
H           -0.39374223665020       -2.94828511634250       -2.65311201422064
O            1.66913622721217       -3.31360258405083       -3.91693794616878
H            1.13868485133448       -3.72151940802943       -4.61853084760115
H            1.85083525196480       -2.41986042148355       -4.20301893499098
O            0.31455818603941        4.21844048600005       -3.97761687872658
H           -0.50305902897545        4.72944608517067       -3.76296118062571
H            0.13846519400507        3.33271702276940       -3.50619327287374
O            2.07509453270270       -0.49411812060826       -5.63410773623695
H            1.63255547008898        0.13643991074097       -6.19385474199289
H            1.99677907604705       -0.23235373102050       -4.76218372047903
O            3.03532257087454       -1.27442301394931       -2.06834697896451
H            3.79731754187616       -0.71339035993918       -1.80993827896269
H            3.31283494475568       -2.17780565145385       -1.82753927569974
37
 energy: -59.808185577865 gnorm: 0.066121655005 xtb: 6.7.1 (edcfbbe)
N           -0.00513231576453        0.25800465619939        2.36912820886277
C           -0.00536897707886       -0.53071341588961        1.11203513916830
C           -0.04560492851169        0.39835211215132       -0.09499843456092
C           -0.04998446071738       -0.39984275996661       -1.38876450906876