
                                 *****************
                                 * O   R   C   A *
                                 *****************

                                            #,                                       
                                            ###                                      
                                            ####                                     
                                            #####                                    
                                            ######                                   
                                           ########,                                 
                                     ,,################,,,,,                         
                               ,,#################################,,                 
                          ,,##########################################,,             
                       ,#########################################, ''#####,          
                    ,#############################################,,   '####,        
                  ,##################################################,,,,####,       
                ,###########''''           ''''###############################       
              ,#####''   ,,,,##########,,,,          '''####'''          '####       
            ,##' ,,,,###########################,,,                        '##       
           ' ,,###''''                  '''############,,,                           
         ,,##''                                '''############,,,,        ,,,,,,###''
      ,#''                                            '''#######################'''  
     '                                                          ''''####''''         
             ,#######,   #######,   ,#######,      ##                                
            ,#'     '#,  ##    ##  ,#'     '#,    #''#        ,####,   ,####,        
            ##       ##  ##   ,#'  ##            #'  '#       #'       #'  '#        
            ##       ##  #######   ##           ,######,      #####,   #    #        
            '#,     ,#'  ##    ##  '#,     ,#' ,#      #,     #,   #   #,  ,#        
             '#######'   ##     ##  '#######'  #'      '#     '####' # '####'        



                #########################################################
                #                        -***-                          #
                #          Department of theory and spectroscopy        #
                #                                                       #
                #                      Frank Neese                      #
                #                                                       #
                #     Directorship, Architecture, Infrastructure        #
                #                    SHARK, DRIVERS                     #
                #        Core code/Algorithms in most modules           #
                #                                                       #
                #        Max Planck Institute fuer Kohlenforschung      #
                #                Kaiser Wilhelm Platz 1                 #
                #                 D-45470 Muelheim/Ruhr                 #
                #                      Germany                          #
                #                                                       #
                #                  All rights reserved                  #
                #                        -***-                          #
                #########################################################


                         Program Version 6.0.1  -  RELEASE   -


 With contributions from (in alphabetic order):
[Max-Planck-Institut fuer Kohlenforschung]                               
  Daniel Aravena         : Magnetic Suceptibility                        
  Michael Atanasov       : Ab Initio Ligand Field Theory (pilot matlab implementation)
  Alexander A. Auer      : GIAO ZORA, VPT2 properties, NMR spectrum      
  Ute Becker             : All parallelization in ORCA, NUMFREQ, NUMCALC 
  Giovanni Bistoni       : ED, misc. LED, open-shell LED, HFLD           
  Martin Brehm           : Molecular dynamics                            
  Dmytro Bykov           : pre 5.0 version of the SCF Hessian            
  Marcos Casanova-Páez   : Triplet and SCS-CIS(D). UHF-(DLPNO)-IP/EA/STEOM-CCSD. UHF-CVS-IP/STEOM-CCSD   
  Vijay G. Chilkuri      : MRCI spin determinant printing, contributions to CSF-ICE 
  Pauline Colinet        : FMM embedding                                 
  Dipayan Datta          : RHF DLPNO-CCSD density                        
  Achintya Kumar Dutta   : EOM-CC, STEOM-CC                              
  Nicolas Foglia         : Exact transition moments, OPA infrastructure, MCD improvements    
  Dmitry Ganyushin       : Spin-Orbit,Spin-Spin,Magnetic field MRCI      
  Miquel Garcia-Rates    : C-PCM and meta-GGA Hessian, CCSD/C-PCM, Gaussian charge scheme 
  Tiago L. C. Gouveia    : GS-ROHF, GS-ROCIS                             
  Yang Guo               : DLPNO-NEVPT2, F12-NEVPT2, CIM, IAO-localization        
  Andreas Hansen         : Spin unrestricted coupled pair/coupled cluster methods 
  Ingolf Harden          : AUTO-CI MPn and infrastructure                
  Benjamin Helmich-Paris : MC-RPA, TRAH-(SCF,CASSCF), AVAS, COSX integrals, SCF dyn. polar. 
  Lee Huntington         : MR-EOM, pCC                                   
  Robert Izsak           : Overlap fitted RIJCOSX, COSX-SCS-MP3, EOM     
  Riya Kayal             : Wick's Theorem for AUTO-CI, AUTO-CI UHF-CCSDT 
  Emily Kempfer          : AUTO-CI, RHF CISDT and CCSDT                  
  Christian Kollmar      : KDIIS, OOCD, Brueckner-CCSD(T), CCSD density, CASPT2, CASPT2-K, improved NEVPT2 
  Axel Koslowski         : Symmetry handling                             
  Simone Kossmann        : meta-GGA functionals, TD-DFT gradient, OOMP2, (MP2 Hessian; deprecated post 5.0) 
  Lucas Lang             : DCDCAS                                        
  Marvin Lechner         : AUTO-CI (C++ implementation), FIC-MRCC        
  Spencer Leger          : CASSCF response                               
  Dagmar Lenk            : GEPOL surface, SMD, ORCA-2-JSON               
  Dimitrios Liakos       : Extrapolation schemes; Compound Job, initial MDCI parallelization 
  Dimitrios Manganas     : Further ROCIS development; embedding schemes. LFT, Crystal Embedding 
  Dimitrios Pantazis     : SARC Basis sets                               
  Anastasios Papadopoulos: AUTO-CI, single reference methods and gradients 
  Taras Petrenko         : pre 6.0 DFT Hessian and TD-DFT gradient, (ASA, deprecated), ECA, 1-Electron XAS/XES, NRVS 
  Peter Pinski           : DLPNO-MP2, DLPNO-MP2 Gradient                 
  Christoph Reimann      : Effective Core Potentials                     
  Marius Retegan         : Local ZFS, SOC                                
  Christoph Riplinger    : Optimizer, TS searches, QM/MM, DLPNO-CCSD(T), (RO)-DLPNO pert. Triples 
  Michael Roemelt        : Original ROCIS implementation                 
  Masaaki Saitow         : Open-shell DLPNO-CCSD energy and density      
  Barbara Sandhoefer     : DKH picture change effects                    
  Kantharuban Sivalingam : CASSCF convergence/infrastructure, NEVPT2 and variants, FIC-MRCI 
  Bernardo de Souza      : ESD, SOC TD-DFT                               
  Georgi L. Stoychev     : AutoAux, RI-MP2 NMR, DLPNO-MP2 response, X2C  
  Van Anh Tran           : RI-MP2 g-tensors                              
  Willem Van den Heuvel  : Paramagnetic NMR                              
  Zikuan Wang            : NOTCH, Electric field optimization            
  Frank Wennmohs         : Technical directorship and infrastructure     
  Hang Xu                : AUTO-CI-Response properties                   
                                                                         
[FACCTs GmbH]                                                            
  Markus Bursch, Miquel Garcia-Rates, Christoph Riplinger, Bernardo de Souza, Georgi L. Stoychev 
                                                                 
  APM, Basis sets (HGBS, AHGBS, def-TZVP (Ac-Lr), def2-XVPD (La-Lu)), CI-OPT, improved COSX, DLPNO-Multilevel,           
  DOCKER, DRACO, updates on ESD, GOAT, IRC, LR-CPCM, MBIS, meta-GGA TD-DFT gradient, ML-optimized integration grids, 
  MM, NACMEs, nearIR, NEB, NEB-TS, NL-DFT gradient (VV10), 2- and 3-layer-ONIOM, interface openCOSMO-RS, QMMM,   
  Crystal-QMMM, SF, symmetry and pop. for TD-DFT, r2SCAN hybrids, SOLVATOR                                   
                                                                         
[Other institutions]                                                     
  V. Asgeirsson          : NEB                                           
  Christoph Bannwarth    : sTDA-DFT, sTD-DFT, PBEh-3c, B97-3c, D3        
  Sebastian Ehlert       : rSCAN, r2SCAN, r2SCAN-3c, D4, dhf basis sets  
  Marvin Friede          : D4 for Fr, Ra, Ac-Lr                          
  Lars Goerigk           : TD-DFT with DH, B97 family of functionals     
  Stefan Grimme          : VdW corrections, initial TS optimization, DFT functionals, gCP, sTDA/sTD-DF 
  Waldemar Hujo          : DFT-NL                                        
  H. Jonsson             : NEB                                           
  Holger Kruse           : gCP                                           
  Marcel Mueller         : wB97X-3c, vDZP basis set                      
  Hagen Neugebauer       : wr2SCAN                                       
  Tobias Risthaus        : range-separated hybrid DFT                    
  Lukas Wittmann         : regularized MP2, r2SCAN double-hybrids, wr2SCAN        
                                                                         
We gratefully acknowledge several colleagues who have allowed us to      
interface, adapt or use parts of their codes:                            
  Ed Valeev, F. Pavosevic, A. Kumar             : LibInt (2-el integral package), F12 methods 
  Garnet Chan, S. Sharma, J. Yang, R. Olivares  : DMRG                   
  Ulf Ekstrom                                   : XCFun DFT Library      
  Mihaly Kallay                                 : mrcc  (arbitrary order and MRCC methods)
  Frank Weinhold                                : gennbo (NPA and NBO analysis)           
  Simon Mueller                                 : openCOSMO-RS                            
  Christopher J. Cramer and Donald G. Truhlar   : smd solvation model                     
  S Lehtola, MJT Oliveira, MAL Marques          : LibXC Library                           
  Liviu Ungur et al                             : ANISO software                          


 Your calculation uses the libint2 library for the computation of 2-el integrals
 For citations please refer to: http://libint.valeyev.net

 Your ORCA version has been built with support for libXC version: 6.2.2
 For citations please refer to: https://libxc.gitlab.io

 This ORCA versions uses:
   CBLAS   interface :  Fast vector & matrix operations
   LAPACKE interface :  Fast linear algebra routines
   SCALAPACK package :  Parallel linear algebra routines
   Shared memory     :  Shared parallel matrices
   BLAS/LAPACK       :  OpenBLAS 0.3.27  USE64BITINT DYNAMIC_ARCH NO_AFFINITY SkylakeX SINGLE_THREADED
        Core in use  :  SkylakeX
   Copyright (c) 2011-2014, The OpenBLAS Project


NOTE: MaxCore=5000 MB was set to SCF,MP2,MDCI,CIPSI,MRCI and CIS
      => If you want to overwrite this, your respective input block should be placed after the MaxCore statement
Your calculation utilizes the atom-pairwise dispersion correction
based on EEQ partial charges (D4)


Warning: RI is on but no J-basis has been assigned. Assigning Def2/J (nothing to worry about!)
================================================================================

----- Orbital basis set information -----
Your calculation utilizes the basis: def2-TZVP
   F. Weigend and R. Ahlrichs, Phys. Chem. Chem. Phys. 7, 3297 (2005).

----- AuxJ basis set information -----
Your calculation utilizes the auxiliary basis: def2/J
   F. Weigend, Phys. Chem. Chem. Phys. 8, 1057 (2006).

================================================================================
                                        WARNINGS
                       Please study these warnings very carefully!
================================================================================


================================================================================
                                       INPUT FILE
================================================================================
NAME = input.inp
|  1> ! SP B3LYP D4 def2-TZVP TightSCF CPCM(water)
|  2> 
|  3> %maxcore 5000
|  4> 
|  5> %pal
|  6> nprocs 25
|  7> end
|  8> 
|  9> %geom
| 10>     MaxIter 500
| 11> end
| 12> 
| 13> * xyz 0 1
| 14> N           -0.73956256452989       -0.19467634372270        2.48811412888946
| 15> C           -0.75587308741843       -0.67149508550203        1.10043070375262
| 16> C            0.40462977461849       -0.02199709591834        0.35327123897693
| 17> C            0.20518683500517       -0.01031489819062       -1.15354995776363
| 18> C            0.46238002218226       -1.31652507783706       -1.86762639552651
| 19> O            0.66223491220690       -2.38281507167850       -1.22409524743554
| 20> O            0.44959038919511       -1.29424698890486       -3.12363201620814
| 21> H            0.15325962538743       -0.44831374941744        2.94648867540385
| 22> H           -0.80906333069797        0.84273668815603        2.46927129272544
| 23> H           -1.70389621426972       -0.39221449526096        0.63904869943379
| 24> H           -0.67823956371845       -1.75820192356693        1.07342130572674
| 25> H            1.33862931055163       -0.52850609528880        0.59085677101371
| 26> H            0.48950917708774        1.01467922809583        0.67560190449735
| 27> H           -0.82266741189115        0.26402510721318       -1.39204595505243
| 28> H            0.85864188624017        0.72485797271058       -1.62262151847862
| 29> H           -1.52389032033640       -0.59630764096720        3.04106006947343
| 30> O           -1.51530433866070       -4.07125878511397       -1.35690989598740
| 31> H           -0.69715389333578       -3.55140843872541       -1.26145473511632
| 32> H           -1.86873676187796       -4.17121587694078       -0.44590300817433
| 33> O            0.62790146057229        0.71652035460665       -4.85558969613393
| 34> H            0.48483025530487        0.03828879458315       -4.15986916239720
| 35> H            1.59082200059844        0.84350028276458       -4.91513854566338
| 36> O            1.45148896769550       -3.62629533173420        3.50996919410558
| 37> H            1.63445501856519       -3.37518261925473        2.58596673788063
| 38> H            1.89417193433211       -4.46596595041141        3.65066908819536
| 39> O           -2.49406406457798       -4.15479313917054        1.18695466119623
| 40> H           -3.19027071233990       -3.48683458308936        1.35277140375859
| 41> H           -1.96251311210830       -4.15881556439177        2.00360363130108
| 42> O            1.63241619793980       -0.48765979815663        3.95612856353286
| 43> H            1.34255040920650       -0.94751379599821        4.76018395915603
| 44> H            1.38665092614738        0.44548735464431        4.11100107730805
| 45> O           -2.62407523041586        1.86266067674347        4.46822720216183
| 46> H           -1.65159426487313        1.67848755496667        4.46837379320250
| 47> H           -2.68168421535275        2.80049955623513        4.21812067786375
| 48> O           -1.37757084970004        2.95707040822533       -2.59874386100078
| 49> H           -0.54244768156653        3.27383036233515       -3.00835862372619
| 50> H           -1.35011721524976        1.98870246129843       -2.65435407606123
| 51> O           -0.73945165997048        4.21175296212047       -0.23366011344880
| 52> H           -0.62401380832364        3.52433001385938        0.46397400711730
| 53> H           -1.09620564500643        3.73403081434221       -1.00756988063151
| 54> O            3.27012900533152        0.76048909594722       -5.68112477573522
| 55> H            3.31088218975393        0.96403838691938       -6.61994057883760
| 56> H            3.27058200550311       -0.22089691836317       -5.61880441234748
| 57> O           -1.21477340039443       -3.92765055085004        3.63925818776672
| 58> H           -0.24859733554197       -3.73588100629844        3.61163414916471
| 59> H           -1.35187385557252       -4.56183474848309        4.34570180703697
| 60> O            0.92714515017393        3.72188834168915       -3.81368348550060
| 61> H            1.42141040248753        2.92013023158470       -3.56460394504108
| 62> H            0.61445808666455        3.59264525701039       -4.72670485612602
| 63> O           -2.64147930425655       -1.60192717383678        3.86022780078015
| 64> H           -2.16471238957065       -2.44952693065857        3.77236477125597
| 65> H           -3.38682325157026       -1.65642398906874        3.24148063277304
| 66> O            1.73480721271329        4.56113634589675       -1.21568042673424
| 67> H            0.81940240787705        4.52981505457611       -0.83995473740398
| 68> H            1.59082847847346        4.70804770259934       -2.15866207989246
| 69> O           -2.17809152349068        0.36439472260754       -3.24116948717349
| 70> H           -2.21587938235757        0.34207355516832       -4.21677753168393
| 71> H           -2.34132183285986       -0.55798051945147       -2.97299406995272
| 72> O           -3.05032837280045        4.96480189270943        1.05769455686689
| 73> H           -2.19966695187014        4.95787410176369        0.57182224919430
| 74> H           -3.42118891895762        4.08081658212391        0.85833354778423
| 75> O            0.03968606318541        1.71297789971183        4.52352366231358
| 76> H            0.34831170490839        1.70587436295555        5.44751885354589
| 77> H            0.37797473750607        2.53425885057881        4.13808745418276
| 78> O           -4.38175264202267       -2.22788619810620        1.75828359433423
| 79> H           -5.29856174032752       -2.47733548390258        1.63018531808687
| 80> H           -4.16934203760972       -1.58301136655117        1.05037662251507
| 81> O           -1.21410222491516        1.18364542781905       -8.06102327530047
| 82> H           -0.88401759164856        1.94048682051130       -7.53087695739812
| 83> H           -0.50347597723555        0.52488678549728       -8.03117771591240
| 84> O           -3.84525790735762       -2.62584870662680       -5.17079428324991
| 85> H           -4.14896941721982       -1.77147230453867       -5.50074775016993
| 86> H           -2.99069069364076       -2.77572820514693       -5.60756028038713
| 87> O            0.97550386196437       -3.33289230169971       -4.67664492077621
| 88> H            0.74098592259427       -2.57872014761352       -4.06522111407960
| 89> H            1.37137035358316       -3.99410245809636       -4.08819251955145
| 90> O            4.40470524180393       -2.32503358400213       -3.15641791769392
| 91> H            4.00828659825457       -1.62321675227049       -2.58920730152745
| 92> H            5.34312483075734       -2.33001790292047       -2.94852330359968
| 93> O           -2.96784430980407       -2.16585551307041       -2.58996290508262
| 94> H           -3.36688142620907       -2.45811352505778       -3.43103438794086
| 95> H           -2.47067894742794       -2.93002424771220       -2.22793226612470
| 96> O            1.56606762872927        3.94551681807365        3.76497865407734
| 97> H            1.77374420860822        4.82812745983474        4.07329071312735
| 98> H            2.25144436203816        3.34771691050950        4.13389472570776
| 99> O           -3.84296353736823       -0.71291856627656       -0.41216826340191
|100> H           -4.30637869935826        0.01077581001391       -0.85112581293856
|101> H           -3.56227232515878       -1.30697524864517       -1.12755490327439
|102> O            3.92783282755283       -1.23815617139849        1.21070224234269
|103> H            4.24603208029079       -1.32371404526208        2.12708724899860
|104> H            3.26493594440972       -1.94917983224870        1.10945904487915
|105> O           -4.20380632177720        0.70546142454158        2.58964519620299
|106> H           -3.56054981842876        1.02841790089317        3.26161396210818
|107> H           -5.06985733119601        0.92341698092120        2.93502434542873
|108> O            1.68217449095068        2.92771938547850        1.17021217026017
|109> H            1.49180946742375        3.38117014517044        2.00992639368946
|110> H            1.93015292206463        3.60377585949637        0.53281717506800
|111> O            0.65413044269797       -0.73377818687074       -7.11871763188309
|112> H            1.48017122003396       -1.22220750887522       -7.04460531439708
|113> H            0.58618100591767       -0.21442248418226       -6.27489663130046
|114> O            3.62808727553544        1.39270980977993        2.11909559734101
|115> H            3.57134141430094        0.49754996640596        1.75252546331615
|116> H            2.91198056038367        1.91116809794546        1.68509562109270
|117> O           -2.51465171188215        0.06521056442229       -5.91594377514424
|118> H           -2.17933562401050        0.50939706159568       -6.72220852570691
|119> H           -2.08472326794494       -0.80626401250767       -5.92730993206684
|120> O            3.26816679739225        2.01655337886441        4.69468284532722
|121> H            3.27404463383798        1.63822854756420        3.77919744290365
|122> H            4.20535773341639        2.07855720214037        4.90783669705628
|123> O           -2.91067520924475        3.02927208422275       -4.84213008910835
|124> H           -3.08845815614392        2.09822017560593       -5.02498321759902
|125> H           -2.45988259888177        3.05606431263571       -3.96392387924980
|126> O           -2.35630155832460        4.47272152050729        3.59026394648826
|127> H           -2.66680412761708        4.71830187830140        2.68391863095933
|128> H           -2.43553957298566        5.26044029639650        4.12852845224627
|129> O           -1.85575939685810       -1.14545083324770        6.46477933629799
|130> H           -2.21050479636395       -1.25480767888540        5.56098797024234
|131> H           -2.21505881633852       -0.29488021984288        6.77842672025231
|132> O            5.85033806464731        1.15549432880217        3.87713537264077
|133> H            5.42726074017146        0.28321079597771        3.98859421566983
|134> H            5.45725100396043        1.48389940211587        3.05430345471614
|135> O           -4.24370588825045        1.60405243600562       -2.02282374839402
|136> H           -4.51375707642226        2.34210557974140       -2.57391193595346
|137> H           -3.47958949132085        1.18654196634800       -2.48678186391013
|138> O           -3.08990590826786        1.25589258630337        7.03435530493957
|139> H           -4.03920553429195        1.20666723769174        7.16515621284455
|140> H           -2.95462662309825        1.54406737394743        6.09607285004304
|141> O            1.51110726098783        1.38564399000434        6.79284252777582
|142> H            1.34993013153126        0.42211377022820        6.77277474610229
|143> H            2.24651550959278        1.54339754139419        6.17278062344181
|144> O            3.12823154502207       -1.93804302628443       -5.58686437944818
|145> H            3.70339061272694       -2.10527611755770       -4.81896316173328
|146> H            2.31163894531325       -2.43942664907453       -5.36578620337033
|147> O           -0.47086734598030        2.89302546052471       -6.06125480860907
|148> H           -0.21100059739157        2.06060900987721       -5.61215476295782
|149> H           -1.37248532802299        3.08540126719083       -5.72464483390088
|150> O            3.36495148798675       -0.52155424323406       -1.48745253381218
|151> H            3.69622566630044       -0.57120269076000       -0.57850744901988
|152> H            3.12501867168013        0.40795244191437       -1.65478877270681
|153> O            2.58617540509839        2.06417993573152       -2.23751969642163
|154> H            3.40044997810696        2.26041704937955       -2.73354375546530
|155> H            2.40645554143550        2.84945570965268       -1.68662326267470
|156> O            0.79974962680437       -1.28005747734245        6.47940672517638
|157> H            0.97361357411631       -1.92724737163197        7.16406586915000
|158> H           -0.18649765107151       -1.19220904381551        6.43920249734228
|159> O            2.40154497418386       -4.15961619259016       -2.38212431858116
|160> H            3.15898406273094       -3.61368042945282       -2.65853836396756
|161> H            1.76520654075473       -3.52374594524684       -1.98832477011816
|162> O            4.23530662744898       -1.13221567685353        3.95904917550335
|163> H            3.28689109691407       -0.83174629060432        3.93827628510990
|164> H            4.27827364345144       -1.80847000309913        4.63707122820545
|165> O            4.68443999238920        2.42517126107115       -3.98608166756729
|166> H            4.84479460439403        3.23496382155004       -4.47780331475375
|167> H            4.26571067682478        1.79856610708803       -4.60672619161862
|168> O            2.09391966047469       -3.24609946913002        0.84978182302142
|169> H            2.45266142098142       -4.01147460204464        0.39224562987114
|170> H            1.49711762882109       -2.82601626813641        0.19469361016502
|171> O           -1.22104549453263       -2.47767270048268       -6.20252587460811
|172> H           -0.61993060385987       -2.96094313338605       -5.61471606079963
|173> H           -0.61534299113581       -1.91656151343336       -6.73295612917152
|174> O           -1.08270333495706        2.49317088610459        1.85354045130781
|175> H           -1.28994927433229        3.13631035231783        2.54134865168529
|176> H           -1.92242342356053        2.34006420840423        1.37683457060141
|177> O           -3.46985240137303        2.31756323237814        0.56401829034886
|178> H           -3.69909043280611        2.03176781676981       -0.33400209327804
|179> H           -3.82008441531690        1.64156334578148        1.18544619745403
|180> *
|181> 
|182>                          ****END OF INPUT****
================================================================================

                       ****************************
                       * Single Point Calculation *
                       ****************************

---------------------------------
CARTESIAN COORDINATES (ANGSTROEM)
---------------------------------
  N     -0.739563   -0.194676    2.488114
  C     -0.755873   -0.671495    1.100431
  C      0.404630   -0.021997    0.353271
  C      0.205187   -0.010315   -1.153550
  C      0.462380   -1.316525   -1.867626
  O      0.662235   -2.382815   -1.224095
  O      0.449590   -1.294247   -3.123632
  H      0.153260   -0.448314    2.946489
  H     -0.809063    0.842737    2.469271
  H     -1.703896   -0.392214    0.639049
  H     -0.678240   -1.758202    1.073421
  H      1.338629   -0.528506    0.590857
  H      0.489509    1.014679    0.675602
  H     -0.822667    0.264025   -1.392046
  H      0.858642    0.724858   -1.622622
  H     -1.523890   -0.596308    3.041060
  O     -1.515304   -4.071259   -1.356910
  H     -0.697154   -3.551408   -1.261455
  H     -1.868737   -4.171216   -0.445903
  O      0.627901    0.716520   -4.855590
  H      0.484830    0.038289   -4.159869
  H      1.590822    0.843500   -4.915139
  O      1.451489   -3.626295    3.509969
  H      1.634455   -3.375183    2.585967
  H      1.894172   -4.465966    3.650669
  O     -2.494064   -4.154793    1.186955
  H     -3.190271   -3.486835    1.352771
  H     -1.962513   -4.158816    2.003604
  O      1.632416   -0.487660    3.956129
  H      1.342550   -0.947514    4.760184
  H      1.386651    0.445487    4.111001
  O     -2.624075    1.862661    4.468227
  H     -1.651594    1.678488    4.468374
  H     -2.681684    2.800500    4.218121
  O     -1.377571    2.957070   -2.598744
  H     -0.542448    3.273830   -3.008359
  H     -1.350117    1.988702   -2.654354
  O     -0.739452    4.211753   -0.233660
  H     -0.624014    3.524330    0.463974
  H     -1.096206    3.734031   -1.007570
  O      3.270129    0.760489   -5.681125
  H      3.310882    0.964038   -6.619941
  H      3.270582   -0.220897   -5.618804
  O     -1.214773   -3.927651    3.639258
  H     -0.248597   -3.735881    3.611634
  H     -1.351874   -4.561835    4.345702
  O      0.927145    3.721888   -3.813683
  H      1.421410    2.920130   -3.564604
  H      0.614458    3.592645   -4.726705
  O     -2.641479   -1.601927    3.860228
  H     -2.164712   -2.449527    3.772365
  H     -3.386823   -1.656424    3.241481
  O      1.734807    4.561136   -1.215680
  H      0.819402    4.529815   -0.839955
  H      1.590828    4.708048   -2.158662
  O     -2.178092    0.364395   -3.241169
  H     -2.215879    0.342074   -4.216778
  H     -2.341322   -0.557981   -2.972994
  O     -3.050328    4.964802    1.057695
  H     -2.199667    4.957874    0.571822
  H     -3.421189    4.080817    0.858334
  O      0.039686    1.712978    4.523524
  H      0.348312    1.705874    5.447519
  H      0.377975    2.534259    4.138087
  O     -4.381753   -2.227886    1.758284
  H     -5.298562   -2.477335    1.630185
  H     -4.169342   -1.583011    1.050377
  O     -1.214102    1.183645   -8.061023
  H     -0.884018    1.940487   -7.530877
  H     -0.503476    0.524887   -8.031178
  O     -3.845258   -2.625849   -5.170794
  H     -4.148969   -1.771472   -5.500748
  H     -2.990691   -2.775728   -5.607560
  O      0.975504   -3.332892   -4.676645
  H      0.740986   -2.578720   -4.065221
  H      1.371370   -3.994102   -4.088193
  O      4.404705   -2.325034   -3.156418
  H      4.008287   -1.623217   -2.589207
  H      5.343125   -2.330018   -2.948523
  O     -2.967844   -2.165856   -2.589963
  H     -3.366881   -2.458114   -3.431034
  H     -2.470679   -2.930024   -2.227932
  O      1.566068    3.945517    3.764979
  H      1.773744    4.828127    4.073291
  H      2.251444    3.347717    4.133895
  O     -3.842964   -0.712919   -0.412168
  H     -4.306379    0.010776   -0.851126
  H     -3.562272   -1.306975   -1.127555
  O      3.927833   -1.238156    1.210702
  H      4.246032   -1.323714    2.127087
  H      3.264936   -1.949180    1.109459
  O     -4.203806    0.705461    2.589645
  H     -3.560550    1.028418    3.261614
  H     -5.069857    0.923417    2.935024
  O      1.682174    2.927719    1.170212
  H      1.491809    3.381170    2.009926
  H      1.930153    3.603776    0.532817
  O      0.654130   -0.733778   -7.118718
  H      1.480171   -1.222208   -7.044605
  H      0.586181   -0.214422   -6.274897
  O      3.628087    1.392710    2.119096
  H      3.571341    0.497550    1.752525
  H      2.911981    1.911168    1.685096
  O     -2.514652    0.065211   -5.915944
  H     -2.179336    0.509397   -6.722209
  H     -2.084723   -0.806264   -5.927310
  O      3.268167    2.016553    4.694683
  H      3.274045    1.638229    3.779197
  H      4.205358    2.078557    4.907837
  O     -2.910675    3.029272   -4.842130
  H     -3.088458    2.098220   -5.024983
  H     -2.459883    3.056064   -3.963924
  O     -2.356302    4.472722    3.590264
  H     -2.666804    4.718302    2.683919
  H     -2.435540    5.260440    4.128528
  O     -1.855759   -1.145451    6.464779
  H     -2.210505   -1.254808    5.560988
  H     -2.215059   -0.294880    6.778427
  O      5.850338    1.155494    3.877135
  H      5.427261    0.283211    3.988594
  H      5.457251    1.483899    3.054303
  O     -4.243706    1.604052   -2.022824
  H     -4.513757    2.342106   -2.573912
  H     -3.479589    1.186542   -2.486782
  O     -3.089906    1.255893    7.034355
  H     -4.039206    1.206667    7.165156
  H     -2.954627    1.544067    6.096073
  O      1.511107    1.385644    6.792843
  H      1.349930    0.422114    6.772775
  H      2.246516    1.543398    6.172781
  O      3.128232   -1.938043   -5.586864
  H      3.703391   -2.105276   -4.818963
  H      2.311639   -2.439427   -5.365786
  O     -0.470867    2.893025   -6.061255
  H     -0.211001    2.060609   -5.612155
  H     -1.372485    3.085401   -5.724645
  O      3.364951   -0.521554   -1.487453
  H      3.696226   -0.571203   -0.578507
  H      3.125019    0.407952   -1.654789
  O      2.586175    2.064180   -2.237520
  H      3.400450    2.260417   -2.733544
  H      2.406456    2.849456   -1.686623
  O      0.799750   -1.280057    6.479407
  H      0.973614   -1.927247    7.164066
  H     -0.186498   -1.192209    6.439202
  O      2.401545   -4.159616   -2.382124
  H      3.158984   -3.613680   -2.658538
  H      1.765207   -3.523746   -1.988325
  O      4.235307   -1.132216    3.959049
  H      3.286891   -0.831746    3.938276
  H      4.278274   -1.808470    4.637071
  O      4.684440    2.425171   -3.986082
  H      4.844795    3.234964   -4.477803
  H      4.265711    1.798566   -4.606726
  O      2.093920   -3.246099    0.849782
  H      2.452661   -4.011475    0.392246
  H      1.497118   -2.826016    0.194694
  O     -1.221045   -2.477673   -6.202526
  H     -0.619931   -2.960943   -5.614716
  H     -0.615343   -1.916562   -6.732956
  O     -1.082703    2.493171    1.853540
  H     -1.289949    3.136310    2.541349
  H     -1.922423    2.340064    1.376835
  O     -3.469852    2.317563    0.564018
  H     -3.699090    2.031768   -0.334002
  H     -3.820084    1.641563    1.185446

----------------------------
CARTESIAN COORDINATES (A.U.)
----------------------------
  NO LB      ZA    FRAG     MASS         X           Y           Z
   0 N     7.0000    0    14.007   -1.397571   -0.367885    4.701854
   1 C     6.0000    0    12.011   -1.428393   -1.268942    2.079513
   2 C     6.0000    0    12.011    0.764639   -0.041568    0.667586
   3 C     6.0000    0    12.011    0.387747   -0.019492   -2.179894
   4 C     6.0000    0    12.011    0.873772   -2.487872   -3.529302
   5 O     8.0000    0    15.999    1.251443   -4.502868   -2.313205
   6 O     8.0000    0    15.999    0.849603   -2.445772   -5.902809
   7 H     1.0000    0     1.008    0.289619   -0.847190    5.568057
   8 H     1.0000    0     1.008   -1.528908    1.592542    4.666246
   9 H     1.0000    0     1.008   -3.219897   -0.741178    1.207627
  10 H     1.0000    0     1.008   -1.281687   -3.322520    2.028472
  11 H     1.0000    0     1.008    2.529643   -0.998732    1.116557
  12 H     1.0000    0     1.008    0.925038    1.917466    1.276703
  13 H     1.0000    0     1.008   -1.554616    0.498935   -2.630586
  14 H     1.0000    0     1.008    1.622598    1.369783   -3.066310
  15 H     1.0000    0     1.008   -2.879735   -1.126858    5.746771
  16 O     8.0000    0    15.999   -2.863510   -7.693564   -2.564188
  17 H     1.0000    0     1.008   -1.317430   -6.711189   -2.383804
  18 H     1.0000    0     1.008   -3.531401   -7.882456   -0.842635
  19 O     8.0000    0    15.999    1.186562    1.354027   -9.175735
  20 H     1.0000    0     1.008    0.916196    0.072355   -7.861013
  21 H     1.0000    0     1.008    3.006218    1.593985   -9.288266
  22 O     8.0000    0    15.999    2.742917   -6.852705    6.632881
  23 H     1.0000    0     1.008    3.088672   -6.378171    4.886769
  24 H     1.0000    0     1.008    3.579466   -8.439453    6.898765
  25 O     8.0000    0    15.999   -4.713098   -7.851421    2.243019
  26 H     1.0000    0     1.008   -6.028738   -6.589162    2.556367
  27 H     1.0000    0     1.008   -3.708612   -7.859022    3.786262
  28 O     8.0000    0    15.999    3.084820   -0.921543    7.476000
  29 H     1.0000    0     1.008    2.537053   -1.790542    8.995444
  30 H     1.0000    0     1.008    2.620390    0.841849    7.768666
  31 O     8.0000    0    15.999   -4.958784    3.519919    8.443726
  32 H     1.0000    0     1.008   -3.121061    3.171882    8.444003
  33 H     1.0000    0     1.008   -5.067649    5.292177    7.971093
  34 O     8.0000    0    15.999   -2.603232    5.588053   -4.910914
  35 H     1.0000    0     1.008   -1.025078    6.186643   -5.684974
  36 H     1.0000    0     1.008   -2.551352    3.758103   -5.016002
  37 O     8.0000    0    15.999   -1.397361    7.959060   -0.441554
  38 H     1.0000    0     1.008   -1.179215    6.660019    0.876784
  39 H     1.0000    0     1.008   -2.071528    7.056296   -1.904031
  40 O     8.0000    0    15.999    6.179648    1.437116  -10.735770
  41 H     1.0000    0     1.008    6.256661    1.821769  -12.509875
  42 H     1.0000    0     1.008    6.180504   -0.417435  -10.618002
  43 O     8.0000    0    15.999   -2.295589   -7.422184    6.877201
  44 H     1.0000    0     1.008   -0.469781   -7.059792    6.824999
  45 H     1.0000    0     1.008   -2.554671   -8.620618    8.212186
  46 O     8.0000    0    15.999    1.752050    7.033350   -7.206817
  47 H     1.0000    0     1.008    2.686076    5.518246   -6.736125
  48 H     1.0000    0     1.008    1.161158    6.789116   -8.932178
  49 O     8.0000    0    15.999   -4.991672   -3.027204    7.294773
  50 H     1.0000    0     1.008   -4.090714   -4.628935    7.128736
  51 H     1.0000    0     1.008   -6.400168   -3.130188    6.125511
  52 O     8.0000    0    15.999    3.278311    8.619299   -2.297303
  53 H     1.0000    0     1.008    1.548446    8.560110   -1.587284
  54 H     1.0000    0     1.008    3.006230    8.896921   -4.079280
  55 O     8.0000    0    15.999   -4.115996    0.688606   -6.124923
  56 H     1.0000    0     1.008   -4.187405    0.646425   -7.968555
  57 H     1.0000    0     1.008   -4.424457   -1.054430   -5.618145
  58 O     8.0000    0    15.999   -5.764285    9.382116    1.998753
  59 H     1.0000    0     1.008   -4.156768    9.369024    1.080587
  60 H     1.0000    0     1.008   -6.465110    7.711626    1.622015
  61 O     8.0000    0    15.999    0.074996    3.237059    8.548221
  62 H     1.0000    0     1.008    0.658214    3.223635   10.294319
  63 H     1.0000    0     1.008    0.714269    4.789055    7.819852
  64 O     8.0000    0    15.999   -8.280312   -4.210095    3.322674
  65 H     1.0000    0     1.008  -10.012831   -4.681486    3.080604
  66 H     1.0000    0     1.008   -7.878915   -2.991458    1.984924
  67 O     8.0000    0    15.999   -2.294321    2.236766  -15.233126
  68 H     1.0000    0     1.008   -1.670551    3.666989  -14.231295
  69 H     1.0000    0     1.008   -0.951432    0.991892  -15.176726
  70 O     8.0000    0    15.999   -7.266484   -4.962135   -9.771385
  71 H     1.0000    0     1.008   -7.840416   -3.347598  -10.394907
  72 H     1.0000    0     1.008   -5.651586   -5.245366  -10.596753
  73 O     8.0000    0    15.999    1.843435   -6.298254   -8.837578
  74 H     1.0000    0     1.008    1.400260   -4.873075   -7.682155
  75 H     1.0000    0     1.008    2.591514   -7.547760   -7.725564
  76 O     8.0000    0    15.999    8.323687   -4.393677   -5.964765
  77 H     1.0000    0     1.008    7.574564   -3.067435   -4.892893
  78 H     1.0000    0     1.008   10.097043   -4.403096   -5.571902
  79 O     8.0000    0    15.999   -5.608413   -4.092874   -4.894321
  80 H     1.0000    0     1.008   -6.362484   -4.645161   -6.483715
  81 H     1.0000    0     1.008   -4.668907   -5.536943   -4.210182
  82 O     8.0000    0    15.999    2.959439    7.455946    7.114779
  83 H     1.0000    0     1.008    3.351891    9.123839    7.697404
  84 H     1.0000    0     1.008    4.254613    6.326268    7.811929
  85 O     8.0000    0    15.999   -7.262149   -1.347221   -0.778885
  86 H     1.0000    0     1.008   -8.137876    0.020363   -1.608395
  87 H     1.0000    0     1.008   -6.731719   -2.469825   -2.130770
  88 O     8.0000    0    15.999    7.422528   -2.339776    2.287896
  89 H     1.0000    0     1.008    8.023838   -2.501457    4.019612
  90 H     1.0000    0     1.008    6.169835   -3.683416    2.096574
  91 O     8.0000    0    15.999   -7.944043    1.333129    4.893720
  92 H     1.0000    0     1.008   -6.728464    1.943428    6.163557
  93 H     1.0000    0     1.008   -9.580642    1.745005    5.546392
  94 O     8.0000    0    15.999    3.178849    5.532588    2.211381
  95 H     1.0000    0     1.008    2.819111    6.389486    3.798210
  96 H     1.0000    0     1.008    3.647460    6.810149    1.006879
  97 O     8.0000    0    15.999    1.236127   -1.386640  -13.452427
  98 H     1.0000    0     1.008    2.797118   -2.309637  -13.312375
  99 H     1.0000    0     1.008    1.107722   -0.405200  -11.857836
 100 O     8.0000    0    15.999    6.856091    2.631840    4.004510
 101 H     1.0000    0     1.008    6.748857    0.940233    3.311793
 102 H     1.0000    0     1.008    5.502846    3.611584    3.184369
 103 O     8.0000    0    15.999   -4.752003    0.123230  -11.179514
 104 H     1.0000    0     1.008   -4.118347    0.962621  -12.703133
 105 H     1.0000    0     1.008   -3.939556   -1.523618  -11.200992
 106 O     8.0000    0    15.999    6.175940    3.810734    8.871665
 107 H     1.0000    0     1.008    6.187048    3.095803    7.141648
 108 H     1.0000    0     1.008    7.946974    3.927904    9.274467
 109 O     8.0000    0    15.999   -5.500379    5.724495   -9.150300
 110 H     1.0000    0     1.008   -5.836340    3.965062   -9.495842
 111 H     1.0000    0     1.008   -4.648504    5.775125   -7.490731
 112 O     8.0000    0    15.999   -4.452765    8.452219    6.784616
 113 H     1.0000    0     1.008   -5.039529    8.916298    5.071871
 114 H     1.0000    0     1.008   -4.602503    9.940792    7.801788
 115 O     8.0000    0    15.999   -3.506877   -2.164588   12.216662
 116 H     1.0000    0     1.008   -4.177249   -2.371243   10.508744
 117 H     1.0000    0     1.008   -4.185855   -0.557243   12.809370
 118 O     8.0000    0    15.999   11.055537    2.183568    7.326724
 119 H     1.0000    0     1.008   10.256036    0.535191    7.537351
 120 H     1.0000    0     1.008   10.312710    2.804163    5.771797
 121 O     8.0000    0    15.999   -8.019442    3.031220   -3.822583
 122 H     1.0000    0     1.008   -8.529765    4.425938   -4.863989
 123 H     1.0000    0     1.008   -6.575471    2.242239   -4.699337
 124 O     8.0000    0    15.999   -5.839076    2.373293   13.293005
 125 H     1.0000    0     1.008   -7.632992    2.280271   13.540183
 126 H     1.0000    0     1.008   -5.583435    2.917864   11.519908
 127 O     8.0000    0    15.999    2.855579    2.618488   12.836612
 128 H     1.0000    0     1.008    2.550998    0.797679   12.798689
 129 H     1.0000    0     1.008    4.245299    2.916599   11.664865
 130 O     8.0000    0    15.999    5.911501   -3.662371  -10.557644
 131 H     1.0000    0     1.008    6.998394   -3.978395   -9.106521
 132 H     1.0000    0     1.008    4.368365   -4.609848  -10.139866
 133 O     8.0000    0    15.999   -0.889810    5.467026  -11.454112
 134 H     1.0000    0     1.008   -0.398733    3.893987  -10.605436
 135 H     1.0000    0     1.008   -2.593621    5.830563  -10.818011
 136 O     8.0000    0    15.999    6.358837   -0.985595   -2.810878
 137 H     1.0000    0     1.008    6.984854   -1.079417   -1.093221
 138 H     1.0000    0     1.008    5.905429    0.770918   -3.127098
 139 O     8.0000    0    15.999    4.887163    3.900735   -4.228299
 140 H     1.0000    0     1.008    6.425919    4.271569   -5.165649
 141 H     1.0000    0     1.008    4.547542    5.384691   -3.187256
 142 O     8.0000    0    15.999    1.511308   -2.418958   12.244304
 143 H     1.0000    0     1.008    1.839863   -3.641970   13.538122
 144 H     1.0000    0     1.008   -0.352429   -2.252949   12.168329
 145 O     8.0000    0    15.999    4.538262   -7.860535   -4.501563
 146 H     1.0000    0     1.008    5.969615   -6.828866   -5.023909
 147 H     1.0000    0     1.008    3.335757   -6.658915   -3.757389
 148 O     8.0000    0    15.999    8.003570   -2.139578    7.481519
 149 H     1.0000    0     1.008    6.211324   -1.571773    7.442264
 150 H     1.0000    0     1.008    8.084766   -3.417513    8.762795
 151 O     8.0000    0    15.999    8.852309    4.582910   -7.532603
 152 H     1.0000    0     1.008    9.155335    6.113196   -8.461822
 153 H     1.0000    0     1.008    8.061025    3.398797   -8.705451
 154 O     8.0000    0    15.999    3.956935   -6.134239    1.605855
 155 H     1.0000    0     1.008    4.634858   -7.580588    0.741237
 156 H     1.0000    0     1.008    2.829142   -5.340397    0.367918
 157 O     8.0000    0    15.999   -2.307442   -4.682123  -11.721075
 158 H     1.0000    0     1.008   -1.171499   -5.595372  -10.610276
 159 H     1.0000    0     1.008   -1.162830   -3.621776  -12.723443
 160 O     8.0000    0    15.999   -2.046013    4.711410    3.502684
 161 H     1.0000    0     1.008   -2.437651    5.926768    4.802453
 162 H     1.0000    0     1.008   -3.632854    4.422080    2.601840
 163 O     8.0000    0    15.999   -6.557071    4.379560    1.065840
 164 H     1.0000    0     1.008   -6.990268    3.839485   -0.631172
 165 H     1.0000    0     1.008   -7.218913    3.102105    2.240169

--------------------------------
INTERNAL COORDINATES (ANGSTROEM)
--------------------------------
 N      0   0   0     0.000000000000     0.00000000     0.00000000
 C      1   0   0     1.467408407386     0.00000000     0.00000000
 C      2   1   0     1.525405453338   108.44459852     0.00000000
 C      3   2   1     1.520007920654   112.89290087   201.45566731
 C      4   3   2     1.510707955864   116.07787652   282.43051894
 O      5   4   3     1.261367776105   121.11353216     8.67064537
 O      5   4   3     1.256268286292   117.09785661   187.72257938
 H      1   2   3     1.035166953331   110.40872194   300.05507746
 H      1   2   3     1.039909230503   107.83526430    57.91318566
 H      2   1   3     1.090696498133   109.05595999   239.99871667
 H      2   1   3     1.089811095319   110.28310294   121.72653174
 H      3   2   1     1.088739355677   110.34555742    78.67054598
 H      3   2   1     1.088944154523   108.64266672   320.26894255
 H      4   3   2     1.090241776924   110.02893581    42.68919050
 H      4   3   2     1.089729683529   110.68422882   161.41070464
 H      1   2   3     1.040301370115   111.64264943   179.03621573
 O      6   5   4     2.758651680328   111.57795070   106.60662956
 H     17   6   5     0.974025780748     6.06242562   173.73609524
 H     17   6   5     0.982262412816   107.55679599   243.81351476
 O      7   5   4     2.659822842402   131.58594864    16.99241821
 H     20   7   5     0.982086798532     6.71912156   313.14184608
 H     20   7   5     0.973080641077   101.81993292    83.52682533
 O      8   1   2     3.478861402489   128.12744179   298.76790542
 H     23   8   1     0.974840863551    71.40964717    80.41762819
 H     23   8   1     0.959589191799   174.41724382   145.05825088
 O     19  17   6     1.748578883048   173.61637245    49.95677363
 H     26  19  17     0.978962471775   114.76559216    43.88743246
 H     26  19  17     0.974411686788   125.98016123   271.54607435
 O      8   1   2     1.791319340982   165.27298832   146.11433431
 H     29   8   1     0.970563214860   103.33999916    90.50704750
 H     29   8   1     0.977317590716    81.99250309   347.68304056
 O      9   1   2     2.886232469238   112.45801069   137.22815056
 H     32   9   1     0.989767138582    46.88057041    90.83325003
 H     32   9   1     0.972323933948   101.53410155   188.95653322
 O     14   4   3     3.002753845192   119.19684955   108.66264748
 H     35  14   4     0.982624968298   107.43202128    21.46599748
 H     35  14   4     0.970351832429    28.69086467   112.83880220
 O     35  14   4     2.752280062836    91.18477135   290.24025650
 H     38  35  14     0.986189420734   108.49729113   351.46111111
 H     38  35  14     0.976948403990     8.76945029   282.23250083
 O     22  20   7     1.847619489490   156.76883212   106.35175093
 H     41  22  20     0.961492718667   115.70990438    40.72846957
 H     41  22  20     0.983362874012    91.08772257   292.52794972
 O     28  26  19     1.813261638056   168.64641236   138.91230908
 H     44  28  26     0.985410997513   113.81883140   230.47292633
 H     44  28  26     0.959191700624   121.40798890   100.66090452
 O     36  35  14     1.734649006848   175.43019507    60.91041567
 H     47  36  35     0.974245771989    95.65559818   299.40101216
 H     47  36  35     0.973696563536    97.41057634    47.47343119
 O     16   1   2     1.712107342979   166.70888347    60.69667066
 H     50  16   1     0.976448642101    98.51570919     8.37529534
 H     50  16   1     0.970234796626   103.25702307   260.03441067
 O     38  35  14     2.684844430059    87.63193278    95.41383250
 H     53  38  35     0.990008471494     5.70314275   124.48021441
 H     53  38  35     0.965156578403   103.86841096    34.97179878
 O     37  35  14     1.915272672963   148.39441071   138.87238271
 H     56  37  35     0.976594702682   110.01029285    64.43930497
 H     56  37  35     0.974339917822   142.27384888   218.60623120
 O     38  35  14     2.752241042915   109.46644833   257.43238250
 H     59  38  35     0.979665630054    15.48325394   248.29797523
 H     59  38  35     0.979138593851    88.59411928    45.02686252
 O     33  32   9     1.692530720555   167.96548911   117.33305971
 H     62  33  32     0.974200882972   110.32355291    82.08481305
 H     62  33  32     0.968247229776   110.69776089   325.26292697
 O     27  26  19     1.780174250324   175.64139870   233.52651048
 H     65  27  26     0.958735123638   115.18842977   216.13400123
 H     65  27  26     0.980874147886    98.95220974   103.22664229
 O     20   7   5     3.726390725866   128.44408607   219.10436417
 H     68  20   7     0.981233854490    57.70022348   152.28514721
 H     68  20   7     0.969455192435    61.70557466   285.98288690
 O     58  56  37     3.371680342689   118.41862804   184.80849990
 H     71  58  56     0.964919171745    79.64471544   336.60733660
 H     71  58  56     0.971346242640    89.73130038    81.97071700
 O      7   5   4     2.616201210529   125.28362821   176.64664239
 H     74   7   5     0.998805973791     2.60612373    58.81517683
 H     74   7   5     0.969631568492   104.66660053   346.93310674
 O     43  41  22     3.431759588295   131.11170928   268.63342209
 H     77  43  41     0.985607675167    80.99150445    39.83805019
 H     77  43  41     0.961184861999   118.75237660   296.71595448
 O     58  56  37     1.767627020184   168.55965539   133.17307591
 H     80  58  56     0.975728755914   103.33383303    54.80822395
 H     80  58  56     0.980914591641   127.51439194   178.89071160
 O     64  62  33     1.882132818297   159.30375943   159.15890108
 H     83  64  62     0.957699030247   139.82666310   266.34507964
 H     83  64  62     0.981430111598    84.81278112    16.35352361
 O     67  65  27     1.732807533984   168.53863384    53.87162575
 H     86  67  65     0.964971964842   132.07230285   114.28390799
 H     86  67  65     0.971323294782   111.65184397   336.66240682
 O     12   3   2     2.755319671345   167.17829084   221.41133865
 H     89  12   3     0.973823595240   122.77731590    89.58812251
 H     89  12   3     0.977362322275    61.75174014   179.50716881
 O     52  50  16     2.582799543209   110.64523774   305.75662650
 H     92  52  50     0.984693778324    85.47256235   353.92523719
 H     92  52  50     0.957515395277   113.77996732   248.78773928
 O     13   3   2     2.307988845218   153.22803482   146.44877057
 H     95  13   3     0.973127129761   118.03876898   228.37277214
 H     95  13   3     0.961674601024   125.02344315    87.01232178
 O     70  68  20     1.938265601275   153.32137769    25.09173576
 H     98  70  68     0.962496339743   151.44376778   206.86940510
 H     98  70  68     0.993167333785    91.11916979   332.11688242
 O     95  13   3     2.653904806297    88.63056664   324.43546865
 H    101  95  13     0.968971052775   110.86308587    21.60072875
 H    101  95  13     0.984867403987     5.63023302    54.02400443
 O     57  56  37     1.747307627022   169.02295940   197.84068480
 H    104  57  56     0.979694529461   132.06216417   175.13560792
 H    104  57  56     0.971820762623    94.46318664   288.84916771
 O     85  83  64     1.766409967601   168.61425568    26.44829464
 H    107  85  83     0.990594644136    89.87540831    56.66333066
 H    107  85  83     0.963122987564   125.57977320   162.50988958
 O     35  14   4     2.718161847230   117.36932129   129.65432169
 H    110  35  14     0.965349521855   103.56718428   357.87310592
 H    110  35  14     0.987510986316     7.80731254   108.38758146
 O     34  32   9     1.815600244113   165.17177997   331.33732230
 H    113  34  32     0.989031540778   119.29672734    95.34285479
 H    113  34  32     0.957344353415   123.26918017   234.71278015
 O     50  16   1     2.758516834019    99.70808036   105.12064802
 H    116  50  16     0.977057854743     5.54455810   107.09850717
 H    116  50  16     0.975162100724   110.06422453    79.05631628
 O    109 107  85     2.149500076395   127.65544530   246.53165227
 H    119 109 107     0.975856576456    89.84533999   304.85801257
 H    119 109 107     0.969236655628    87.20295407    47.82565072
 O     87  86  67     1.978720379471   149.09591061   151.52902522
 H    122  87  86     0.959868885671   161.83997131   169.99762371
 H    122  87  86     0.986633667216    87.83647306    30.33091404
 O    118 116  50     1.798819938460   167.66469744    11.43181640
 H    125 118 116     0.959532069513   117.15028769    64.38814042
 H    125 118 116     0.990817419304    92.84334132   314.54144470
 O     63  62  33     1.806802918263   155.69793382   154.11085501
 H    128  63  62     0.977123977468    93.05655937   285.98049316
 H    128  63  62     0.974775994934    89.03792695    31.67408043
 O     43  41  22     1.723332404166   174.58889747    52.88550814
 H    131  43  41     0.973882508390    97.87035709   204.06537236
 H    131  43  41     0.983404581563   125.50481989   316.29841367
 O     69  68  20     1.799392188053   157.94388485   323.28644992
 H    134  69  68     0.980886703618    89.17096930    35.76591381
 H    134  69  68     0.981442668527    99.95942977   291.04876109
 O     78  77  43     1.685646438641   174.28296384   174.52968818
 H    137  78  77     0.968704659185   116.69718543    24.33329207
 H    137  78  77     0.974449511737   127.23922861   167.07606668
 O    139 137  78     1.836577498139   170.72864240    36.37446425
 H    140 139 137     0.973443348208    95.62693349   278.22495685
 H    140 139 137     0.975932452180   126.90932354   163.06112040
 O    129 128  63     1.812774210855   168.32471656   356.14209346
 H    143 129 128     0.958040487074   117.61872754   200.87993250
 H    143 129 128     0.990967920937   103.02531306   316.55186472
 O     76  74   7     1.999830805743   141.67291785   333.51872544
 H    146  76  74     0.973737415743    96.43816172   301.82822637
 H    146  76  74     0.982005935667    87.40437594    46.40155657
 O     90  89  12     1.841974799123   157.64808616   345.25000875
 H    149  90  89     0.995090640901    90.92707370    11.53622279
 H    149  90  89     0.958582277210   129.04038637   122.72505098
 O    141 140 139     1.801284410719   165.70280976    89.75820144
 H    152 141 140     0.960868238059   123.49680812    99.91485248
 H    152 141 140     0.976303172148    94.45171716   346.52953164
 O     91  89  12     1.766553690472   177.33390629    98.25081436
 H    155  91  89     0.961162896110   114.02706052    42.62127847
 H    155  91  89     0.980705423339   100.78417485   291.28559195
 O     73  71  58     1.890625630021   160.16196222   333.86145512
 H    158  73  71     0.969747286831   108.11278501   100.22322833
 H    158  73  71     0.981365141937   146.92320302   299.21462552
 O      9   1   2     1.782676740961   160.07055016    13.55596871
 H    161   9   1     0.964188452998   113.83778980   156.96252582
 H    161   9   1     0.977660461848    98.93239936    45.51327577
 O    163 161   9     1.748059793239   171.52034513   154.06210298
 H    164 163 161     0.969881283481   130.05724166   124.61219484
 H    164 163 161     0.982756813255    91.73666819   239.17790172

---------------------------
INTERNAL COORDINATES (A.U.)
---------------------------
 N      0   0   0     0.000000000000     0.00000000     0.00000000
 C      1   0   0     2.773000016574     0.00000000     0.00000000
 C      2   1   0     2.882598549999   108.44459852     0.00000000
 C      3   2   1     2.872398691428   112.89290087   201.45566731
 C      4   3   2     2.854824304919   116.07787652   282.43051894
 O      5   4   3     2.383639650992   121.11353216     8.67064537
 O      5   4   3     2.374003011822   117.09785661   187.72257938
 H      1   2   3     1.956182044681   110.40872194   300.05507746
 H      1   2   3     1.965143649787   107.83526430    57.91318566
 H      2   1   3     2.061117676698   109.05595999   239.99871667
 H      2   1   3     2.059444507862   110.28310294   121.72653174
 H      3   2   1     2.057419213451   110.34555742    78.67054598
 H      3   2   1     2.057806227183   108.64266672   320.26894255
 H      4   3   2     2.060258378146   110.02893581    42.68919050
 H      4   3   2     2.059290661875   110.68422882   161.41070464
 H      1   2   3     1.965884686260   111.64264943   179.03621573
 O      6   5   4     5.213096174702   111.57795070   106.60662956
 H     17   6   5     1.840641972993     6.06242562   173.73609524
 H     17   6   5     1.856206951866   107.55679599   243.81351476
 O      7   5   4     5.026336736887   131.58594864    16.99241821
 H     20   7   5     1.855875088966     6.71912156   313.14184608
 H     20   7   5     1.838855917857   101.81993292    83.52682533
 O      8   1   2     6.574095308574   128.12744179   298.76790542
 H     23   8   1     1.842182256267    71.40964717    80.41762819
 H     23   8   1     1.813360773570   174.41724382   145.05825088
 O     19  17   6     3.304335212518   173.61637245    49.95677363
 H     26  19  17     1.849970967041   114.76559216    43.88743246
 H     26  19  17     1.841371229722   125.98016123   271.54607435
 O      8   1   2     3.385102972853   165.27298832   146.11433431
 H     29   8   1     1.834098671744   103.33999916    90.50704750
 H     29   8   1     1.846862592317    81.99250309   347.68304056
 O      9   1   2     5.454188925691   112.45801069   137.22815056
 H     32   9   1     1.870388828275    46.88057041    90.83325003
 H     32   9   1     1.837425948619   101.53410155   188.95653322
 O     14   4   3     5.674382414992   119.19684955   108.66264748
 H     35  14   4     1.856892082437   107.43202128    21.46599748
 H     35  14   4     1.833699216840    28.69086467   112.83880220
 O     35  14   4     5.201055562612    91.18477135   290.24025650
 H     38  35  14     1.863627921357   108.49729113   351.46111111
 H     38  35  14     1.846164930512     8.76945029   282.23250083
 O     22  20   7     3.491494834831   156.76883212   106.35175093
 H     41  22  20     1.816957918041   115.70990438    40.72846957
 H     41  22  20     1.858286522149    91.08772257   292.52794972
 O     28  26  19     3.426567905072   168.64641236   138.91230908
 H     44  28  26     1.862156914654   113.81883140   230.47292633
 H     44  28  26     1.812609624109   121.40798890   100.66090452
 O     36  35  14     3.278011561421   175.43019507    60.91041567
 H     47  36  35     1.841057696190    95.65559818   299.40101216
 H     47  36  35     1.840019842624    97.41057634    47.47343119
 O     16   1   2     3.235413990106   166.70888347    60.69667066
 H     50  16   1     1.845220517410    98.51570919     8.37529534
 H     50  16   1     1.833478051224   103.25702307   260.03441067
 O     38  35  14     5.073620684995    87.63193278    95.41383250
 H     53  38  35     1.870844881386     5.70314275   124.48021441
 H     53  38  35     1.823881609534   103.86841096    34.97179878
 O     37  35  14     3.619340823682   148.39441071   138.87238271
 H     56  37  35     1.845496531908   110.01029285    64.43930497
 H     56  37  35     1.841235606031   142.27384888   218.60623120
 O     38  35  14     5.200981825648   109.46644833   257.43238250
 H     59  38  35     1.851299743618    15.48325394   248.29797523
 H     59  38  35     1.850303789532    88.59411928    45.02686252
 O     33  32   9     3.198419535097   167.96548911   117.33305971
 H     62  33  32     1.840972868242   110.32355291    82.08481305
 H     62  33  32     1.829722094205   110.69776089   325.26292697
 O     27  26  19     3.364041803772   175.64139870   233.52651048
 H     65  27  26     1.811746818646   115.18842977   216.13400123
 H     65  27  26     1.853583511347    98.95220974   103.22664229
 O     20   7   5     7.041857939871   128.44408607   219.10436417
 H     68  20   7     1.854263258317    57.70022348   152.28514721
 H     68  20   7     1.832004812811    61.70557466   285.98288690
 O     58  56  37     6.371552458808   118.41862804   184.80849990
 H     71  58  56     1.823432975968    79.64471544   336.60733660
 H     71  58  56     1.835578379804    89.73130038    81.97071700
 O      7   5   4     4.943903799134   125.28362821   176.64664239
 H     74   7   5     1.887469751390     2.60612373    58.81517683
 H     74   7   5     1.832338115254   104.66660053   346.93310674
 O     43  41  22     6.485085779336   131.11170928   268.63342209
 H     77  43  41     1.862528581556    80.99150445    39.83805019
 H     77  43  41     1.816376153249   118.75237660   296.71595448
 O     58  56  37     3.340330975066   168.55965539   133.17307591
 H     80  58  56     1.843860129669   103.33383303    54.80822395
 H     80  58  56     1.853659938969   127.51439194   178.89071160
 O     64  62  33     3.556715574246   159.30375943   159.15890108
 H     83  64  62     1.809788885889   139.82666310   266.34507964
 H     83  64  62     1.854634130505    84.81278112    16.35352361
 O     67  65  27     3.274531682025   168.53863384    53.87162575
 H     86  67  65     1.823532740464   132.07230285   114.28390799
 H     86  67  65     1.835535014636   111.65184397   336.66240682
 O     12   3   2     5.206799590248   167.17829084   221.41133865
 H     89  12   3     1.840259897755   122.77731590    89.58812251
 H     89  12   3     1.846947122713    61.75174014   179.50716881
 O     52  50  16     4.880783795481   110.64523774   305.75662650
 H     92  52  50     1.860801566808    85.47256235   353.92523719
 H     92  52  50     1.809441866086   113.77996732   248.78773928
 O     13   3   2     4.361466837606   153.22803482   146.44877057
 H     95  13   3     1.838943768737   118.03876898   228.37277214
 H     95  13   3     1.817301625884   125.02344315    87.01232178
 O     70  68  20     3.662791161209   153.32137769    25.09173576
 H     98  70  68     1.818854487016   151.44376778   206.86940510
 H     98  70  68     1.876814266011    91.11916979   332.11688242
 O     95  13   3     5.015153269398    88.63056664   324.43546865
 H    101  95  13     1.831089921442   110.86308587    21.60072875
 H    101  95  13     1.861129671762     5.63023302    54.02400443
 O     57  56  37     3.301932886783   169.02295940   197.84068480
 H    104  57  56     1.851354355583   132.06216417   175.13560792
 H    104  57  56     1.836475092616    94.46318664   288.84916771
 O     85  83  64     3.338031078995   168.61425568    26.44829464
 H    107  85  83     1.871952587146    89.87540831    56.66333066
 H    107  85  83     1.820038679779   125.57977320   162.50988958
 O     35  14   4     5.136581478937   117.36932129   129.65432169
 H    110  35  14     1.824246219818   103.56718428   357.87310592
 H    110  35  14     1.866125318376     7.80731254   108.38758146
 O     34  32   9     3.430987230054   165.17177997   331.33732230
 H    113  34  32     1.868998749880   119.29672734    95.34285479
 H    113  34  32     1.809118643809   123.26918017   234.71278015
 O     50  16   1     5.212841352108    99.70808036   105.12064802
 H    116  50  16     1.846371762461     5.54455810   107.09850717
 H    116  50  16     1.842789306547   110.06422453    79.05631628
 O    109 107  85     4.061966469230   127.65544530   246.53165227
 H    119 109 107     1.844101675487    89.84533999   304.85801257
 H    119 109 107     1.831591838095    87.20295407    47.82565072
 O     87  86  67     3.739239612809   149.09591061   151.52902522
 H    122  87  86     1.813889318390   161.83997131   169.99762371
 H    122  87  86     1.864467425544    87.83647306    30.33091404
 O    118 116  50     3.399277047926   167.66469744    11.43181640
 H    125 118 116     1.813252828095   117.15028769    64.38814042
 H    125 118 116     1.872373571203    92.84334132   314.54144470
 O     63  62  33     3.414362693486   155.69793382   154.11085501
 H    128  63  62     1.846496716302    93.05655937   285.98049316
 H    128  63  62     1.842059672345    89.03792695    31.67408043
 O     43  41  22     3.256626281587   174.58889747    52.88550814
 H    131  43  41     1.840371227473    97.87035709   204.06537236
 H    131  43  41     1.858365337998   125.50481989   316.29841367
 O     69  68  20     3.400358442937   157.94388485   323.28644992
 H    134  69  68     1.853607238243    89.17096930    35.76591381
 H    134  69  68     1.854657859662    99.95942977   291.04876109
 O     78  77  43     3.185410127651   174.28296384   174.52968818
 H    137  78  77     1.830586510514   116.69718543    24.33329207
 H    137  78  77     1.841442708516   127.23922861   167.07606668
 O    139 137  78     3.470628495205   170.72864240    36.37446425
 H    140 139 137     1.839541335001    95.62693349   278.22495685
 H    140 139 137     1.844245059826   126.90932354   163.06112040
 O    129 128  63     3.425646801151   168.32471656   356.14209346
 H    143 129 128     1.810434145777   117.61872754   200.87993250
 H    143 129 128     1.872657978073   103.02531306   316.55186472
 O     76  74   7     3.779132537033   141.67291785   333.51872544
 H    146  76  74     1.840097042107    96.43816172   301.82822637
 H    146  76  74     1.855722280296    87.40437594    46.40155657
 O     90  89  12     3.480827915927   157.64808616   345.25000875
 H    149  90  89     1.880448789730    90.92707370    11.53622279
 H    149  90  89     1.811457980757   129.04038637   122.72505098
 O    141 140 139     3.403934225561   165.70280976    89.75820144
 H    152 141 140     1.815777820714   123.49680812    99.91485248
 H    152 141 140     1.844945619038    94.45171716   346.52953164
 O     91  89  12     3.338302675860   177.33390629    98.25081436
 H    155  91  89     1.816334643734   114.02706052    42.62127847
 H    155  91  89     1.853264668162   100.78417485   291.28559195
 O     73  71  58     3.572764662513   160.16196222   333.86145512
 H    158  73  71     1.832556791224   108.11278501   100.22322833
 H    158  73  71     1.854511355638   146.92320302   299.21462552
 O      9   1   2     3.368770825727   160.07055016    13.55596871
 H    161   9   1     1.822052117656   113.83778980   156.96252582
 H    161   9   1     1.847510524856    98.93239936    45.51327577
 O    163 161   9     3.303354274941   171.52034513   154.06210298
 H    164 163 161     1.832810008196   130.05724166   124.61219484
 H    164 163 161     1.857141233297    91.73666819   239.17790172

---------------------
BASIS SET INFORMATION
---------------------
There are 4 groups of distinct atoms

 Group   1 Type N   : 11s6p2d1f contracted to 5s3p2d1f pattern {62111/411/11/1}
 Group   2 Type C   : 11s6p2d1f contracted to 5s3p2d1f pattern {62111/411/11/1}
 Group   3 Type O   : 11s6p2d1f contracted to 5s3p2d1f pattern {62111/411/11/1}
 Group   4 Type H   : 5s1p contracted to 3s1p pattern {311/1}

Atom   0N    basis set group =>   1
Atom   1C    basis set group =>   2
Atom   2C    basis set group =>   2
Atom   3C    basis set group =>   2
Atom   4C    basis set group =>   2
Atom   5O    basis set group =>   3
Atom   6O    basis set group =>   3
Atom   7H    basis set group =>   4
Atom   8H    basis set group =>   4
Atom   9H    basis set group =>   4
Atom  10H    basis set group =>   4
Atom  11H    basis set group =>   4
Atom  12H    basis set group =>   4
Atom  13H    basis set group =>   4
Atom  14H    basis set group =>   4
Atom  15H    basis set group =>   4
Atom  16O    basis set group =>   3
Atom  17H    basis set group =>   4
Atom  18H    basis set group =>   4
Atom  19O    basis set group =>   3
Atom  20H    basis set group =>   4
Atom  21H    basis set group =>   4
Atom  22O    basis set group =>   3
Atom  23H    basis set group =>   4
Atom  24H    basis set group =>   4
Atom  25O    basis set group =>   3
Atom  26H    basis set group =>   4
Atom  27H    basis set group =>   4
Atom  28O    basis set group =>   3
Atom  29H    basis set group =>   4
Atom  30H    basis set group =>   4
Atom  31O    basis set group =>   3
Atom  32H    basis set group =>   4
Atom  33H    basis set group =>   4
Atom  34O    basis set group =>   3
Atom  35H    basis set group =>   4
Atom  36H    basis set group =>   4
Atom  37O    basis set group =>   3
Atom  38H    basis set group =>   4
Atom  39H    basis set group =>   4
Atom  40O    basis set group =>   3
Atom  41H    basis set group =>   4
Atom  42H    basis set group =>   4
Atom  43O    basis set group =>   3
Atom  44H    basis set group =>   4
Atom  45H    basis set group =>   4
Atom  46O    basis set group =>   3
Atom  47H    basis set group =>   4
Atom  48H    basis set group =>   4
Atom  49O    basis set group =>   3
Atom  50H    basis set group =>   4
Atom  51H    basis set group =>   4
Atom  52O    basis set group =>   3
Atom  53H    basis set group =>   4
Atom  54H    basis set group =>   4
Atom  55O    basis set group =>   3
Atom  56H    basis set group =>   4
Atom  57H    basis set group =>   4
Atom  58O    basis set group =>   3
Atom  59H    basis set group =>   4
Atom  60H    basis set group =>   4
Atom  61O    basis set group =>   3
Atom  62H    basis set group =>   4
Atom  63H    basis set group =>   4
Atom  64O    basis set group =>   3
Atom  65H    basis set group =>   4
Atom  66H    basis set group =>   4
Atom  67O    basis set group =>   3
Atom  68H    basis set group =>   4
Atom  69H    basis set group =>   4
Atom  70O    basis set group =>   3
Atom  71H    basis set group =>   4
Atom  72H    basis set group =>   4
Atom  73O    basis set group =>   3
Atom  74H    basis set group =>   4
Atom  75H    basis set group =>   4
Atom  76O    basis set group =>   3
Atom  77H    basis set group =>   4
Atom  78H    basis set group =>   4
Atom  79O    basis set group =>   3
Atom  80H    basis set group =>   4
Atom  81H    basis set group =>   4
Atom  82O    basis set group =>   3
Atom  83H    basis set group =>   4
Atom  84H    basis set group =>   4
Atom  85O    basis set group =>   3
Atom  86H    basis set group =>   4
Atom  87H    basis set group =>   4
Atom  88O    basis set group =>   3
Atom  89H    basis set group =>   4
Atom  90H    basis set group =>   4
Atom  91O    basis set group =>   3
Atom  92H    basis set group =>   4
Atom  93H    basis set group =>   4
Atom  94O    basis set group =>   3
Atom  95H    basis set group =>   4
Atom  96H    basis set group =>   4
Atom  97O    basis set group =>   3
Atom  98H    basis set group =>   4
Atom  99H    basis set group =>   4
Atom 100O    basis set group =>   3
Atom 101H    basis set group =>   4
Atom 102H    basis set group =>   4
Atom 103O    basis set group =>   3
Atom 104H    basis set group =>   4
Atom 105H    basis set group =>   4
Atom 106O    basis set group =>   3
Atom 107H    basis set group =>   4
Atom 108H    basis set group =>   4
Atom 109O    basis set group =>   3
Atom 110H    basis set group =>   4
Atom 111H    basis set group =>   4
Atom 112O    basis set group =>   3
Atom 113H    basis set group =>   4
Atom 114H    basis set group =>   4
Atom 115O    basis set group =>   3
Atom 116H    basis set group =>   4
Atom 117H    basis set group =>   4
Atom 118O    basis set group =>   3
Atom 119H    basis set group =>   4
Atom 120H    basis set group =>   4
Atom 121O    basis set group =>   3
Atom 122H    basis set group =>   4
Atom 123H    basis set group =>   4
Atom 124O    basis set group =>   3
Atom 125H    basis set group =>   4
Atom 126H    basis set group =>   4
Atom 127O    basis set group =>   3
Atom 128H    basis set group =>   4
Atom 129H    basis set group =>   4
Atom 130O    basis set group =>   3
Atom 131H    basis set group =>   4
Atom 132H    basis set group =>   4
Atom 133O    basis set group =>   3
Atom 134H    basis set group =>   4
Atom 135H    basis set group =>   4
Atom 136O    basis set group =>   3
Atom 137H    basis set group =>   4
Atom 138H    basis set group =>   4
Atom 139O    basis set group =>   3
Atom 140H    basis set group =>   4
Atom 141H    basis set group =>   4
Atom 142O    basis set group =>   3
Atom 143H    basis set group =>   4
Atom 144H    basis set group =>   4
Atom 145O    basis set group =>   3
Atom 146H    basis set group =>   4
Atom 147H    basis set group =>   4
Atom 148O    basis set group =>   3
Atom 149H    basis set group =>   4
Atom 150H    basis set group =>   4
Atom 151O    basis set group =>   3
Atom 152H    basis set group =>   4
Atom 153H    basis set group =>   4
Atom 154O    basis set group =>   3
Atom 155H    basis set group =>   4
Atom 156H    basis set group =>   4
Atom 157O    basis set group =>   3
Atom 158H    basis set group =>   4
Atom 159H    basis set group =>   4
Atom 160O    basis set group =>   3
Atom 161H    basis set group =>   4
Atom 162H    basis set group =>   4
Atom 163O    basis set group =>   3
Atom 164H    basis set group =>   4
Atom 165H    basis set group =>   4
---------------------------------
AUXILIARY/J BASIS SET INFORMATION
---------------------------------
There are 4 groups of distinct atoms

 Group   1 Type N   : 12s5p4d2f1g contracted to 6s4p3d1f1g pattern {711111/2111/211/2/1}
 Group   2 Type C   : 12s5p4d2f1g contracted to 6s4p3d1f1g pattern {711111/2111/211/2/1}
 Group   3 Type O   : 12s5p4d2f1g contracted to 6s4p3d1f1g pattern {711111/2111/211/2/1}
 Group   4 Type H   : 5s2p1d contracted to 3s1p1d pattern {311/2/1}

Atom   0N    basis set group =>   1
Atom   1C    basis set group =>   2
Atom   2C    basis set group =>   2
Atom   3C    basis set group =>   2
Atom   4C    basis set group =>   2
Atom   5O    basis set group =>   3
Atom   6O    basis set group =>   3
Atom   7H    basis set group =>   4
Atom   8H    basis set group =>   4
Atom   9H    basis set group =>   4
Atom  10H    basis set group =>   4
Atom  11H    basis set group =>   4
Atom  12H    basis set group =>   4
Atom  13H    basis set group =>   4
Atom  14H    basis set group =>   4
Atom  15H    basis set group =>   4
Atom  16O    basis set group =>   3
Atom  17H    basis set group =>   4
Atom  18H    basis set group =>   4
Atom  19O    basis set group =>   3
Atom  20H    basis set group =>   4
Atom  21H    basis set group =>   4
Atom  22O    basis set group =>   3
Atom  23H    basis set group =>   4
Atom  24H    basis set group =>   4
Atom  25O    basis set group =>   3
Atom  26H    basis set group =>   4
Atom  27H    basis set group =>   4
Atom  28O    basis set group =>   3
Atom  29H    basis set group =>   4
Atom  30H    basis set group =>   4
Atom  31O    basis set group =>   3
Atom  32H    basis set group =>   4
Atom  33H    basis set group =>   4
Atom  34O    basis set group =>   3
Atom  35H    basis set group =>   4
Atom  36H    basis set group =>   4
Atom  37O    basis set group =>   3
Atom  38H    basis set group =>   4
Atom  39H    basis set group =>   4
Atom  40O    basis set group =>   3
Atom  41H    basis set group =>   4
Atom  42H    basis set group =>   4
Atom  43O    basis set group =>   3
Atom  44H    basis set group =>   4
Atom  45H    basis set group =>   4
Atom  46O    basis set group =>   3
Atom  47H    basis set group =>   4
Atom  48H    basis set group =>   4
Atom  49O    basis set group =>   3
Atom  50H    basis set group =>   4
Atom  51H    basis set group =>   4
Atom  52O    basis set group =>   3
Atom  53H    basis set group =>   4
Atom  54H    basis set group =>   4
Atom  55O    basis set group =>   3
Atom  56H    basis set group =>   4
Atom  57H    basis set group =>   4
Atom  58O    basis set group =>   3
Atom  59H    basis set group =>   4
Atom  60H    basis set group =>   4
Atom  61O    basis set group =>   3
Atom  62H    basis set group =>   4
Atom  63H    basis set group =>   4
Atom  64O    basis set group =>   3
Atom  65H    basis set group =>   4
Atom  66H    basis set group =>   4
Atom  67O    basis set group =>   3
Atom  68H    basis set group =>   4
Atom  69H    basis set group =>   4
Atom  70O    basis set group =>   3
Atom  71H    basis set group =>   4
Atom  72H    basis set group =>   4
Atom  73O    basis set group =>   3
Atom  74H    basis set group =>   4
Atom  75H    basis set group =>   4
Atom  76O    basis set group =>   3
Atom  77H    basis set group =>   4
Atom  78H    basis set group =>   4
Atom  79O    basis set group =>   3
Atom  80H    basis set group =>   4
Atom  81H    basis set group =>   4
Atom  82O    basis set group =>   3
Atom  83H    basis set group =>   4
Atom  84H    basis set group =>   4
Atom  85O    basis set group =>   3
Atom  86H    basis set group =>   4
Atom  87H    basis set group =>   4
Atom  88O    basis set group =>   3
Atom  89H    basis set group =>   4
Atom  90H    basis set group =>   4
Atom  91O    basis set group =>   3
Atom  92H    basis set group =>   4
Atom  93H    basis set group =>   4
Atom  94O    basis set group =>   3
Atom  95H    basis set group =>   4
Atom  96H    basis set group =>   4
Atom  97O    basis set group =>   3
Atom  98H    basis set group =>   4
Atom  99H    basis set group =>   4
Atom 100O    basis set group =>   3
Atom 101H    basis set group =>   4
Atom 102H    basis set group =>   4
Atom 103O    basis set group =>   3
Atom 104H    basis set group =>   4
Atom 105H    basis set group =>   4
Atom 106O    basis set group =>   3
Atom 107H    basis set group =>   4
Atom 108H    basis set group =>   4
Atom 109O    basis set group =>   3
Atom 110H    basis set group =>   4
Atom 111H    basis set group =>   4
Atom 112O    basis set group =>   3
Atom 113H    basis set group =>   4
Atom 114H    basis set group =>   4
Atom 115O    basis set group =>   3
Atom 116H    basis set group =>   4
Atom 117H    basis set group =>   4
Atom 118O    basis set group =>   3
Atom 119H    basis set group =>   4
Atom 120H    basis set group =>   4
Atom 121O    basis set group =>   3
Atom 122H    basis set group =>   4
Atom 123H    basis set group =>   4
Atom 124O    basis set group =>   3
Atom 125H    basis set group =>   4
Atom 126H    basis set group =>   4
Atom 127O    basis set group =>   3
Atom 128H    basis set group =>   4
Atom 129H    basis set group =>   4
Atom 130O    basis set group =>   3
[...]
123 H      0.6408     1.0000     0.3592     0.9316     0.9316     0.0000
124 O      8.7363     8.0000    -0.7363     1.7705     1.7705     0.0000
125 H      0.6439     1.0000     0.3561     0.8914     0.8914     0.0000
126 H      0.6297     1.0000     0.3703     0.9177     0.9177     0.0000
127 O      8.7339     8.0000    -0.7339     1.7867     1.7867    -0.0000
128 H      0.6464     1.0000     0.3536     0.9375     0.9375     0.0000
129 H      0.6389     1.0000     0.3611     0.9172     0.9172     0.0000
130 O      8.7480     8.0000    -0.7480     1.7604     1.7604     0.0000
131 H      0.6388     1.0000     0.3612     0.9285     0.9285    -0.0000
132 H      0.6417     1.0000     0.3583     0.9389     0.9389    -0.0000
133 O      8.7556     8.0000    -0.7556     1.7969     1.7969     0.0000
134 H      0.6238     1.0000     0.3762     0.8915     0.8915     0.0000
135 H      0.6292     1.0000     0.3708     0.9241     0.9241     0.0000
136 O      8.7336     8.0000    -0.7336     1.7765     1.7765     0.0000
137 H      0.6395     1.0000     0.3605     0.9120     0.9120     0.0000
138 H      0.6258     1.0000     0.3742     0.8999     0.8999     0.0000
139 O      8.7445     8.0000    -0.7445     1.7596     1.7596    -0.0000
140 H      0.6297     1.0000     0.3703     0.9067     0.9067     0.0000
141 H      0.6392     1.0000     0.3608     0.9189     0.9189    -0.0000
142 O      8.7466     8.0000    -0.7466     1.7769     1.7769    -0.0000
143 H      0.6345     1.0000     0.3655     0.8887     0.8887    -0.0000
144 H      0.6144     1.0000     0.3856     0.9043     0.9043    -0.0000
145 O      8.7426     8.0000    -0.7426     1.7661     1.7661    -0.0000
146 H      0.6517     1.0000     0.3483     0.9407     0.9407    -0.0000
147 H      0.6528     1.0000     0.3472     0.9455     0.9455    -0.0000
148 O      8.7452     8.0000    -0.7452     1.8081     1.8081    -0.0000
149 H      0.6005     1.0000     0.3995     0.8775     0.8775    -0.0000
150 H      0.6388     1.0000     0.3612     0.8954     0.8954    -0.0000
151 O      8.7258     8.0000    -0.7258     1.7837     1.7837     0.0000
152 H      0.6388     1.0000     0.3612     0.8876     0.8876    -0.0000
153 H      0.6254     1.0000     0.3746     0.9066     0.9066     0.0000
154 O      8.7248     8.0000    -0.7248     1.8057     1.8057    -0.0000
155 H      0.6387     1.0000     0.3613     0.9019     0.9019    -0.0000
156 H      0.6198     1.0000     0.3802     0.9093     0.9093     0.0000
157 O      8.7372     8.0000    -0.7372     1.7825     1.7825     0.0000
158 H      0.6426     1.0000     0.3574     0.9298     0.9298     0.0000
159 H      0.6341     1.0000     0.3659     0.9228     0.9228     0.0000
160 O      8.7451     8.0000    -0.7451     1.7836     1.7836    -0.0000
161 H      0.6397     1.0000     0.3603     0.9110     0.9110    -0.0000
162 H      0.6132     1.0000     0.3868     0.8863     0.8863    -0.0000
163 O      8.7510     8.0000    -0.7510     1.7775     1.7775    -0.0000
164 H      0.6324     1.0000     0.3676     0.9226     0.9226    -0.0000
165 H      0.6267     1.0000     0.3733     0.9191     0.9191     0.0000

  Mayer bond orders larger than 0.100000
B(  0-N ,  1-C ) :   0.9111 B(  0-N ,  7-H ) :   0.8460 B(  0-N ,  8-H ) :   0.8627 
B(  0-N , 15-H ) :   0.8095 B(  1-C ,  2-C ) :   0.9590 B(  1-C ,  9-H ) :   0.9659 
B(  1-C , 10-H ) :   0.9633 B(  2-C ,  3-C ) :   0.9397 B(  2-C , 11-H ) :   0.9739 
B(  2-C , 12-H ) :   0.9703 B(  3-C ,  4-C ) :   0.9770 B(  3-C , 13-H ) :   0.9511 
B(  3-C , 14-H ) :   0.9684 B(  4-C ,  5-O ) :   1.3834 B(  4-C ,  6-O ) :   1.4744 
B(  5-O ,147-H ) :   0.1057 B(  5-O ,156-H ) :   0.1098 B(  6-O , 20-H ) :   0.1189 
B(  6-O , 74-H ) :   0.1505 B( 15-H , 49-O ) :   0.1123 B( 16-O , 17-H ) :   0.8307 
B( 16-O , 18-H ) :   0.8093 B( 16-O , 81-H ) :   0.1286 B( 19-O , 20-H ) :   0.7613 
B( 19-O , 21-H ) :   0.8127 B( 19-O , 99-H ) :   0.1276 B( 22-O , 23-H ) :   0.8129 
B( 22-O , 24-H ) :   0.8734 B( 22-O , 44-H ) :   0.1196 B( 25-O , 26-H ) :   0.8143 
B( 25-O , 27-H ) :   0.8291 B( 26-H , 64-O ) :   0.1174 B( 28-O , 29-H ) :   0.8068 
B( 28-O , 30-H ) :   0.8191 B( 31-O , 32-H ) :   0.7846 B( 31-O , 33-H ) :   0.8100 
B( 31-O ,126-H ) :   0.1112 B( 34-O , 35-H ) :   0.7712 B( 34-O , 36-H ) :   0.8332 
B( 34-O ,111-H ) :   0.1078 B( 35-H , 46-O ) :   0.1342 B( 37-O , 38-H ) :   0.7916 
B( 37-O , 39-H ) :   0.8040 B( 37-O , 53-H ) :   0.1090 B( 40-O , 41-H ) :   0.8657 
B( 40-O , 42-H ) :   0.7771 B( 42-H ,130-O ) :   0.1217 B( 43-O , 44-H ) :   0.7714 
B( 43-O , 45-H ) :   0.8662 B( 46-O , 47-H ) :   0.8274 B( 46-O , 48-H ) :   0.8219 
B( 49-O , 50-H ) :   0.7989 B( 49-O , 51-H ) :   0.8207 B( 52-O , 53-H ) :   0.7914 
B( 52-O , 54-H ) :   0.8576 B( 55-O , 56-H ) :   0.7998 B( 55-O , 57-H ) :   0.8028 
B( 55-O ,123-H ) :   0.1292 B( 58-O , 59-H ) :   0.8268 B( 58-O , 60-H ) :   0.8265 
B( 58-O ,113-H ) :   0.1436 B( 61-O , 62-H ) :   0.7871 B( 61-O , 63-H ) :   0.8175 
B( 62-H ,127-O ) :   0.1257 B( 64-O , 65-H ) :   0.8713 B( 64-O , 66-H ) :   0.7832 
B( 67-O , 68-H ) :   0.8176 B( 67-O , 69-H ) :   0.8499 B( 67-O ,104-H ) :   0.1369 
B( 70-O , 71-H ) :   0.8689 B( 70-O , 72-H ) :   0.8395 B( 73-O , 74-H ) :   0.7458 
B( 73-O , 75-H ) :   0.8414 B( 73-O ,132-H ) :   0.1266 B( 76-O , 77-H ) :   0.7717 
B( 76-O , 78-H ) :   0.8705 B( 77-H ,136-O ) :   0.1049 B( 79-O , 80-H ) :   0.8095 
B( 79-O , 81-H ) :   0.7795 B( 82-O , 83-H ) :   0.8669 B( 82-O , 84-H ) :   0.7960 
B( 84-H ,106-O ) :   0.1112 B( 85-O , 86-H ) :   0.8544 B( 85-O , 87-H ) :   0.8113 
B( 88-O , 89-H ) :   0.8314 B( 88-O , 90-H ) :   0.8040 B( 91-O , 92-H ) :   0.8006 
B( 91-O , 93-H ) :   0.8797 B( 91-O ,165-H ) :   0.1245 B( 94-O , 95-H ) :   0.8183 
B( 94-O , 96-H ) :   0.8535 B( 94-O ,102-H ) :   0.1310 B( 97-O , 98-H ) :   0.8688 
B( 97-O , 99-H ) :   0.7659 B( 97-O ,159-H ) :   0.1005 B(100-O ,101-H ) :   0.8241 
B(100-O ,102-H ) :   0.7827 B(100-O ,107-H ) :   0.1140 B(103-O ,104-H ) :   0.7945 
B(103-O ,105-H ) :   0.8322 B(106-O ,107-H ) :   0.7863 B(106-O ,108-H ) :   0.8466 
B(109-O ,110-H ) :   0.8726 B(109-O ,111-H ) :   0.8023 B(109-O ,135-H ) :   0.1182 
B(112-O ,113-H ) :   0.7688 B(112-O ,114-H ) :   0.8719 B(115-O ,116-H ) :   0.8253 
B(115-O ,117-H ) :   0.8130 B(115-O ,144-H ) :   0.1414 B(117-H ,124-O ) :   0.1042 
B(118-O ,119-H ) :   0.8443 B(118-O ,120-H ) :   0.8651 B(121-O ,122-H ) :   0.8710 
B(121-O ,123-H ) :   0.7839 B(124-O ,125-H ) :   0.8775 B(124-O ,126-H ) :   0.7941 
B(127-O ,128-H ) :   0.8237 B(127-O ,129-H ) :   0.8377 B(128-H ,142-O ) :   0.1028 
B(130-O ,131-H ) :   0.8271 B(130-O ,132-H ) :   0.7967 B(133-O ,134-H ) :   0.8054 
B(133-O ,135-H ) :   0.7939 B(136-O ,137-H ) :   0.8405 B(136-O ,138-H ) :   0.8186 
B(139-O ,140-H ) :   0.8021 B(139-O ,141-H ) :   0.8192 B(142-O ,143-H ) :   0.8708 
B(142-O ,144-H ) :   0.7547 B(145-O ,146-H ) :   0.8414 B(145-O ,147-H ) :   0.8128 
B(148-O ,149-H ) :   0.7768 B(148-O ,150-H ) :   0.8725 B(151-O ,152-H ) :   0.8747 
B(151-O ,153-H ) :   0.8163 B(154-O ,155-H ) :   0.8644 B(154-O ,156-H ) :   0.7849 
B(157-O ,158-H ) :   0.8297 B(157-O ,159-H ) :   0.8113 B(160-O ,161-H ) :   0.8457 
B(160-O ,162-H ) :   0.7812 B(162-H ,163-O ) :   0.1040 B(163-O ,164-H ) :   0.8125 
B(163-O ,165-H ) :   0.7831 

-------
TIMINGS
-------

Total SCF time: 0 days 0 hours 5 min 3 sec 

Total time                  ....     303.204 sec
Sum of individual times     ....     303.111 sec  (100.0%)

SCF preparation             ....       8.210 sec  (  2.7%)
Fock matrix formation       ....     254.100 sec  ( 83.8%)
  Startup                   ....       1.399 sec  (  0.6% of F)
  Split-RI-J                ....      30.058 sec  ( 11.8% of F)
  Chain of spheres X        ....     149.586 sec  ( 58.9% of F)
  XC integration            ....      18.142 sec  (  7.1% of F)
    XC Preparation          ....       0.000 sec  (  0.0% of XC)
    Basis function eval.    ....       3.837 sec  ( 21.2% of XC)
    Density eval.           ....       5.984 sec  ( 33.0% of XC)
    XC-Functional eval.     ....       0.218 sec  (  1.2% of XC)
    XC-Potential eval.      ....       3.805 sec  ( 21.0% of XC)
  CPCM terms                ....      50.252 sec  ( 19.8% of F)
Diagonalization             ....       0.000 sec  (  0.0%)
Density matrix formation    ....       4.991 sec  (  1.6%)
Total Energy calculation    ....       2.173 sec  (  0.7%)
Population analysis         ....       1.265 sec  (  0.4%)
Orbital Transformation      ....       4.010 sec  (  1.3%)
Orbital Orthonormalization  ....       0.000 sec  (  0.0%)
DIIS solution               ....      17.047 sec  (  5.6%)
SOSCF solution              ....      11.314 sec  (  3.7%)
Finished LeanSCF after 305.2 sec

Maximum memory used throughout the entire LEANSCF-calculation: 722.6 MB


-------------------------------------------------------------------------------
                          DFT DISPERSION CORRECTION                            
                                                                               
                                DFTD4 V3.4.0                                   
-------------------------------------------------------------------------------
The B3LYP functional is recognized
Active option DFTDOPT                   ...         5   

-------------------------   ----------------
Dispersion correction           -0.233419829
-------------------------   ----------------


-------------------------   --------------------
FINAL SINGLE POINT ENERGY     -4185.454849060487
-------------------------   --------------------

--------------------------------------------------------------------------
WARNING: There was an error initializing an OpenFabrics device.

  Local host:   ga01
  Local device: mlx5_0
--------------------------------------------------------------------------


           ************************************************************
           *        Program running with 25 parallel MPI-processes    *
           *              working on a common directory               *
           ************************************************************

------------------------------------------------------------------------------
                              ORCA PROPERTY CALCULATIONS
------------------------------------------------------------------------------

GBWName                                 ... input.gbw
Number of atoms                         ...    166
Number of basis functions               ...   2421
Max core memory                         ...   5000 MB

Electric properties:
Dipole moment                           ... YES
Quadrupole moment                       ...  NO
Static polarizability (Dipole/Dipole)   ...  NO
Static polarizability (Dipole/Quad.)    ...  NO
Static polarizability (Quad./Quad.)     ...  NO
Static polarizability (Velocity)        ...  NO

Atomic electric properties:
Dipole moment                           ...  NO
Quadrupole moment                       ...  NO
Static polarizability                   ...  NO

Choice of electric origin               ... Center of mass
Position of electric origin             ...    -0.014408     0.306725    -0.425515

General magnetic properties:
Magnetizability                         ...  NO

EPR properties:
g-Tensor (aka g-matrix)                 ...  NO
Zero-Field splitting spin-orbit         ...  NO
Zero-field splitting spin-spin          ...  NO
Hyperfine couplings                     ...  NO (   0 nuclei)
Quadrupole couplings                    ...  NO (   0 nuclei)
Contact density                         ...  NO (   0 nuclei)

NMR properties:
Chemical shifts                         ...  NO (   0 nuclei)
Spin-rotation constants                 ...  NO (   0 nuclei)
Spin-spin couplings                     ...  NO (   0 nuclei,    0 pairs)

Choice of magnetic origin               ... GIAO
Position of magnetic origin             ...     0.000000     0.000000     0.000000

Properties with geometric perturbations:
SCF Hessian                             ...  NO
IR spectrum                             ...  NO
VCD spectrum                            ...  NO
X-ray spectroscopy properties:
SCF XES/XAS/RIXS spectra                ...  NO


-------------
DIPOLE MOMENT
-------------

Method             : SCF
Type of density    : Electron Density
Multiplicity       :   1
Irrep              :   0
Energy             : -4185.2214292314329214 Eh
Relativity type    : 
Basis              : AO
                                X                 Y                 Z
Electronic contribution:      1.152220989      -5.063053637      -3.285336730
Nuclear contribution   :     -1.002900576       5.981558717      10.342496857
                        -----------------------------------------
Total Dipole Moment    :      0.149320413       0.918505080       7.057160126
                        -----------------------------------------
Magnitude (a.u.)       :      7.118248185
Magnitude (Debye)      :     18.093148999



--------------------
Rotational spectrum 
--------------------
 
Rotational constants in cm-1:             0.001287             0.000775             0.000744 
Rotational constants in MHz :            38.585254            23.224409            22.311871 

Dipole components along the rotational axes: 
x,y,z [a.u.] :     7.098122    -0.099011    -0.525656 
x,y,z [Debye]:    18.041993    -0.251665    -1.336111 

 

Dipole moment calculation done in   0.2 sec 

Maximum memory used throughout the entire PROP-calculation: 431.8 MB
[ga01:765891] 24 more processes have sent help message help-mpi-btl-openib.txt / error in device init
[ga01:765891] Set MCA parameter "orte_base_help_aggregate" to 0 to see all help / error messages
--------------------------------------------------------------------------
WARNING: There was an error initializing an OpenFabrics device.

  Local host:   ga01
  Local device: mlx5_0
--------------------------------------------------------------------------
[ga01:765995] 24 more processes have sent help message help-mpi-btl-openib.txt / error in device init
[ga01:765995] Set MCA parameter "orte_base_help_aggregate" to 0 to see all help / error messages

--------------------------------
SUGGESTED CITATIONS FOR THIS RUN
--------------------------------

Below you find a list of papers that are relevant to this ORCA run
We neither can nor want to force you to cite these papers, but we appreciate if you do
You receive ORCA, which is the product of decades of hard work by many enthusiastic individuals, for free
The only thing we kindly ask in return is that you cite our papers,
We deeply appreciate it, if you show your appreciation for ORCA by not just citing the generic ORCA reference.

Please note that relegating all ORCA citations to the supporting information does *not* help us.
SI sections are not indexed - citations you put there will not count into any citation statistics
But we need these citations in order to attract the funding resources that allow us to do what we are doing

Therefore, if you are a happy ORCA user, please consider citing a few of the papers listed below in the main body of your paper

In addition to the list printed below, the program has created the file input.bibtex that contains the list in bibtex format
You can import this file easily into all common literature databanks and citation aid programs


List of essential papers. We consider these as the minimum necessary citations

  1. Neese,F.
     Software update: the ORCA program system, version 5.0
     WIRES Comput. Molec. Sci., 2022 12(1)e1606
     doi.org/10.1002/wcms.1606

List of papers to cite with high priority. The work reported in these papers was absolutely
necessary for this run to complete.
Our perspective: the developers of density functionals and basis sets usually get cited in chemistry papers
Good! But without the algorithms to do something with them, the functionals or basis sets would not do anything.
Hence, in our opinion, the algorithm design and method developments papers are equally worthy of getting cited

  1. Neese,F.
     An improvement of the resolution of the identity approximation for the formation of the Coulomb matrix
     J. Comp. Chem., 2003 24(14)1740-1747
     doi.org/10.1002/jcc.10318
  2. Neese,F.; Wennmohs,F.; Hansen,A.; Becker,U.
     Efficient, approximate and parallel Hartree-Fock and hybrid DFT calculations. A 'chain-of-spheres' algorithm for the Hartree-Fock exchange
     Chem. Phys., 2009 356(1-3)98-109
     doi.org/10.1016/j.chemphys.2008.10.036
  3. Garcia-Rates,M.; Neese,F.
     Effect of the Solute Cavity on the Solvation Energy and its Derivatives within the Framework of the Gaussian Charge Scheme
     J. Comput. Chem., 2020 41 922-939
     doi.org/10.1002/jcc.26139
  4. Helmich-Paris,B.; de Souza,B.; Neese,F.; Izsák,R.
     An improved chain of spheres for exchange algorithm
     J. Chem. Phys., 2021 155 104109
     doi.org/doi: 10.1063/5.0058766.
  5. Neese,F.
     The SHARK Integral Generation and Digestion System
     J. Comp. Chem., 2022  1-16
     doi.org/10.1002/jcc.26942
  6. Caldeweyher,E.; Bannwarth,C.; Grimme,S.
     Extension of the D3 dispersion coefficient model
     J. Chem. Phys., 2017 147 034112
     doi.org/10.1063/1.4993215
  7. Caldeweyher,E.; Ehlert,S.; Hansen,A.; Neugebauer,H.; Spicher,S.; Bannwarth,C.; Grimme,S.
     A generally applicable atomic-charge dependent London dispersion correction
     J. Chem. Phys., 2019 150 154122
     doi.org/10.1063/1.5090222
  8. Caldeweyher,E.; Mewes,J.; Ehlert,S.; Grimme,S.
     Extension and evaluation of the D4 London-dispersion model for periodic systems
     Phys. Chem. Chem. Phys., 2020 22(16)8499-8512
     doi.org/10.1039/D0CP00502A
  9. Wittmann,L.; Gordiy,I.; Friede,M.; Helmich-Paris,B.; Grimme,S.; Hansen,A.; Bursch,M.
     Extension of the D3 and D4 London Dispersion Corrections to the full Actinides Series
     Phys. Chem. Chem. Phys., 2024 26(32)21379-21394
     doi.org/https://doi.org/10.1039/D4CP01514B 

List of suggested additional citations. These are papers that are important in the 'surrounding' of 
of this run, or papers that preceded the highly important papers. If you like your results we are grateful for a citation.

  1. Izsak,R.; Neese,F.
     An overlap fitted chain of spheres exchange method
     J. Chem. Phys., 2011 135 144105
     doi.org/10.1063/1.3646921
  2. Izsak,R.; Hansen,A.; Neese,F.
     The resolution of identity and chain of spheres approximations for the LPNO-CCSD singles Fock term
     Molec. Phys., 2012 110 2413-2417
     doi.org/10.1080/00268976.2012.687466
  3. Neese,F.
     The ORCA program system
     WIRES Comput. Molec. Sci., 2012 2(1)73-78
     doi.org/10.1002/wcms.81
  4. Izsak,R.; Neese,F.; Klopper,W.
     Robust fitting techniques in the chain of spheres approximation to the Fock exchange: The role of the complementary space
     J. Chem. Phys., 2013 139 
     doi.org/10.1063/1.4819264
  5. Neese,F.
     Software update: the ORCA program system, version 4.0
     WIRES Comput. Molec. Sci., 2018 8(1)1-6
     doi.org/10.1002/wcms.1327
  6. Neese,F.; Wennmohs,F.; Becker,U.; Riplinger,C.
     The ORCA quantum chemistry program package
     J. Chem. Phys., 2020 152 Art. No. L224108
     doi.org/10.1063/5.0004608

List of optional additional citations

  1. Neese,F.
     Approximate second-order SCF convergence for spin unrestricted wavefunctions
     Chem. Phys. Lett., 2000 325(1-3)93-98
     doi.org/10.1016/s0009-2614(00)00662-x

Timings for individual modules:

Sum of individual times          ...      330.882 sec (=   5.515 min)
Startup calculation              ...       15.588 sec (=   0.260 min)   4.7 %
SCF iterations                   ...      313.358 sec (=   5.223 min)  94.7 %
Property calculations            ...        1.937 sec (=   0.032 min)   0.6 %
                             ****ORCA TERMINATED NORMALLY****
TOTAL RUN TIME: 0 days 0 hours 5 minutes 32 seconds 254 msec
