37
 energy: -59.738388230075 gnorm: 0.181273529462 xtb: 6.7.1 (edcfbbe)
N            0.00260500000000        0.26833900000000        2.34949800000000
C            0.00561000000000       -0.53426800000000        1.12782400000000
C           -0.01360500000000        0.36044200000000       -0.11757000000000
C           -0.00658000000000       -0.48411400000000       -1.39958300000000
C            0.00530900000000        0.34606300000000       -2.65559300000000
O            0.01598000000000        1.56658800000000       -2.61114500000000
O            0.01013600000000       -0.27058000000000       -3.85192000000000
H            0.84383000000000        0.88923800000000        2.37341700000000
H           -0.86762500000000        0.84621600000000        2.39703300000000
H           -0.88589600000000       -1.19861800000000        1.12403900000000
H            0.91775600000000       -1.17084600000000        1.11100500000000
H            0.88289000000000        1.01613200000000       -0.10393900000000
H           -0.92488100000000        0.99783100000000       -0.09978000000000
H           -0.91002800000000       -1.12912700000000       -1.41351300000000
H            0.89428700000000       -1.13411000000000       -1.40682800000000
H            0.03021100000000       -0.36918600000000        3.17705500000000
O           -0.25278500000000        2.45201700000000       -7.32993300000000
H           -0.79584100000000        2.98099200000000       -6.69284000000000
H            0.54840600000000        2.18640600000000       -6.81209500000000
O           -3.20384400000000        2.81870800000000       -4.12020700000000
H           -2.78875500000000        3.64297100000000       -3.76117700000000
H           -3.42052600000000        2.28028100000000       -3.31786200000000
O           -2.59935100000000       -0.89384000000000       -3.74265000000000
H           -3.25869900000000       -1.12291500000000       -3.04022800000000
H           -1.89905600000000       -1.58930700000000       -3.66186900000000
O           -1.62740400000000        1.43247300000000       -5.32208300000000
H           -0.78013700000000        0.95652300000000       -5.51240100000000
H           -1.91972400000000        1.07758300000000       -4.44503400000000
O           -0.00076900000000        3.90681900000000       -4.30873600000000
H           -0.61027200000000        3.20223400000000       -3.97306100000000
H            0.53566400000000        3.45761300000000       -5.00949800000000
O           -2.59419000000000        1.32042600000000       -1.50813300000000
H           -3.52706200000000        0.98867700000000       -1.52556400000000
H           -2.07940700000000        0.63982900000000       -2.01052600000000
O           -2.13034900000000        0.08289700000000       -7.00983200000000
H           -1.39907300000000       -0.35224400000000       -7.51628900000000
H           -2.21635300000000        0.98017500000000       -7.41984200000000
37
 energy: -59.774717984674 gnorm: 0.093123285697 xtb: 6.7.1 (edcfbbe)
N            0.00214383862361        0.26693249961970        2.35576348793146
C            0.00705135429820       -0.54134752107545        1.12566375964545
C           -0.00832242472585        0.35467602941564       -0.11238985000077
C            0.00144438778467       -0.48872489742233       -1.38977730524775
C            0.03442154959010        0.34442852493635       -2.66333673551882
O            0.03456965665923        1.57963341333516       -2.61357046588487
O            0.06149378316904       -0.29717364272037       -3.78970089732439
H            0.82860089548167        0.88651634895326        2.37674790167592
H           -0.85313076978828        0.84546472606497        2.39764699415269
H           -0.87319906588641       -1.19570509526897        1.11868325021877
H            0.90529994128471       -1.17101105907049        1.10757366031105
H            0.86981408771002        1.01195758683406       -0.11901708894597
H           -0.90012489952928        0.99403904702505       -0.11202275624539
H           -0.88637330599019       -1.13537456373799       -1.41891808074874
H            0.88503509371220       -1.13964522660683       -1.41013906357241
H            0.02829662685628       -0.35356611181710        3.18077450659454
O           -0.21970977117956        2.50023353106537       -7.35325598619742
H           -0.79705556269561        2.94681228992550       -6.70116907350187
H            0.53424659952569        2.18045954068141       -6.82760087088755
O           -3.28577776152488        2.87927621224459       -4.08659335218604
H           -2.78713401909956        3.64781772313192       -3.75191457195000
H           -3.39793250534536        2.30206538408317       -3.30415290354185
O           -2.61413455222603       -0.88593820984470       -3.69914175481352
H           -3.27419562767958       -1.16713684253190       -3.04000233090625
H           -1.91228320809087       -1.56286410905892       -3.68144749633994
O           -1.55493869414329        1.50173310313881       -5.25058503077443
H           -0.78423062444351        0.93945794654204       -5.47078744681086
H           -1.92215071698314        1.06249146737974       -4.45857011438768
O           -0.02765173111390        3.91271955172783       -4.33330225076167
H           -0.57701886744429        3.18946993126566       -3.97087307799108
H            0.53851765702979        3.46978671197901       -4.98749408907293
O           -2.63216441220040        1.31006414256453       -1.50221000699607
H           -3.54350705921893        0.97708169360104       -1.51858390488909
H           -2.11619404775213        0.67840522268263       -2.03422114823102
O           -2.19237230409337        0.01146992538764       -7.13117943349624
H           -1.39290257579339       -0.35922059687230       -7.55180236503726
H           -2.19795896477732        0.95303332244249       -7.41895410826813
37
 energy: -59.789522738295 gnorm: 0.037818609101 xtb: 6.7.1 (edcfbbe)
N            0.00046360888869        0.26862065753169        2.36395534966565
C            0.01019123894329       -0.54533443579458        1.12581159242024
C            0.00191132956502        0.34892688312745       -0.10793144070408
C            0.02042452573489       -0.49912395336520       -1.37683649847490
C            0.07914063057664        0.33133042059992       -2.67516782438208
O            0.06215226073671        1.57625636707873       -2.60371886799087
O            0.11274505246094       -0.32127316820776       -3.73957726048255
H            0.81583588606194        0.88887518946099        2.37988692285254
H           -0.84407562044738        0.84912029685659        2.39428603214043
H           -0.86578397815845       -1.18953797753603        1.11455040838061
H            0.90045287592077       -1.16948761732620        1.11124499010502
H            0.87024655949901        1.00511884334067       -0.12997365328557
H           -0.88063960213751        0.98600578355670       -0.12896286015824
H           -0.86243758918754       -1.13793804545547       -1.42817889427484
H            0.89263480133911       -1.15153944711641       -1.40643443315147
H            0.02349574616499       -0.33702351416827        3.18996020305681
O           -0.20751387756624        2.51749179241357       -7.37116377389037
H           -0.79624667281195        2.92003162907140       -6.71611456783178
H            0.53162110758609        2.18440533268809       -6.85954643772399
O           -3.36149807413928        2.92759057873383       -4.04430729977089
H           -2.79583176145173        3.66102414194386       -3.75869655929778
H           -3.38032322874548        2.33580788446825       -3.26994958831897
O           -2.62046504467532       -0.85292176622776       -3.63159492744706
H           -3.30579732294437       -1.23819856460126       -3.05151260533064
H           -1.92056727655680       -1.52088688388158       -3.71024811683280
O           -1.49797165488314        1.51591946174787       -5.22950234510703
H           -0.76527354557085        0.91815403528494       -5.42853601487017
H           -1.93376151398451        1.06198081589127       -4.49342730037283
O           -0.05769038872479        3.92369705642417       -4.35287439947864
H           -0.53034551679463        3.16399058539743       -3.96292710098118
H            0.55096979180162        3.50527060939426       -4.96949064621187
O           -2.69180822991398        1.30679020732696       -1.50907325504092
H           -3.58188560814795        0.95088300784702       -1.50191767336489
H           -2.16312481529478        0.72646146274497       -2.06980122485592
O           -2.20048933103211       -0.01711207746933       -7.18165664281318
H           -1.40908006478694       -0.36415138918960       -7.59151697188873
H           -2.21920269732388        0.91909379740952       -7.41891631428725
37
 energy: -59.797271918984 gnorm: 0.064346300646 xtb: 6.7.1 (edcfbbe)
N           -0.00257226807534        0.27407651617171        2.37142816140493
C            0.01353257147455       -0.54425652655700        1.13040186826834
C            0.01321151414972        0.34626530368424       -0.10401710588667
C            0.04008351674912       -0.50768328309211       -1.36434165161899
C            0.09826312277909        0.31372045756285       -2.68689555109288
O            0.09639491731497        1.56128987418568       -2.60304835555658
O            0.19645689977232       -0.35804131957993       -3.72724960048011
H            0.81045703417692        0.89642225013737        2.38309254449394
H           -0.84500257342017        0.85729705256944        2.38822471714056
H           -0.86540028219743       -1.18373147697118        1.11462990956107
H            0.90341038904577       -1.16847844876396        1.12303153406519
H            0.88150140100375        1.00195213573710       -0.13136300836035
H           -0.87186368714763        0.97915877229072       -0.14340104447960
H           -0.84448076596456       -1.14000607415847       -1.43115124012648
H            0.91183199023390       -1.16126957537828       -1.39336553510076
H            0.01578745490309       -0.32397659946298        3.20235375685877
O           -0.17212220413934        2.58193677883208       -7.41782019444876
H           -0.81154753173130        2.87208592765653       -6.72477868863427
H            0.52828761060782        2.16024429231831       -6.89634761626503
O           -3.42018011124392        2.96177792917642       -3.99227593077857
H           -2.80409627784153        3.68316811973111       -3.77879575341123
H           -3.36370100799908        2.37874728595285       -3.21252760369979
O           -2.63571138353285       -0.82166600285598       -3.56724481732354
H           -3.33701724031670       -1.30428333851245       -3.06173371798750
H           -1.92691549962639       -1.46969365249006       -3.72903896773107
O           -1.45478187306584        1.50365486786414       -5.22426396555655
H           -0.73911700825701        0.87431912030641       -5.37193374121084
H           -1.98231298700278        1.06636987671514       -4.53227452615469
O           -0.09421124427549        3.93558684248710       -4.36748324784705
H           -0.47399089870943        3.12695219771558       -3.94310494603801
H            0.58012378628096        3.55599631404649       -4.95071246803300
O           -2.76122729610792        1.31440220661689       -1.52121123787504
H           -3.63477455225766        0.91271141760287       -1.48069215418853
H           -2.21698189875641        0.78571563979653       -2.12364254379768
O           -2.24511059126814       -0.06675362444539       -7.26403166259850
H           -1.39069717311517       -0.35904503178939       -7.62322728223466
H           -2.21505385244006        0.91335177490124       -7.38504833327636
37
 energy: -59.802995254165 gnorm: 0.058371269845 xtb: 6.7.1 (edcfbbe)
N           -0.00864533820032        0.28271151510394        2.37783783522178
C            0.01589279131348       -0.54063003818097        1.13505124552300
C            0.02569623367084        0.34370029772018       -0.10252151199451
C            0.06846478396845       -0.51792587655185       -1.35262648916533
C            0.15163359198128        0.29435767860585       -2.70058033337049
O            0.11684456566169        1.54339573284079       -2.60821806504563
O            0.27161895932693       -0.40176339506876       -3.72166415358562
H            0.80308611268128        0.90783349938013        2.38588084987944
H           -0.85039995992494        0.86843763995502        2.37882341967532
H           -0.86555662126703       -1.17775207966758        1.11413954741878
H            0.90618967339788       -1.16608376482330        1.13785791934660
H            0.89380155589075        1.00073071400587       -0.12990227708559
H           -0.86317884255034        0.97204131234011       -0.16301766610871
H           -0.81953777268781       -1.14298005141898       -1.44020162023662
H            0.93930794566807       -1.17461540499873       -1.37136869922783
H            0.00388164718038       -0.30754852389403        3.21516080603685
O           -0.18484160268250        2.56482064941467       -7.42767691222965
H           -0.79052858514405        2.87522043815076       -6.75473621181969
H            0.53984588702931        2.16258233386414       -6.94987435907840
O           -3.46475190015307        2.99218723711530       -3.91592228868102
H           -2.83059184103569        3.71418555473163       -3.79235627366199
H           -3.35286654410866        2.43257089234869       -3.13535573942414
O           -2.67437681436869       -0.84296874061338       -3.55752708246364
H           -3.33137438549923       -1.31206196482393       -3.06092817201911
H           -1.92489675931778       -1.41442145815905       -3.72330613984737
O           -1.38890221596180        1.50790324547849       -5.19928527298091
H           -0.70294804993000        0.82205540420561       -5.28576364207423
H           -2.03297526863261        1.10004972213692       -4.56744698874425
O           -0.06771499470394        3.92398795126997       -4.32234736530188
H           -0.44017168409345        3.11894500298815       -3.94617076482317
H            0.58977942284666        3.61952538593411       -4.94915468197137
O           -2.83886211252077        1.32322318238579       -1.54633354323935
H           -3.69225732905583        0.86855045656455       -1.45698984306778
H           -2.28654904987026        0.82942839428374       -2.16607237285059
O           -2.26579014452791       -0.10598313310510       -7.34004551192757
H           -1.40512656295547       -0.37865950390618       -7.68593538117784
H           -2.26272679142527        0.86326769439014       -7.41128225989747
37
 energy: -59.805663701116 gnorm: 0.081353090730 xtb: 6.7.1 (edcfbbe)
N           -0.01343957178222        0.29528092101278        2.37903542536863
C            0.01591001695667       -0.53327324130497        1.14082240697931
C            0.03463691117866        0.34127863854001       -0.10517900656052
C            0.09107225512670       -0.53053558337275       -1.34742488523715
C            0.21174288673997        0.27779797611227       -2.70173307574981
O            0.12417329119072        1.52233070341251       -2.61769399444905
O            0.30061196412094       -0.43030205520174       -3.72706448016607
H            0.80164255224850        0.92025851660789        2.38724440168383
H           -0.85697398762328        0.88249633983869        2.37139253275662
H           -0.86704036204795       -1.17246265412177        1.11927058211261
H            0.90666314009946       -1.16317692865816        1.15341120641828
H            0.90430242690985        1.00028420974898       -0.12350176642011
H           -0.85657886860559        0.96942564933224       -0.17505071786384
H           -0.80333788575661       -1.14894387683010       -1.44348741263616
H            0.95998278611034       -1.19343597070341       -1.34638747810315
H           -0.00606600590187       -0.29175114929397        3.22169971669943
O           -0.18100159737800        2.58283666361767       -7.44756379637005
H           -0.78835004436475        2.85105086264706       -6.76172104998655
H            0.54678844790679        2.15155085048426       -6.99766984937462
O           -3.49887553529630        3.01066631484815       -3.85753350792917
H           -2.86074530039064        3.74112468600305       -3.81882950376218
H           -3.32424332462560        2.47286352777043       -3.06486122341600
O           -2.65556813990463       -0.77250942565911       -3.45800354828504
H           -3.36478882484502       -1.40984908451518       -3.10038737475197
H           -1.92661144734391       -1.35773237764568       -3.76233212390452
O           -1.39119913856992        1.46936750974198       -5.19227936563187
H           -0.67883584224420        0.82630437895377       -5.22356794260862
H           -2.01365226321133        1.15604198606263       -4.55583857964768
O           -0.08891779997775        3.92502592669118       -4.31431743686795
H           -0.37992439374984        3.08206943508762       -3.91942315575373
H            0.60567501456010        3.68281663276695       -4.94182481693861
O           -2.88584077347541        1.33710269165983       -1.56875872762143
H           -3.72854719947265        0.86881248333074       -1.46430115506581
H           -2.34751480873659        0.83906624414659       -2.17923521279014
O           -2.26518205059090       -0.14102317691020       -7.39439519399394
H           -1.42900374295674       -0.41289498914488       -7.75271907632712
H           -2.31049078429795        0.80035536494873       -7.44965081380593
37
 energy: -59.807519502167 gnorm: 0.087053639789 xtb: 6.7.1 (edcfbbe)
N           -0.01766222540168        0.30443102628703        2.37494945415517
C            0.01512765230652       -0.52839823810159        1.14328381557990
C            0.04019430405573        0.33733882927920       -0.11109730463285
C            0.10163104104933       -0.54193127740173       -1.35092849274074
C            0.21689691016328        0.26872753556667       -2.69512603352429
O            0.13716143910526        1.50629331689417       -2.62252086327362
O            0.30055814798428       -0.42869980029410       -3.73161210605919
H            0.80006365243992        0.92722831262320        2.38775469109087
H           -0.86233904208786        0.89079886226364        2.36616387364171
H           -0.86673762340513       -1.17014961970410        1.12310461023857
H            0.90478670283339       -1.16103876960291        1.16270228508043
H            0.90877014865229        0.99940145089233       -0.11966828262312
H           -0.85076551485659        0.96590908123560       -0.18024098923329
H           -0.79533515690934       -1.15709574870607       -1.43992771793743
H            0.96879522162331       -1.20781686301207       -1.33945061562921
H           -0.01392601347014       -0.28202836608052        3.21910200929911
O           -0.14552685064701        2.65274865621956       -7.48477345045774
H           -0.81542862660589        2.78114120983563       -6.73440638720736
H            0.54752762113681        2.12586540373863       -7.02978712996662
O           -3.50979205998106        3.02172288061226       -3.82773591218527
H           -2.88127559038302        3.75782534001363       -3.83225782133803
H           -3.30133775617937        2.49993501823904       -3.02286165239021
O           -2.68323146346354       -0.81744395569400       -3.49930780335215
H           -3.33649388480587       -1.36063784209763       -3.08410523239017
H           -1.92135456595581       -1.34234517089178       -3.72803364939908
O           -1.38921674097517        1.43206798419732       -5.22099481093648
H           -0.65170132769456        0.80607991199137       -5.15215067527790
H           -2.04453292452673        1.19969138170802       -4.58185868814395
O           -0.12339800171098        3.93965706152420       -4.33275326956495
H           -0.31673422278599        3.04938542428085       -3.87920161118635
H            0.61755266525894        3.72037534338108       -4.93313251470986
O           -2.90878236013939        1.33699152308120       -1.55697173543823
H           -3.74918378967707        0.89042008134580       -1.48791117500752
H           -2.38812895749872        0.84049989195821       -2.18691184978217
O           -2.28062036459673       -0.18412708651628       -7.44545444682928
H           -1.41812029314529       -0.41428738030602       -7.79265769100442
H           -2.30696814970746        0.78978259124520       -7.41308082686474
37
 energy: -59.804643920561 gnorm: 0.109780101495 xtb: 6.7.1 (edcfbbe)
N           -0.01716913652870        0.31511230313562        2.36765901989886
C            0.01853872424886       -0.52466005417305        1.14413892723220
C            0.04877362259137        0.33328616329635       -0.11715048771929
C            0.10897120013683       -0.55096168884332       -1.35702901691391
C            0.16739632228597        0.25985035819430       -2.68773740584647
O            0.16770277668867        1.49293122898916       -2.62670203629355
O            0.31683175497502       -0.41947464475480       -3.73279316040731
H            0.80133547860092        0.93466440971162        2.38545543790532
H           -0.86109257613897        0.90010112333158        2.35998674125040
H           -0.86199460686393       -1.16610977339638        1.12611820186519
H            0.90571020892787       -1.15775146169093        1.16886528615641
H            0.91441050345900        0.99781300904792       -0.12259264107885
H           -0.84069797485229        0.96129514307498       -0.18608842672115
H           -0.78515594748637       -1.16730520873201       -1.43091044466588
H            0.97502301021246       -1.21617342535845       -1.34460987235435
H           -0.01632393457226       -0.26921297620437        3.21212652438677
O           -0.17546219290167        2.58670890713721       -7.46699133371944
H           -0.79161456350718        2.81226222279993       -6.75779574167702
H            0.56278185066262        2.14853763800972       -7.04495917638764
O           -3.50111369286847        3.02009892938956       -3.80941860799712
H           -2.88994526071096        3.75679739536992       -3.82448098646690
H           -3.30792814505957        2.52097834640503       -2.99949730993278
O           -2.67477645212417       -0.79804751338696       -3.47307457183944
H           -3.33966040287384       -1.39225016903099       -3.09527373432383
H           -1.91525638263418       -1.32192917410237       -3.73700921369701
O           -1.34868394041267        1.43279890508595       -5.25304335495933
H           -0.62743940215278        0.74644415166832       -5.07017962876069
H           -2.14178331165758        1.21498133359669       -4.64533191872479
O           -0.04715891135198        3.92002509671687       -4.27265140023536
H           -0.34739987617493        3.10333870200109       -3.89525075363454
H            0.58976607987085        3.70229376903200       -4.94037471419104
O           -2.91615745544108        1.33236344781669       -1.54227049209357
H           -3.75612292405658        0.89383619894809       -1.48958686535278
H           -2.40339878876892        0.84504113469880       -2.20991330455865
O           -2.33224076324771       -0.21676433970884       -7.49839395234800
H           -1.40147232412271       -0.39289622043357       -7.80359425938493
H           -2.29672056615183        0.81029473236393       -7.36950532640971
37
 energy: -59.812441958879 gnorm: 0.057003864983 xtb: 6.7.1 (edcfbbe)
N           -0.01986183001584        0.32038122045402        2.36645737981289
C            0.01858890516883       -0.52423197443468        1.14616710766745
C            0.05117640469261        0.33220826571280       -0.11548555309114
C            0.11247566663265       -0.55042434404406       -1.35549525431851
C            0.17411094812128        0.25861600450283       -2.68571978944339
O            0.16783775920053        1.49596846481747       -2.62497239501634
O            0.30789755877148       -0.42172724823076       -3.73449162094586
H            0.79856339267522        0.93982218381144        2.38480175515774
H           -0.86349916313799        0.90607500930889        2.35566508679629
H           -0.86341460827210       -1.16386743575682        1.12700065281188
H            0.90612859850401       -1.15661999028763        1.17398190321577
H            0.91772325093039        0.99539366428307       -0.12480452277797
H           -0.83880344428060        0.95985840870146       -0.19201398358869
H           -0.78033998845589       -1.16997372594590       -1.43121009776282
H            0.97868835861953       -1.21525039054501       -1.34345474127449
H           -0.02117720316483       -0.26145976293697        3.21259559540469
O           -0.18190748713361        2.57415990936479       -7.46574269433378
H           -0.77994915321184        2.81336929952463       -6.76533833636092
H            0.56446414156872        2.14405829760098       -7.05505693468722
O           -3.51943185242831        3.02572578400206       -3.79348169503849
H           -2.87140321124787        3.75298775413476       -3.83323200965773
H           -3.30606333472940        2.53949883384318       -2.97544400671544
O           -2.67121107861296       -0.78846319563448       -3.45899553308846
H           -3.33647423912346       -1.40462680239413       -3.09934599275870
H           -1.91068467639969       -1.31193655159923       -3.74615257350033
O           -1.35803054462488        1.45243261144893       -5.21798733340841
H           -0.65284563705738        0.78580150912111       -5.09659591457320
H           -2.08887071670879        1.18086774895730       -4.62107874030619
O           -0.06532599549569        3.92407335892425       -4.27870613519400
H           -0.31680586975088        3.08290148870976       -3.87429047432493
H            0.59567535001249        3.71748174213581       -4.93616664093204
O           -2.92453177296002        1.34482781302078       -1.56539201762619
H           -3.76721985357643        0.88093185071700       -1.46978766190563
H           -2.40988420972582        0.84220622921061       -2.21312291654627
O           -2.28628109610222       -0.17930115348006       -7.45438208107545
H           -1.44105917195110       -0.43067779299679       -7.81167744652205
H           -2.33778219673150        0.75723091598435       -7.46690438409225
37
 energy: -59.807677993102 gnorm: 0.128722316952 xtb: 6.7.1 (edcfbbe)
N           -0.02340483878570        0.32711925921630        2.36430173822548
C            0.01803210601156       -0.52309089688068        1.14655043349494
C            0.05474677850304        0.32922333442004       -0.11705119847424
C            0.12494936807031       -0.55442492915886       -1.35443834991850
C            0.26405208528654        0.25474227632304       -2.68753396719779
O            0.13993279081558        1.49772329931424       -2.62229934227054
O            0.25007285513705       -0.42866099869855       -3.73626765808029
H            0.79557369851468        0.94653820791941        2.38170597064676
H           -0.86608730853387        0.91507186411353        2.34624496534061
H           -0.86534446979128       -1.16118693356680        1.12627108003295
H            0.90581658969093       -1.15587845226344        1.18070784003794
H            0.92393309288152        0.98914880120739       -0.12675570144345
H           -0.83436094107972        0.95816631756215       -0.20485777195380
H           -0.77109281110198       -1.17320471648771       -1.44370518443802
H            0.98918883461451       -1.22110799529667       -1.33382062197691
H           -0.02876279598399       -0.25016007943349        3.21397656434302
O           -0.16474376002773        2.61320394003294       -7.49084652337563
H           -0.78150234661344        2.77112615944555       -6.75317590314086
H            0.56802311650807        2.12379589342815       -7.09374462430116
O           -3.49497553150346        3.03491273200113       -3.76989532339498
H           -2.89895792642543        3.76736852032369       -3.81896439607267
H           -3.32151249966334        2.56688305723941       -2.96707093747778
O           -2.66680311661346       -0.77505171988360       -3.42700654989090
H           -3.33617492225352       -1.41490046638452       -3.11503638214112
H           -1.91357096456690       -1.29002479698093       -3.74690783252263
O           -1.40873455110853        1.38548898301293       -5.23009886715334
H           -0.66279606808638        0.81592283190063       -5.07911870788332
H           -2.02680968357677        1.19059235719434       -4.60823305586768
O           -0.08657124931456        3.92450008615053       -4.27232343848675
H           -0.26837410464422        3.04992967241039       -3.84755497865633
H            0.60662349218793        3.75654913221219       -4.92866888346568
O           -2.94025021783246        1.35666873777054       -1.58924263741009
H           -3.78648936478793        0.89829406152363       -1.45952309667134
H           -2.45185880396940        0.82479807426410       -2.20653944040909
O           -2.30984845440086       -0.23472819951647       -7.51848282785304
H           -1.42305078642990       -0.41878344727001       -7.85640461059163
H           -2.32839529112832        0.75175403284199       -7.39404977960244
37
 energy: -59.814562636388 gnorm: 0.073309309418 xtb: 6.7.1 (edcfbbe)
N           -0.02508022245981        0.33445686476059        2.36223410918787
C            0.01828125629521       -0.51924879081109        1.14814911358851
C            0.05817351290152        0.32932520996977       -0.11870213119127
C            0.12829497760543       -0.55649040683652       -1.35546116624064