34
 energy: -56.612807162397 gnorm: 0.171697124890 xtb: 6.7.1 (edcfbbe)
H            1.42053100000000       -0.69343900000000       -0.45759400000000
C            0.31562500000000       -0.64091500000000       -0.57275600000000
H            0.37944700000000        0.34125600000000       -2.37510200000000
H           -0.02020400000000       -1.57726700000000       -1.06978300000000
N           -0.04283300000000        0.48932200000000       -1.43082700000000
H           -0.10434400000000       -1.52577500000000        1.34227500000000
C           -0.35607200000000       -0.58177200000000        0.80987700000000
O           -0.15503900000000        1.84564400000000        1.27779400000000
C            0.09900500000000        0.57829600000000        1.65429800000000
H            0.33459400000000        1.38391400000000       -1.05046800000000
O            0.66999200000000        0.37333800000000        2.71201200000000
H           -1.08151800000000        0.54834700000000       -1.53303300000000
H           -1.45918500000000       -0.54094800000000        0.69330800000000
O            2.60838200000000       -2.49040300000000       -3.22775100000000
H            2.03954800000000       -3.21059800000000       -3.59971600000000
H            2.58148900000000       -2.63389000000000       -2.24831100000000
O            3.69773800000000       -2.45211000000000        2.95093000000000
H            3.27131400000000       -2.74532600000000        2.10665600000000
H            3.18856300000000       -1.64627700000000        3.21923500000000
O            2.20621000000000        3.32499500000000       -0.56958700000000
H            2.69490500000000        3.25968400000000       -1.42837900000000
H            2.87331200000000        3.06801300000000        0.11564900000000
O            2.55222000000000        2.57659600000000       -3.51534600000000
H            1.94576900000000        1.79487900000000       -3.47355100000000
H            1.96774400000000        3.33003400000000       -3.78242500000000
O            1.34627600000000       -2.33248400000000        4.91961100000000
H            2.17950300000000       -2.85218100000000        4.79210200000000
H            0.79307700000000       -2.89379500000000        5.51920500000000
O            1.15254100000000       -3.34706800000000        2.33247600000000
H            0.20172800000000       -3.31724200000000        2.60756600000000
H            1.58055500000000       -3.95682600000000        2.98486700000000
O            2.77752300000000       -3.57902200000000       -0.25378300000000
H            1.99074800000000       -3.98635500000000        0.18857100000000
H            2.71167400000000       -2.61472700000000       -0.03834800000000
34
 energy: -56.635621799660 gnorm: 0.090944959700 xtb: 6.7.1 (edcfbbe)
H            1.40096567085392       -0.68231849524756       -0.45123290619152
C            0.31176436691457       -0.64959635807976       -0.57630038604665
H            0.37729023645298        0.36511028074869       -2.36363565845084
H           -0.01371948522351       -1.57315688322092       -1.07178726284286
N           -0.04062042477187        0.49515233510028       -1.42922476936674
H           -0.10142974748601       -1.49579234951148        1.34806179180304
C           -0.35582526887814       -0.58184534407964        0.79890151907929
O           -0.15651222852244        1.78626943418005        1.22565229297922
C            0.08543026802021        0.59090093062951        1.66327070590409
H            0.31453530432776        1.37853367434295       -1.01822760066271
O            0.68877427562761        0.38410212876251        2.72350307150780
H           -1.06591249144043        0.56270320236052       -1.52520488808947
H           -1.44676240658192       -0.53713572174307        0.68893397733721
O            2.54634178027651       -2.46105485074114       -3.20963902779652
H            2.06189935509490       -3.21372759085138       -3.59705963599656
H            2.61929498556754       -2.68876635153235       -2.25667741923130
O            3.71334058064515       -2.43894419263485        2.95456159877244
H            3.28851177922454       -2.75207449974078        2.13583650538586
H            3.19254685176909       -1.66138824992314        3.21704300115959
O            2.20790951704250        3.29108449738663       -0.59072776951805
H            2.70127075263890        3.24527071928681       -1.43292247020305
H            2.86140640303065        3.08891817371776        0.09896011882099
O            2.53481143363126        2.60121580552238       -3.46290770463461
H            1.96766092578626        1.80882411589995       -3.50629403042137
H            1.97292031615042        3.32371144395036       -3.79640706632538
O            1.33880857359748       -2.35189434478872        4.93167873816221
H            2.17686886406463       -2.83421400878772        4.81035290038650
H            0.81016528317377       -2.89539602133797        5.53873850919551
O            1.12039095405708       -3.42527279542491        2.26262722293364
H            0.21927506808921       -3.30364264735813        2.62402649960359
H            1.58186901973594       -3.92969307421339        2.96331878135638
O            2.72967324256335       -3.55192098108075       -0.29748824025943
H            2.00572477812669       -3.97561344120681        0.20342651432932
H            2.71214946644131       -2.62245054038363       -0.00348491267961
34
 energy: -56.642794160088 gnorm: 0.045726621896 xtb: 6.7.1 (edcfbbe)
H            1.39135829660877       -0.67521508198327       -0.45072942502805
C            0.31480800464656       -0.66001380623837       -0.57860612182392
H            0.38171325818414        0.40053520493454       -2.34461898275857
H           -0.00617330110372       -1.56739942969095       -1.07871346569207
N           -0.03663192369470        0.50523279340397       -1.42029036993815
H           -0.10041455382260       -1.48382925478856        1.34944031555396
C           -0.34956608425884       -0.59221006305668        0.78704252859833
O           -0.19933516269032        1.73012784827506        1.19543275010671
C            0.13190702318521        0.61847750225906        1.62593414856929
H            0.29129870110045        1.37340715670077       -0.96199813702593
O            0.68391607569284        0.38907325062378        2.72611617885676
H           -1.05089512664345        0.58082814865358       -1.50866218616549
H           -1.43090689924132       -0.52304148003319        0.69089214037917
O            2.52990146645540       -2.47659166043063       -3.17953013351591
H            2.06090913727068       -3.19846763553709       -3.59267811968812
H            2.63144517048103       -2.73555865374403       -2.25459315227762
O            3.70191751577160       -2.43527212496689        2.97726400388880
H            3.30135027858031       -2.76231367537525        2.16877871153721
H            3.19841041890906       -1.65528161636803        3.20707144340336
O            2.20905859616765        3.26207314486571       -0.61030471236304
H            2.68833769426903        3.20970865031887       -1.44658613314285
H            2.84871422142126        3.10378527950550        0.08062738227239
O            2.52545085209170        2.62843651182308       -3.44977671824946
H            2.00165293471539        1.82826842795952       -3.52987724394601
H            1.97676805894103        3.33230414270931       -3.79161996416738
O            1.31993681066592       -2.39947151478466        4.91703589907632
H            2.19014638602097       -2.81339183072099        4.84949081058562
H            0.83449075752270       -2.89451067534254        5.58139630286000
O            1.10967386789384       -3.44533721159534        2.24192095275954
H            0.23499667140364       -3.32082691417103        2.59412998315249
H            1.57426150598713       -3.94357544366837        2.90920988265530
O            2.69095549765616       -3.51530806773233       -0.31815650563454
H            2.00790024778183       -3.95305426090442        0.20063550794621
H            2.70346160203036       -2.61568966089946        0.01399442921556
34
 energy: -56.647183633523 gnorm: 0.075405145768 xtb: 6.7.1 (edcfbbe)
H            1.39640294985790       -0.66845242596032       -0.44796484252698
C            0.31845853217874       -0.66118872356455       -0.57406350113989
H            0.39017531350308        0.43703555543431       -2.32377536899741
H            0.00413983708486       -1.56275201436880       -1.09260586570580
N           -0.03873733830051        0.51783744740357       -1.40095868046074
H           -0.09318633241696       -1.49597265700426        1.35612758341599
C           -0.35009023044260       -0.60864898310653        0.79004608042898
O           -0.17699177383812        1.73419707147024        1.13110951986611
C            0.09454118242492        0.63671742912921        1.62554548871783
H            0.27273035910489        1.37760720343986       -0.91066930681377
O            0.70417910014778        0.41136077715000        2.69533167704038
H           -1.05370146495676        0.59087126396794       -1.49234917249159
H           -1.43081435307304       -0.53825576796598        0.69140713390228
O            2.46014463703001       -2.44157583509784       -3.13902480856587
H            2.08089479999063       -3.20701791517077       -3.60229900690062
H            2.66743382469485       -2.81423136617028       -2.23476326429743
O            3.70542582330169       -2.43142562533097        3.00282681214024
H            3.32174691838047       -2.78648018854038        2.19504673965518
H            3.19593130643741       -1.64432166212771        3.20544503331946
O            2.19150660298586        3.20684281133546       -0.63539632547391
H            2.67614276956428        3.17377587181736       -1.47145414248619
H            2.84817668812103        3.13722187770912        0.07059685037933
O            2.51699369908923        2.67024485001135       -3.38290385214494
H            2.04322158924834        1.83049370747902       -3.58085684746929
H            1.97679610836506        3.34809883944143       -3.81481144593591
O            1.29258059437285       -2.44867076771170        4.88901153061546
H            2.20874039978200       -2.79676637828527        4.88497415528561
H            0.85893723753934       -2.89813454209103        5.64018153574871
O            1.08743574828542       -3.53931976723213        2.15131411224793
H            0.24876383424120       -3.29081507080166        2.60571038707802
H            1.59780220904772       -3.92660042126103        2.89014531143998
O            2.63035832326108       -3.47412003734046       -0.38320521990554
H            2.00906164233839       -3.94361346967819        0.20940948088977
H            2.70561746264844       -2.59804308697780        0.05254421914451
34
 energy: -56.648396722997 gnorm: 0.056456010003 xtb: 6.7.1 (edcfbbe)
H            1.40356954439941       -0.66362281699588       -0.44503872110786
C            0.32228415295800       -0.66246944871458       -0.57041271360779
H            0.40337583208573        0.47554616637935       -2.30071018232085
H            0.01825660443100       -1.56136366324956       -1.10879946182646
N           -0.04046341240664        0.52935557848683       -1.37901132122767
H           -0.08179508798154       -1.50509007924334        1.36727692055873
C           -0.34909831807293       -0.62248512431940        0.79492310578929
O           -0.14618912614130        1.74824243295191        1.05448348904539
C            0.05407347053892        0.64810761739968        1.63010524435313
H            0.25543281605753        1.38184954103482       -0.85998514221859
O            0.71933418934981        0.44479868030462        2.67103539593797
H           -1.05775823758017        0.59530456868420       -1.47933854844789
H           -1.43130420473655       -0.56217204966959        0.69002270926936
O            2.50894014755941       -2.50178764035609       -3.11800033518395
H            2.06957435293202       -3.20448617239270       -3.60154037542625
H            2.60473119768129       -2.79795392843422       -2.21969352254904
O            3.70938989936998       -2.42078314877230        3.02986436935607
H            3.33844153164994       -2.81599995732903        2.22663884655342
H            3.18394703641240       -1.62813933553254        3.19910995066075
O            2.17108884041932        3.16029728769738       -0.64300044163411
H            2.65217160666342        3.14179618123862       -1.48637726337721
H            2.84833513046844        3.15772638878277        0.06322342930894
O            2.53043010931852        2.68671069908941       -3.42650832744395
H            2.06861907453024        1.85478692580038       -3.56921841651554
H            1.98225054143006        3.37246532703898       -3.81459036946090
O            1.30242768369629       -2.46718688144958        4.92465439559087
H            2.20804872050781       -2.80687227120893        4.88981807044039
H            0.86717938869883       -2.91733629182555        5.66071048667621
O            1.08734249524752       -3.55375906275867        2.12868660526319
H            0.25161040809809       -3.31831039289361        2.56461041922979
H            1.60848608301364       -3.93986466417036        2.85523326886850
O            2.64271890614364       -3.45614330538462       -0.33053584064634
H            1.97796922473682       -3.92031926946522        0.17658132163705
H            2.67739739852032       -2.57494389072190        0.02545495445514
34
 energy: -56.651685206455 gnorm: 0.044538821444 xtb: 6.7.1 (edcfbbe)
H            1.40971419720932       -0.66539735507387       -0.44912273274947
C            0.32604600188394       -0.66345851112179       -0.57454313212102
H            0.41648478342333        0.50616143243185       -2.28534065363190
H            0.02370465521537       -1.56156559935271       -1.11914828771958
N           -0.04021002472210        0.53651914384941       -1.36604699942442
H           -0.07224092270249       -1.50130200450766        1.37291268488841
C           -0.34056103662880       -0.62205416781901        0.79254165544178
O           -0.17473349324089        1.75427574276576        1.05102319550483
C            0.11078792188521        0.65164347902688        1.59296167307303
H            0.24375574386384        1.38340527216133       -0.82397070181923
O            0.69094941121185        0.46328593903329        2.67694437959383
H           -1.05917136963782        0.59341903490885       -1.47607519560905
H           -1.42657768161871       -0.56670955066029        0.69229780150025
O            2.46452100224675       -2.47940339443009       -3.09003439758484
H            2.08459863777715       -3.20993500857449       -3.60686119329994
H            2.61683279744277       -2.84846353567315       -2.20122801689012
O            3.70004191130754       -2.42008506462427        3.05342724077928
H            3.35025874032087       -2.82824210320429        2.24403962612993
H            3.17318115511061       -1.61650644225245        3.19083707557972
O            2.16935520272664        3.17644329795003       -0.63766050549224
H            2.61972798084622        3.11281854529192       -1.49852795326647
H            2.83631713345626        3.11558463822882        0.04131768848972
O            2.54073485145781        2.70733838043643       -3.43782507764023
H            2.09868089442712        1.86957874884241       -3.58019501611960
H            1.98540751053009        3.38847916118751       -3.82439907254384
O            1.30494556591529       -2.48691398045381        4.94217247038707
H            2.20949477641417       -2.81088694624369        4.89367628518133
H            0.87827033616952       -2.93386069799688        5.67651334170497
O            1.09741144793430       -3.52652270695237        2.15288292452395
H            0.24959798537700       -3.36006935281913        2.51849176739239
H            1.60441533481791       -3.97173085481567        2.82226648358716
O            2.61359046861350       -3.42672120461852       -0.36347081106101
H            1.97439750755703       -3.90722367415840        0.17628541284967
H            2.68108857340851       -2.55600266076031        0.04353004036536
34
 energy: -56.650797087826 gnorm: 0.076016259923 xtb: 6.7.1 (edcfbbe)
H            1.41209428082034       -0.66267347082690       -0.45538492385412
C            0.32942142240296       -0.65935809864538       -0.57995027105241
H            0.43129286405981        0.54516747222026       -2.26641598462003
H            0.02873307529891       -1.55366270217938       -1.12757362386036
N           -0.04107868186267        0.54748811319452       -1.35556386253153
H           -0.06208192384453       -1.48988282371801        1.37110927942890
C           -0.33422738572448       -0.61655600075847        0.78579671958854
O           -0.18324205836389        1.74898106812934        1.06015329196481
C            0.16088883952486        0.65676516023910        1.56011105263661
H            0.21919012250975        1.38729861280292       -0.78060450528813
O            0.66789145253246        0.47031368195216        2.68068080011021
H           -1.05827050842654        0.59163048727673       -1.47792698842657
H           -1.42143627890414       -0.56821231745903        0.69396848130321
O            2.47461139855557       -2.51466831703779       -3.07917130914444
H            2.05461574337974       -3.20268793819517       -3.58833747918349
H            2.59865528209480       -2.84927845222098       -2.19177477556996
O            3.68710891698301       -2.43214583616546        3.07757830010355
H            3.36149600694947       -2.82096457445076        2.25674468169139
H            3.17651679688562       -1.62033146508133        3.19957770315186
O            2.14395444894305        3.12262797314294       -0.64890399923597
H            2.58428819635514        3.08449732934200       -1.51735757319255
H            2.83814889796450        3.13046566301039        0.01943644854146
O            2.54479353463677        2.74985758761136       -3.39786009902383
H            2.15102400589078        1.87689261916541       -3.63446819754762
H            1.98482080239047        3.40567148840921       -3.84004213959057
O            1.27230022385573       -2.54467728033513        4.90293828713711
H            2.22774938053242       -2.79277095593569        4.91867914307264
H            0.90895428016378       -2.94744287654662        5.72679905088441
O            1.08061922629058       -3.63477542174253        2.06775004318763
H            0.26708994858531       -3.32246432901095        2.54567816165105
H            1.62744035066558       -3.95737045552982        2.82263509658110
O            2.59351938682854       -3.40405594987495       -0.36892087367669
H            1.95804014784115       -3.88798940169235        0.17204889220351
H            2.67589580418391       -2.53979058908750        0.04824317256003
34
 energy: -56.655603276697 gnorm: 0.041466193742 xtb: 6.7.1 (edcfbbe)
H            1.41524588309382       -0.65607873487799       -0.45711453395196
C            0.33341630951490       -0.65397950181026       -0.57925790139903
H            0.44111176094802        0.56912865503253       -2.25304148935109
H            0.03654493191432       -1.54557628371118       -1.13185938069047
N           -0.04129040822202        0.55512325915096       -1.34897066129990
H           -0.05123359412127       -1.48845488528185        1.36934061625675
C           -0.33240583131191       -0.61799497959487        0.78611778339051
O           -0.13725787014237        1.74832749421401        1.03483473147156
C            0.11208620659616        0.66034038159122        1.58353979016777
H            0.20047323335711        1.39107522378113       -0.75539933634146
O            0.68710876851332        0.47514088928293        2.66767465392885
H           -1.05660361275525        0.59034682580432       -1.48000191630225
H           -1.41775052134159       -0.58069005665418        0.69250291982387
O            2.42418413905075       -2.48573586856447       -3.06222926209096
H            2.06305822278768       -3.20602179751279       -3.59050468073608
H            2.62426462621709       -2.89155554164942       -2.18433430184685
O            3.67226715520590       -2.43301006433928        3.09326922868055
H            3.36261974442194       -2.81983967364247        2.26750712461148
H            3.17013792128394       -1.61603016785943        3.20063632257724
O            2.12417283492233        3.07714118178318       -0.65711046197224
H            2.56174699527374        3.07011353566345       -1.52846370036132
H            2.84170976325674        3.14484037454963        0.00885732958317
O            2.55759129373059        2.75691010324033       -3.42935320214308
H            2.16581146521545        1.89468616739918       -3.63269508079977
H            1.99574655000252        3.42082640744501       -3.83550248278902
O            1.29685745647998       -2.54381039886413        4.94501818520806
H            2.22311387243031       -2.81172702991884        4.90836251974392
H            0.90443875756237       -2.96538987350222        5.71227810388979
O            1.08558142686335       -3.62108804318597        2.08332164685428
H            0.26130346196035       -3.35330447462925        2.51893264374554
H            1.62286048492511       -3.98473841955763        2.79977083510525
O            2.57503873211883       -3.38355045151465       -0.38503845236590
H            1.95706159904385       -3.87188532904258        0.18061182877838
H            2.68180624120261       -2.52764092322181        0.05797258062422
34
 energy: -56.651083669573 gnorm: 0.100383317206 xtb: 6.7.1 (edcfbbe)
H            1.42061699600870       -0.64520769294884       -0.46154421095178
C            0.33765971138620       -0.64503468112861       -0.57969554961890
H            0.45678471691158        0.60535749281758       -2.23483311516199
H            0.04458129797701       -1.53506612462261       -1.13933884083303
N           -0.04166082510333        0.56742802658976       -1.34011868658330
H           -0.03393799483545       -1.48937557640436        1.37225173358555
C           -0.32426542652915       -0.62050013821019        0.79028244298492
O           -0.09835739072315        1.75578851632009        0.99810770321184
C            0.07507798479499        0.66322864064652        1.60384225527033
H            0.17816169517145        1.39678710628273       -0.72430900769335
O            0.69523380721676        0.49095679152890        2.66668024532127
H           -1.05540214932507        0.59006790583560       -1.48851397661124
H           -1.40943633263980       -0.59467756877155        0.69356550814004
O            2.40869203811950       -2.49252662063854       -3.05419520958174
H            2.07720775271366       -3.22793570372379       -3.59462050628159
H            2.57549000090630       -2.87116897227970       -2.18121306928903
O            3.66090888801087       -2.43665074909559        3.12386904511659
H            3.37973207911114       -2.83125257113582        2.28620245750528
H            3.16290492445042       -1.61043486075701        3.20224824800525
O            2.14071875129292        3.16411079160954       -0.65455297077922
H            2.52721357506891        3.04046959652844       -1.54569881871104
H            2.79093159494198        3.01512302894959       -0.02837200135722
O            2.56676470824154        2.78902924563111       -3.40132939988008
H            2.19780155530543        1.92062943805853       -3.65689119862987
H            2.01420485897964        3.44290840700376       -3.85951466798606
O            1.26668338795540       -2.60168053939373        4.90479832554114
H            2.23573832111310       -2.80133897826889        4.92385368347807
H            0.93621779578652       -2.97634051898197        5.76420183465210
O            1.09754702074998       -3.60929420165409        2.09704973554205
H            0.26292580411525       -3.40787002596948        2.46742455250979
H            1.62659013888194       -4.00942569304383        2.77539933296694
O            2.57386237853716       -3.37434681750654       -0.35623640125958
H            1.93823003566263       -3.84945670155758        0.18625763742406
H            2.67539629974347       -2.51640225170654        0.04461488995358
34
 energy: -56.655291177400 gnorm: 0.068567519249 xtb: 6.7.1 (edcfbbe)
H            1.42379140211616       -0.64132856794978       -0.46686856531885
C            0.33938567081487       -0.64008737850535       -0.58287854269030
H            0.46538082473069        0.62500609572322       -2.22638389740025
H            0.04515516236818       -1.53091692145766       -1.14152531341858
N           -0.04306118771410        0.57277306514289       -1.33740983197504
H           -0.02455781796724       -1.48684270860461        1.37325030977911
C           -0.31618995113188       -0.61726510236318        0.79060221540630
O           -0.11132079485120        1.75980346377471        1.01190606019690
C            0.11596584415711        0.66269012130021        1.58446894812255
H            0.16436187186202        1.39846351221487       -0.70867596610072
O            0.67695948420570        0.49492982543910        2.67852082862480
H           -1.05622073843931        0.58673228744702       -1.49766353373941
H           -1.40364745787783       -0.59350086878596        0.69845255565427
O            2.40284138730086       -2.50052033838923       -3.05304723097054
H            2.06997975412988       -3.23225603878417       -3.58958979464538
H            2.55875625173876       -2.86127030529432       -2.17977392050113
O            3.65474194688719       -2.43751918464605        3.13793910700939
H            3.38703631721800       -2.83426760738051        2.29448358105460
H            3.15583530004032       -1.61018870361661        3.20555142891016
O            2.12534659283290        3.14237346159774       -0.66172548534117
H            2.50949669527925        3.04003061879800       -1.55542933211227
H            2.79199060013416        3.00372082262948       -0.03871919243876
O            2.58147828025010        2.78919811823876       -3.43572562797569
H            2.20496679617415        1.93838714377939       -3.65029060456493
H            2.02850273097472        3.45748856060929       -3.85197388766901
O            1.30693378637455       -2.58311445157387        4.96982027354372
H            2.22056769153726       -2.83493160202680        4.89820230903000
H            0.91837758018266       -2.99957792721395        5.72381672595695
O            1.08462779490996       -3.67142707608827        2.05185130764271
H            0.26692633743567       -3.39212519887655        2.48620053543827
H            1.63848489709960       -3.99586254898817        2.78749070586324
O            2.56000637185663       -3.36563945678753       -0.36603444264572
H            1.93201258730381       -3.83704243749065        0.19708925396068
H            2.68590598806475       -2.51001467186825        0.05374102331397
34
 energy: -56.649949920591 gnorm: 0.102993237954 xtb: 6.7.1 (edcfbbe)
H            1.42361584610290       -0.63700080612552       -0.47153111371705
C            0.33943502624406       -0.63557293582025       -0.58702292930103
H            0.46953076869075        0.64050699547926       -2.21911772160564
H            0.04409454139096       -1.52816437134592       -1.13892997811916
N           -0.04697637047245        0.57586991046814       -1.33738727600589
H           -0.01808525282302       -1.47842694730673        1.37050914668601
C           -0.31078567334294       -0.60887154515943        0.78801373086284
O           -0.12483730863371        1.75710372591378        1.04270070858777
C            0.17796783488403        0.65881211439443        1.55558150695812
H            0.14599959435574        1.39903875835528       -0.69793444192214
O            0.65290959493161        0.49123221517279        2.69495039658490
H           -1.05740909286078        0.58071350596350       -1.51025551304385
H           -1.40005787750637       -0.58864793965327        0.70445625978657
O            2.36211949204360       -2.47901895238876       -3.05663248470670
H            2.05195150279392       -3.22173278132567       -3.58293287245382
H            2.59150689132636       -2.88836723238121       -2.18123965597629
O            3.65417808549415       -2.43825463078957        3.14090994209073
H            3.37944058792188       -2.82795044174351        2.30427806013529
H            3.15749617843563       -1.61929099108632        3.22060468856090
O            2.05440492216216        2.96690638902365       -0.69635016026543
H            2.49412303681562        3.06884711183282       -1.57148937505508
H            2.85776338873508        3.13445140923945       -0.02948932011825
O            2.58373362994036        2.79967034990010       -3.42497760558301
H            2.22675766951611        1.93364476826626       -3.69115788697898
H            2.03024265700396        3.46457862134630       -3.83938164833908
O            1.27035101581583       -2.62338738770045        4.92782775261573
H            2.23450684440461       -2.80821654143958        4.90660405522555
H            0.94695126184274       -3.01286335949507        5.76599688565593
O            1.09401082770308       -3.66892567769547        2.05987566747186
H            0.26678957286910       -3.39696033128975        2.47927156573474
H            1.63025742334428       -4.02541737241215        2.77132824337048
O            2.55788755320164       -3.36244167656879       -0.36095274194513
H            1.92357254532952       -3.82139613809417        0.20560440596315
H            2.69737128233776       -2.50456981553047        0.05794170884609
34