
                                 *****************
                                 * O   R   C   A *
                                 *****************

                                            #,                                       
                                            ###                                      
                                            ####                                     
                                            #####                                    
                                            ######                                   
                                           ########,                                 
                                     ,,################,,,,,                         
                               ,,#################################,,                 
                          ,,##########################################,,             
                       ,#########################################, ''#####,          
                    ,#############################################,,   '####,        
                  ,##################################################,,,,####,       
                ,###########''''           ''''###############################       
              ,#####''   ,,,,##########,,,,          '''####'''          '####       
            ,##' ,,,,###########################,,,                        '##       
           ' ,,###''''                  '''############,,,                           
         ,,##''                                '''############,,,,        ,,,,,,###''
      ,#''                                            '''#######################'''  
     '                                                          ''''####''''         
             ,#######,   #######,   ,#######,      ##                                
            ,#'     '#,  ##    ##  ,#'     '#,    #''#        ,####,   ,####,        
            ##       ##  ##   ,#'  ##            #'  '#       #'       #'  '#        
            ##       ##  #######   ##           ,######,      #####,   #    #        
            '#,     ,#'  ##    ##  '#,     ,#' ,#      #,     #,   #   #,  ,#        
             '#######'   ##     ##  '#######'  #'      '#     '####' # '####'        



                #########################################################
                #                        -***-                          #
                #          Department of theory and spectroscopy        #
                #                                                       #
                #                      Frank Neese                      #
                #                                                       #
                #     Directorship, Architecture, Infrastructure        #
                #                    SHARK, DRIVERS                     #
                #        Core code/Algorithms in most modules           #
                #                                                       #
                #        Max Planck Institute fuer Kohlenforschung      #
                #                Kaiser Wilhelm Platz 1                 #
                #                 D-45470 Muelheim/Ruhr                 #
                #                      Germany                          #
                #                                                       #
                #                  All rights reserved                  #
                #                        -***-                          #
                #########################################################


                         Program Version 6.0.1  -  RELEASE   -


 With contributions from (in alphabetic order):
[Max-Planck-Institut fuer Kohlenforschung]                               
  Daniel Aravena         : Magnetic Suceptibility                        
  Michael Atanasov       : Ab Initio Ligand Field Theory (pilot matlab implementation)
  Alexander A. Auer      : GIAO ZORA, VPT2 properties, NMR spectrum      
  Ute Becker             : All parallelization in ORCA, NUMFREQ, NUMCALC 
  Giovanni Bistoni       : ED, misc. LED, open-shell LED, HFLD           
  Martin Brehm           : Molecular dynamics                            
  Dmytro Bykov           : pre 5.0 version of the SCF Hessian            
  Marcos Casanova-Páez   : Triplet and SCS-CIS(D). UHF-(DLPNO)-IP/EA/STEOM-CCSD. UHF-CVS-IP/STEOM-CCSD   
  Vijay G. Chilkuri      : MRCI spin determinant printing, contributions to CSF-ICE 
  Pauline Colinet        : FMM embedding                                 
  Dipayan Datta          : RHF DLPNO-CCSD density                        
  Achintya Kumar Dutta   : EOM-CC, STEOM-CC                              
  Nicolas Foglia         : Exact transition moments, OPA infrastructure, MCD improvements    
  Dmitry Ganyushin       : Spin-Orbit,Spin-Spin,Magnetic field MRCI      
  Miquel Garcia-Rates    : C-PCM and meta-GGA Hessian, CCSD/C-PCM, Gaussian charge scheme 
  Tiago L. C. Gouveia    : GS-ROHF, GS-ROCIS                             
  Yang Guo               : DLPNO-NEVPT2, F12-NEVPT2, CIM, IAO-localization        
  Andreas Hansen         : Spin unrestricted coupled pair/coupled cluster methods 
  Ingolf Harden          : AUTO-CI MPn and infrastructure                
  Benjamin Helmich-Paris : MC-RPA, TRAH-(SCF,CASSCF), AVAS, COSX integrals, SCF dyn. polar. 
  Lee Huntington         : MR-EOM, pCC                                   
  Robert Izsak           : Overlap fitted RIJCOSX, COSX-SCS-MP3, EOM     
  Riya Kayal             : Wick's Theorem for AUTO-CI, AUTO-CI UHF-CCSDT 
  Emily Kempfer          : AUTO-CI, RHF CISDT and CCSDT                  
  Christian Kollmar      : KDIIS, OOCD, Brueckner-CCSD(T), CCSD density, CASPT2, CASPT2-K, improved NEVPT2 
  Axel Koslowski         : Symmetry handling                             
  Simone Kossmann        : meta-GGA functionals, TD-DFT gradient, OOMP2, (MP2 Hessian; deprecated post 5.0) 
  Lucas Lang             : DCDCAS                                        
  Marvin Lechner         : AUTO-CI (C++ implementation), FIC-MRCC        
  Spencer Leger          : CASSCF response                               
  Dagmar Lenk            : GEPOL surface, SMD, ORCA-2-JSON               
  Dimitrios Liakos       : Extrapolation schemes; Compound Job, initial MDCI parallelization 
  Dimitrios Manganas     : Further ROCIS development; embedding schemes. LFT, Crystal Embedding 
  Dimitrios Pantazis     : SARC Basis sets                               
  Anastasios Papadopoulos: AUTO-CI, single reference methods and gradients 
  Taras Petrenko         : pre 6.0 DFT Hessian and TD-DFT gradient, (ASA, deprecated), ECA, 1-Electron XAS/XES, NRVS 
  Peter Pinski           : DLPNO-MP2, DLPNO-MP2 Gradient                 
  Christoph Reimann      : Effective Core Potentials                     
  Marius Retegan         : Local ZFS, SOC                                
  Christoph Riplinger    : Optimizer, TS searches, QM/MM, DLPNO-CCSD(T), (RO)-DLPNO pert. Triples 
  Michael Roemelt        : Original ROCIS implementation                 
  Masaaki Saitow         : Open-shell DLPNO-CCSD energy and density      
  Barbara Sandhoefer     : DKH picture change effects                    
  Kantharuban Sivalingam : CASSCF convergence/infrastructure, NEVPT2 and variants, FIC-MRCI 
  Bernardo de Souza      : ESD, SOC TD-DFT                               
  Georgi L. Stoychev     : AutoAux, RI-MP2 NMR, DLPNO-MP2 response, X2C  
  Van Anh Tran           : RI-MP2 g-tensors                              
  Willem Van den Heuvel  : Paramagnetic NMR                              
  Zikuan Wang            : NOTCH, Electric field optimization            
  Frank Wennmohs         : Technical directorship and infrastructure     
  Hang Xu                : AUTO-CI-Response properties                   
                                                                         
[FACCTs GmbH]                                                            
  Markus Bursch, Miquel Garcia-Rates, Christoph Riplinger, Bernardo de Souza, Georgi L. Stoychev 
                                                                 
  APM, Basis sets (HGBS, AHGBS, def-TZVP (Ac-Lr), def2-XVPD (La-Lu)), CI-OPT, improved COSX, DLPNO-Multilevel,           
  DOCKER, DRACO, updates on ESD, GOAT, IRC, LR-CPCM, MBIS, meta-GGA TD-DFT gradient, ML-optimized integration grids, 
  MM, NACMEs, nearIR, NEB, NEB-TS, NL-DFT gradient (VV10), 2- and 3-layer-ONIOM, interface openCOSMO-RS, QMMM,   
  Crystal-QMMM, SF, symmetry and pop. for TD-DFT, r2SCAN hybrids, SOLVATOR                                   
                                                                         
[Other institutions]                                                     
  V. Asgeirsson          : NEB                                           
  Christoph Bannwarth    : sTDA-DFT, sTD-DFT, PBEh-3c, B97-3c, D3        
  Sebastian Ehlert       : rSCAN, r2SCAN, r2SCAN-3c, D4, dhf basis sets  
  Marvin Friede          : D4 for Fr, Ra, Ac-Lr                          
  Lars Goerigk           : TD-DFT with DH, B97 family of functionals     
  Stefan Grimme          : VdW corrections, initial TS optimization, DFT functionals, gCP, sTDA/sTD-DF 
  Waldemar Hujo          : DFT-NL                                        
  H. Jonsson             : NEB                                           
  Holger Kruse           : gCP                                           
  Marcel Mueller         : wB97X-3c, vDZP basis set                      
  Hagen Neugebauer       : wr2SCAN                                       
  Tobias Risthaus        : range-separated hybrid DFT                    
  Lukas Wittmann         : regularized MP2, r2SCAN double-hybrids, wr2SCAN        
                                                                         
We gratefully acknowledge several colleagues who have allowed us to      
interface, adapt or use parts of their codes:                            
  Ed Valeev, F. Pavosevic, A. Kumar             : LibInt (2-el integral package), F12 methods 
  Garnet Chan, S. Sharma, J. Yang, R. Olivares  : DMRG                   
  Ulf Ekstrom                                   : XCFun DFT Library      
  Mihaly Kallay                                 : mrcc  (arbitrary order and MRCC methods)
  Frank Weinhold                                : gennbo (NPA and NBO analysis)           
  Simon Mueller                                 : openCOSMO-RS                            
  Christopher J. Cramer and Donald G. Truhlar   : smd solvation model                     
  S Lehtola, MJT Oliveira, MAL Marques          : LibXC Library                           
  Liviu Ungur et al                             : ANISO software                          


 Your calculation uses the libint2 library for the computation of 2-el integrals
 For citations please refer to: http://libint.valeyev.net

 Your ORCA version has been built with support for libXC version: 6.2.2
 For citations please refer to: https://libxc.gitlab.io

 This ORCA versions uses:
   CBLAS   interface :  Fast vector & matrix operations
   LAPACKE interface :  Fast linear algebra routines
   SCALAPACK package :  Parallel linear algebra routines
   Shared memory     :  Shared parallel matrices
   BLAS/LAPACK       :  OpenBLAS 0.3.27  USE64BITINT DYNAMIC_ARCH NO_AFFINITY SkylakeX SINGLE_THREADED
        Core in use  :  SkylakeX
   Copyright (c) 2011-2014, The OpenBLAS Project


NOTE: MaxCore=5000 MB was set to SCF,MP2,MDCI,CIPSI,MRCI and CIS
      => If you want to overwrite this, your respective input block should be placed after the MaxCore statement
Your calculation utilizes the atom-pairwise dispersion correction
based on EEQ partial charges (D4)


Warning: RI is on but no J-basis has been assigned. Assigning Def2/J (nothing to worry about!)
================================================================================

----- Orbital basis set information -----
Your calculation utilizes the basis: def2-TZVP
   F. Weigend and R. Ahlrichs, Phys. Chem. Chem. Phys. 7, 3297 (2005).

----- AuxJ basis set information -----
Your calculation utilizes the auxiliary basis: def2/J
   F. Weigend, Phys. Chem. Chem. Phys. 8, 1057 (2006).

================================================================================
                                        WARNINGS
                       Please study these warnings very carefully!
================================================================================


================================================================================
                                       INPUT FILE
================================================================================
NAME = input.inp
|  1> ! SP B3LYP D4 def2-TZVP TightSCF CPCM(water)
|  2> 
|  3> %maxcore 5000
|  4> 
|  5> %pal
|  6> nprocs 25
|  7> end
|  8> 
|  9> %geom
| 10>     MaxIter 500
| 11> end
| 12> 
| 13> * xyz 0 1
| 14> N           -0.31960325539824       -0.94681026249429        1.36234241886486
| 15> C           -0.16658730068310        0.04583997419043        0.28654859265097
| 16> C           -1.29234441649034       -0.03521794453331       -0.73643092032189
| 17> C           -1.10664153276865       -1.13335016666784       -1.78254194209835
| 18> C           -1.31454641227141       -2.56052674866516       -1.34260667141777
| 19> O           -0.46977102236302       -3.41772932731210       -1.73442338516016
| 20> O           -2.31860677667986       -2.87803913934227       -0.64927053889645
| 21> H            0.27845050937342       -0.70858289178253        2.18304182808041
| 22> H           -1.30775138325262       -0.95754214761306        1.67196210172798
| 23> H           -0.18030756675209        1.03101055181071        0.74994141284260
| 24> H            0.79103414994558       -0.10521258608948       -0.20624864853040
| 25> H           -1.33808376967471        0.90438111968487       -1.27881503586844
| 26> H           -2.25069995763928       -0.16583518401512       -0.23969652223570
| 27> H           -0.12728199331148       -1.05689500344584       -2.25023311927781
| 28> H           -1.86354084137848       -0.99529193023267       -2.56107464616044
| 29> H           -0.08072909017748       -1.90590192649598        1.07417543234750
| 30> O           -3.70599685675903       -0.22573303912998       -3.37761703734378
| 31> H           -3.27754485142558        0.49323069065592       -3.87616793167523
| 32> H           -4.26468239479069        0.23827887496727       -2.71667178062796
| 33> O            1.91619982776936        1.35609674468875       -6.57557532133075
| 34> H            1.15063867066552        0.99279680181335       -6.05446487440183
| 35> H            1.94817707929540        0.85204708760347       -7.39011698501482
| 36> O            0.47248421962684        2.12715173510899        7.13952676837478
| 37> H           -0.21387181273070        2.56140824222250        6.55728458130226
| 38> H            0.32949180945091        2.48225653289025        8.01826770368447
| 39> O           -0.78310558873562        5.17275496106941       -3.20552481144014
| 40> H           -1.03395322993514        5.27841015136084       -4.12998026858805
| 41> H           -0.65722915005017        4.19243033720352       -3.11647729924357
| 42> O            1.10638843679237       -6.19628006556542       -3.80881254901862
| 43> H            1.30468835536148       -5.24424145978548       -3.92296432935297
| 44> H            1.73084140917744       -6.52243453333247       -3.15402702869518
| 45> O            2.56914668028276        4.99732388224336        4.09306775265406
| 46> H            2.89498318377828        4.61736651222942        3.25549906862391
| 47> H            2.73271260675819        4.31104205953297        4.77419676416838
| 48> O            3.78257486900207        1.39976492794916        0.95396675748806
| 49> H            4.57505727048382        1.13088023968573        0.48027961180767
| 50> H            3.10608040112480        1.56290989622057        0.25821537683857
| 51> O            2.55132010223060       -1.01637604591076        1.78006267861043
| 52> H            3.01895137430238       -0.21812338053637        1.48685194640381
| 53> H            2.36159627491709       -1.53354320231147        0.98419838180264
| 54> O            1.51314216763378        6.00874488820233       -2.21398393406754
| 55> H            0.61652223029614        5.76505476920931       -2.57149830323623
| 56> H            1.64682638269890        6.93387678686662       -2.42537469790770
| 57> O           -2.29050799412190       -3.25952808754266        3.60961721915894
| 58> H           -2.35131879414075       -3.96816005793948        2.95027840537597
| 59> H           -1.35418193126773       -3.22825879975086        3.87444968171843
| 60> O            4.58424293925754        0.44449029193427       -1.87832674987423
| 61> H            4.75518722829406        0.71976355621692       -2.78584710772291
| 62> H            3.76463466283005        0.93838969271275       -1.63534290845239
| 63> O           -1.50965929485098       -5.41940264082444       -3.22232641418105
| 64> H           -0.73246863330706       -5.92358133237511       -3.52138196622357
| 65> H           -1.12882688928323       -4.74256403409454       -2.62005078567703
| 66> O           -3.03061055032680       -1.47309511358559        1.67152676301673
| 67> H           -2.94063237028882       -2.08183112192475        2.43016648909981
| 68> H           -2.94764254976938       -2.01264400410930        0.86778235791061
| 69> O            0.25551939889547       -3.76214389841478        1.48805331936068
| 70> H            0.36537420911869       -3.52861486845371        2.44085878343483
| 71> H           -0.50558843082096       -4.35004272881894        1.44243699565181
| 72> O            1.72160492904805        0.03682068786652       -3.10316782916457
| 73> H            2.38692298893562        0.54421968061894       -3.61900979753827
| 74> H            2.17673731642834       -0.80351156709614       -2.91313276955459
| 75> O           -4.00309531038564       -4.45152965785908       -2.15784148949178
| 76> H           -3.47545711449124       -3.86409074688269       -1.58180816803211
| 77> H           -3.35446079504344       -5.02095018832002       -2.59687462964828
| 78> O           -0.15340147567957        2.56140049054926       -3.05126426762080
| 79> H            0.77675215344163        2.79027697149368       -3.21884430847054
| 80> H           -0.25995827377332        2.55330752134841       -2.08561884247485
| 81> O           -4.58402990586017        0.67850062888107        1.16247112218129
| 82> H           -4.08771925565599       -0.14488205660133        1.36026304703486
| 83> H           -5.37251589326538        0.65710426123195        1.70893564630803
| 84> O            2.29942184837278        1.86062827071009       -1.23098903743888
| 85> H            1.81068951663853        1.20960073169756       -1.77559947263610
| 86> H            2.37904241752316        2.64527073495131       -1.78763829383035
| 87> O           -0.05812119278177        0.34829888082485       -5.10311021590706
| 88> H           -0.15940504390428       -0.58340999584712       -5.39035845939659
| 89> H            0.43133120836977        0.29934222085017       -4.25170336237315
| 90> O            1.88569267252218       -2.74138440041081       -0.35912984896028
| 91> H            1.08579851152197       -2.89217246149161       -0.89097989165803
| 92> H            1.82076296283134       -3.40985017752676        0.33705412883046
| 93> O            3.21491982741940       -2.70963127880448        3.79887757929655
| 94> H            3.70130472325939       -2.20300623742440        4.45285358622747
| 95> H            3.01657166333749       -2.07941754920903        3.06657507869931
| 96> O            1.19179546456147        4.86903981290230        0.26942139524253
| 97> H            1.38332925196057        5.27138516706069       -0.59625222960792
| 98> H            2.05209745304955        4.68855098008463        0.69463716517177
| 99> O            3.51745488634973        4.10861915557503        1.56422996711703
|100> H            3.60256468568264        3.13995026069900        1.44691939340763
|101> H            4.38454448415668        4.48343381834635        1.40014191073086
|102> O           -2.78945552108097       -0.79825082951699        5.09889632160197
|103> H           -2.73550127346847       -1.68174045463816        4.71141488343071
|104> H           -2.02819893397573       -0.73890043776102        5.71185434368313
|105> O           -1.34706878980243        3.22578729359564        5.58803970203876
|106> H           -0.93227695015205        3.91223119657963        5.03396599924989
|107> H           -1.49157952006198        2.47631627589054        4.95852634203932
|108> O           -0.97570076615941        3.16310882097373       -0.50651346701276
|109> H           -0.39247242971387        3.88900192113755       -0.24551241100719
|110> H           -1.47048673550431        2.90480898465244        0.29346146137556
|111> O            1.39949301757435       -3.44837632413046       -3.77513659245638
|112> H            2.20813420583498       -3.01997410541076       -3.44755335257865
|113> H            0.73705984335637       -3.36756648779099       -3.05929381145961
|114> O           -0.07032325300596       -2.24214154247841       -5.78902286773525
|115> H            0.53582810525529       -2.68482672014569       -5.16441541700976
|116> H           -0.88543284829103       -2.77925142791730       -5.76682024428609
|117> O            2.81645999714729        2.86620684063430        5.77501854817561
|118> H            2.75209956429849        2.30381042328455        4.96869425388307
|119> H            2.03589001478476        2.61606403975753        6.30125010455575
|120> O           -2.33301439713712        1.73146161984149       -4.92360768863184
|121> H           -2.75120161384514        1.39537566564686       -5.72056687594714
|122> H           -1.45715966664983        1.27243020782308       -4.86843388609893
|123> O           -0.38067419003960       -0.48803762878353        6.43837597349195
|124> H            0.06519515380701       -0.49454560372452        5.56267229794418
|125> H           -0.12806390803125        0.37055088256773        6.81477127957422
|126> O            3.64054826023215        1.47154613186026       -4.39937223857395
|127> H            3.37918761788338        2.34889256744636       -4.06619517166557
|128> H            3.23896933937398        1.41103245695549       -5.28201929845110
|129> O            3.43331442492294       -1.99785883238566       -2.43654924661162
|130> H            3.06765602797900       -2.32392666353426       -1.59190790555600
|131> H            4.01552785869707       -1.24563448596359       -2.19791238788863
|132> O           -2.62737592924534        2.51767861453885        1.59281628671034
|133> H           -3.31394340982998        1.87230107946470        1.33502907245988
|134> H           -3.08733282499450        3.31620678595525        1.85897788765943
|135> O            2.36479109347486        3.71995163949366       -3.44489922852095
|136> H            2.04891215761283        3.89318348427124       -4.36169738532221
|137> H            2.24727654298053        4.56929084706092       -2.98358692336098
|138> O           -1.37771283255372        4.18044704953676       -5.76893544170601
|139> H           -1.69352144434077        3.34004419782198       -5.37054946376640
|140> H           -1.97411014994829        4.38563066331204       -6.49110039665499
|141> O           -2.25523306394192       -3.83212238104793       -5.40996577957154
|142> H           -3.09772473334700       -3.41556732097731       -5.12889168834287
|143> H           -2.02161745662792       -4.45062137594781       -4.69197847102864
|144> O            0.56027240374475       -0.25810069988041        3.87064228986097
|145> H            1.36244929992083        0.29727143152824        3.79527438367673
|146> H           -0.19745288033739        0.37448381914377        3.81199669868306
|147> O            0.48337108351986       -2.95332705649201        4.02560608124200
|148> H            1.43139962237642       -3.13193086255233        4.14606366229439
|149> H            0.44527923380086       -1.97201521775255        3.98744293377263
|150> O            1.40044289781606        4.00467992519418       -5.92915172100705
|151> H            1.57729365005177        3.11547578395840       -6.28595097040513
|152> H            0.42921749084395        4.07584657303907       -5.87649883951273
|153> O           -3.08180243533431        3.13549395906079       -2.29370466958596
|154> H           -2.33967255677296        3.23780078421905       -1.66058176234928
|155> H           -2.68761709020775        2.73637415310604       -3.07995738314432
|156> O           -2.34512435305250       -4.83068161101129        1.24588810145079
|157> H           -2.36917005446462       -4.18006911974559        0.50892216327704
|158> H           -2.90505956405479       -5.56117893346311        0.97696116726717
|159> O           -4.48479560340797       -2.71263487161157       -4.30291464479031
|160> H           -4.26865563469535       -1.81279258787999       -3.98534080952858
|161> H           -4.50436306351838       -3.27979450158029       -3.50933416155842
|162> O           -4.96175341429174        1.32823007520420       -1.55790802713813
|163> H           -4.34793379282911        2.07349099438824       -1.75512490553218
|164> H           -4.81100070217607        1.10039605613014       -0.62424554176102
|165> O            0.48996549757916        2.68415869425859        2.11052017291061
|166> H            0.13728964785800        3.34022571471104        2.73929356267855
|167> H            0.81324059257155        3.19889059444229        1.36152994556687
|168> O           -0.20309846977821        6.67254682846466        1.74136965514680
|169> H            0.34979461718396        7.45334859828502        1.81163026950921
|170> H            0.28807889298375        6.03489481038175        1.17118767348751
|171> O           -1.59574530605264        1.26267196372389        3.78572034888524
|172> H           -1.92253911651586        1.64384713557462        2.94671142721990
|173> H           -2.22679965713788        0.59114503409005        4.10383081910105
|174> O            2.46055046800509        1.57402929173750        3.45027590380989
|175> H            1.71971055878836        2.03671414783013        2.96419625598963
|176> H            3.12875510522821        1.41339040015405        2.77485454398808
|177> O           -0.08542817810842        4.79797123478840        3.74411097033365
|178> H            0.86772890450512        4.92647981545930        3.95885102904983
|179> H           -0.30602718853978        5.52250598192115        3.13279047521249
|180> *
|181> 
|182>                          ****END OF INPUT****
================================================================================

                       ****************************
                       * Single Point Calculation *
                       ****************************

---------------------------------
CARTESIAN COORDINATES (ANGSTROEM)
---------------------------------
  N     -0.319603   -0.946810    1.362342
  C     -0.166587    0.045840    0.286549
  C     -1.292344   -0.035218   -0.736431
  C     -1.106642   -1.133350   -1.782542
  C     -1.314546   -2.560527   -1.342607
  O     -0.469771   -3.417729   -1.734423
  O     -2.318607   -2.878039   -0.649271
  H      0.278451   -0.708583    2.183042
  H     -1.307751   -0.957542    1.671962
  H     -0.180308    1.031011    0.749941
  H      0.791034   -0.105213   -0.206249
  H     -1.338084    0.904381   -1.278815
  H     -2.250700   -0.165835   -0.239697
  H     -0.127282   -1.056895   -2.250233
  H     -1.863541   -0.995292   -2.561075
  H     -0.080729   -1.905902    1.074175
  O     -3.705997   -0.225733   -3.377617
  H     -3.277545    0.493231   -3.876168
  H     -4.264682    0.238279   -2.716672
  O      1.916200    1.356097   -6.575575
  H      1.150639    0.992797   -6.054465
  H      1.948177    0.852047   -7.390117
  O      0.472484    2.127152    7.139527
  H     -0.213872    2.561408    6.557285
  H      0.329492    2.482257    8.018268
  O     -0.783106    5.172755   -3.205525
  H     -1.033953    5.278410   -4.129980
  H     -0.657229    4.192430   -3.116477
  O      1.106388   -6.196280   -3.808813
  H      1.304688   -5.244241   -3.922964
  H      1.730841   -6.522435   -3.154027
  O      2.569147    4.997324    4.093068
  H      2.894983    4.617367    3.255499
  H      2.732713    4.311042    4.774197
  O      3.782575    1.399765    0.953967
  H      4.575057    1.130880    0.480280
  H      3.106080    1.562910    0.258215
  O      2.551320   -1.016376    1.780063
  H      3.018951   -0.218123    1.486852
  H      2.361596   -1.533543    0.984198
  O      1.513142    6.008745   -2.213984
  H      0.616522    5.765055   -2.571498
  H      1.646826    6.933877   -2.425375
  O     -2.290508   -3.259528    3.609617
  H     -2.351319   -3.968160    2.950278
  H     -1.354182   -3.228259    3.874450
  O      4.584243    0.444490   -1.878327
  H      4.755187    0.719764   -2.785847
  H      3.764635    0.938390   -1.635343
  O     -1.509659   -5.419403   -3.222326
  H     -0.732469   -5.923581   -3.521382
  H     -1.128827   -4.742564   -2.620051
  O     -3.030611   -1.473095    1.671527
  H     -2.940632   -2.081831    2.430166
  H     -2.947643   -2.012644    0.867782
  O      0.255519   -3.762144    1.488053
  H      0.365374   -3.528615    2.440859
  H     -0.505588   -4.350043    1.442437
  O      1.721605    0.036821   -3.103168
  H      2.386923    0.544220   -3.619010
  H      2.176737   -0.803512   -2.913133
  O     -4.003095   -4.451530   -2.157841
  H     -3.475457   -3.864091   -1.581808
  H     -3.354461   -5.020950   -2.596875
  O     -0.153401    2.561400   -3.051264
  H      0.776752    2.790277   -3.218844
  H     -0.259958    2.553308   -2.085619
  O     -4.584030    0.678501    1.162471
  H     -4.087719   -0.144882    1.360263
  H     -5.372516    0.657104    1.708936
  O      2.299422    1.860628   -1.230989
  H      1.810690    1.209601   -1.775599
  H      2.379042    2.645271   -1.787638
  O     -0.058121    0.348299   -5.103110
  H     -0.159405   -0.583410   -5.390358
  H      0.431331    0.299342   -4.251703
  O      1.885693   -2.741384   -0.359130
  H      1.085799   -2.892172   -0.890980
  H      1.820763   -3.409850    0.337054
  O      3.214920   -2.709631    3.798878
  H      3.701305   -2.203006    4.452854
  H      3.016572   -2.079418    3.066575
  O      1.191795    4.869040    0.269421
  H      1.383329    5.271385   -0.596252
  H      2.052097    4.688551    0.694637
  O      3.517455    4.108619    1.564230
  H      3.602565    3.139950    1.446919
  H      4.384544    4.483434    1.400142
  O     -2.789456   -0.798251    5.098896
  H     -2.735501   -1.681740    4.711415
  H     -2.028199   -0.738900    5.711854
  O     -1.347069    3.225787    5.588040
  H     -0.932277    3.912231    5.033966
  H     -1.491580    2.476316    4.958526
  O     -0.975701    3.163109   -0.506513
  H     -0.392472    3.889002   -0.245512
  H     -1.470487    2.904809    0.293461
  O      1.399493   -3.448376   -3.775137
  H      2.208134   -3.019974   -3.447553
  H      0.737060   -3.367566   -3.059294
  O     -0.070323   -2.242142   -5.789023
  H      0.535828   -2.684827   -5.164415
  H     -0.885433   -2.779251   -5.766820
  O      2.816460    2.866207    5.775019
  H      2.752100    2.303810    4.968694
  H      2.035890    2.616064    6.301250
  O     -2.333014    1.731462   -4.923608
  H     -2.751202    1.395376   -5.720567
  H     -1.457160    1.272430   -4.868434
  O     -0.380674   -0.488038    6.438376
  H      0.065195   -0.494546    5.562672
  H     -0.128064    0.370551    6.814771
  O      3.640548    1.471546   -4.399372
  H      3.379188    2.348893   -4.066195
  H      3.238969    1.411032   -5.282019
  O      3.433314   -1.997859   -2.436549
  H      3.067656   -2.323927   -1.591908
  H      4.015528   -1.245634   -2.197912
  O     -2.627376    2.517679    1.592816
  H     -3.313943    1.872301    1.335029
  H     -3.087333    3.316207    1.858978
  O      2.364791    3.719952   -3.444899
  H      2.048912    3.893183   -4.361697
  H      2.247277    4.569291   -2.983587
  O     -1.377713    4.180447   -5.768935
  H     -1.693521    3.340044   -5.370549
  H     -1.974110    4.385631   -6.491100
  O     -2.255233   -3.832122   -5.409966
  H     -3.097725   -3.415567   -5.128892
  H     -2.021617   -4.450621   -4.691978
  O      0.560272   -0.258101    3.870642
  H      1.362449    0.297271    3.795274
  H     -0.197453    0.374484    3.811997
  O      0.483371   -2.953327    4.025606
  H      1.431400   -3.131931    4.146064
  H      0.445279   -1.972015    3.987443
  O      1.400443    4.004680   -5.929152
  H      1.577294    3.115476   -6.285951
  H      0.429217    4.075847   -5.876499
  O     -3.081802    3.135494   -2.293705
  H     -2.339673    3.237801   -1.660582
  H     -2.687617    2.736374   -3.079957
  O     -2.345124   -4.830682    1.245888
  H     -2.369170   -4.180069    0.508922
  H     -2.905060   -5.561179    0.976961
  O     -4.484796   -2.712635   -4.302915
  H     -4.268656   -1.812793   -3.985341
  H     -4.504363   -3.279795   -3.509334
  O     -4.961753    1.328230   -1.557908
  H     -4.347934    2.073491   -1.755125
  H     -4.811001    1.100396   -0.624246
  O      0.489965    2.684159    2.110520
  H      0.137290    3.340226    2.739294
  H      0.813241    3.198891    1.361530
  O     -0.203098    6.672547    1.741370
  H      0.349795    7.453349    1.811630
  H      0.288079    6.034895    1.171188
  O     -1.595745    1.262672    3.785720
  H     -1.922539    1.643847    2.946711
  H     -2.226800    0.591145    4.103831
  O      2.460550    1.574029    3.450276
  H      1.719711    2.036714    2.964196
  H      3.128755    1.413390    2.774855
  O     -0.085428    4.797971    3.744111
  H      0.867729    4.926480    3.958851
  H     -0.306027    5.522506    3.132790

----------------------------
CARTESIAN COORDINATES (A.U.)
----------------------------
  NO LB      ZA    FRAG     MASS         X           Y           Z
   0 N     7.0000    0    14.007   -0.603963   -1.789212    2.574454
   1 C     6.0000    0    12.011   -0.314804    0.086625    0.541498
   2 C     6.0000    0    12.011   -2.442177   -0.066552   -1.391653
   3 C     6.0000    0    12.011   -2.091249   -2.141721   -3.368516
   4 C     6.0000    0    12.011   -2.484133   -4.838694   -2.537159
   5 O     8.0000    0    15.999   -0.887739   -6.458572   -3.277585
   6 O     8.0000    0    15.999   -4.381532   -5.438706   -1.226944
   7 H     1.0000    0     1.008    0.526195   -1.339028    4.125351
   8 H     1.0000    0     1.008   -2.471292   -1.809492    3.159550
   9 H     1.0000    0     1.008   -0.340732    1.948328    1.417184
  10 H     1.0000    0     1.008    1.494838   -0.198823   -0.389753
  11 H     1.0000    0     1.008   -2.528612    1.709033   -2.416610
  12 H     1.0000    0     1.008   -4.253207   -0.313383   -0.452961
  13 H     1.0000    0     1.008   -0.240528   -1.997242   -4.252324
  14 H     1.0000    0     1.008   -3.521582   -1.880829   -4.839730
  15 H     1.0000    0     1.008   -0.152556   -3.601633    2.029897
  16 O     8.0000    0    15.999   -7.003319   -0.426574   -6.382771
  17 H     1.0000    0     1.008   -6.193662    0.932071   -7.324896
  18 H     1.0000    0     1.008   -8.059082    0.450282   -5.133766
  19 O     8.0000    0    15.999    3.621093    2.562651  -12.426037
  20 H     1.0000    0     1.008    2.174392    1.876114  -11.441281
  21 H     1.0000    0     1.008    3.681521    1.610136  -13.965297
  22 O     8.0000    0    15.999    0.892866    4.019734   13.491750
  23 H     1.0000    0     1.008   -0.404159    4.840360   12.391472
  24 H     1.0000    0     1.008    0.622649    4.690785   15.152330
  25 O     8.0000    0    15.999   -1.479855    9.775090   -6.057564
  26 H     1.0000    0     1.008   -1.953888    9.974750   -7.804532
  27 H     1.0000    0     1.008   -1.241983    7.922545   -5.889289
  28 O     8.0000    0    15.999    2.090771  -11.709272   -7.197613
  29 H     1.0000    0     1.008    2.465504   -9.910180   -7.413328
  30 H     1.0000    0     1.008    3.270816  -12.325615   -5.960247
  31 O     8.0000    0    15.999    4.854984    9.443574    7.734777
  32 H     1.0000    0     1.008    5.470725    8.725558    6.152002
  33 H     1.0000    0     1.008    5.164078    8.146689    9.021924
  34 O     8.0000    0    15.999    7.148031    2.645172    1.802736
  35 H     1.0000    0     1.008    8.645605    2.137054    0.907597
  36 H     1.0000    0     1.008    5.869641    2.953472    0.487956
  37 O     8.0000    0    15.999    4.821296   -1.920672    3.363831
  38 H     1.0000    0     1.008    5.704991   -0.412193    2.809743
  39 H     1.0000    0     1.008    4.462770   -2.897977    1.859865
  40 O     8.0000    0    15.999    2.859424   11.354882   -4.183823
  41 H     1.0000    0     1.008    1.165058   10.894375   -4.859428
  42 H     1.0000    0     1.008    3.112051   13.103128   -4.583294
  43 O     8.0000    0    15.999   -4.328433   -6.159615    6.821188
  44 H     1.0000    0     1.008   -4.443349   -7.498736    5.575218
  45 H     1.0000    0     1.008   -2.559033   -6.100525    7.321649
  46 O     8.0000    0    15.999    8.662964    0.839965   -3.549523
  47 H     1.0000    0     1.008    8.986002    1.360156   -5.264488
  48 H     1.0000    0     1.008    7.114129    1.773300   -3.090350
  49 O     8.0000    0    15.999   -2.852843  -10.241187   -6.089314
  50 H     1.0000    0     1.008   -1.384165  -11.193946   -6.654448
  51 H     1.0000    0     1.008   -2.133174   -8.962147   -4.951178
  52 O     8.0000    0    15.999   -5.727024   -2.783746    3.158728
  53 H     1.0000    0     1.008   -5.556990   -3.934091    4.592349
  54 H     1.0000    0     1.008   -5.570237   -3.803346    1.639871
  55 O     8.0000    0    15.999    0.482862   -7.109422    2.812013
  56 H     1.0000    0     1.008    0.690457   -6.668116    4.612555
  57 H     1.0000    0     1.008   -0.955424   -8.220389    2.725811
  58 O     8.0000    0    15.999    3.253362    0.069581   -5.864137
  59 H     1.0000    0     1.008    4.510631    1.028426   -6.838937
  60 H     1.0000    0     1.008    4.113437   -1.518417   -5.505023
  61 O     8.0000    0    15.999   -7.564754   -8.412172   -4.077729
  62 H     1.0000    0     1.008   -6.567662   -7.302073   -2.989184
  63 H     1.0000    0     1.008   -6.339012   -9.488221   -4.907382
  64 O     8.0000    0    15.999   -0.289887    4.840345   -5.766054
  65 H     1.0000    0     1.008    1.467849    5.272859   -6.082734
  66 H     1.0000    0     1.008   -0.491250    4.825052   -3.941248
  67 O     8.0000    0    15.999   -8.662561    1.282180    2.196752
  68 H     1.0000    0     1.008   -7.724670   -0.273787    2.570525
  69 H     1.0000    0     1.008  -10.152584    1.241747    3.229420
  70 O     8.0000    0    15.999    4.345278    3.516078   -2.326232
  71 H     1.0000    0     1.008    3.421707    2.285814   -3.355397
  72 H     1.0000    0     1.008    4.495739    4.998837   -3.378147
  73 O     8.0000    0    15.999   -0.109833    0.658189   -9.643481
  74 H     1.0000    0     1.008   -0.301232   -1.102485  -10.186301
  75 H     1.0000    0     1.008    0.815098    0.565675   -8.034555
  76 O     8.0000    0    15.999    3.563443   -5.180466   -0.678657
  77 H     1.0000    0     1.008    2.051862   -5.465414   -1.683708
  78 H     1.0000    0     1.008    3.440743   -6.443683    0.636940
  79 O     8.0000    0    15.999    6.075318   -5.120461    7.178838
  80 H     1.0000    0     1.008    6.994452   -4.163078    8.414674
  81 H     1.0000    0     1.008    5.700494   -3.929530    5.794987
  82 O     8.0000    0    15.999    2.252167    9.201152    0.509133
  83 H     1.0000    0     1.008    2.614113    9.961474   -1.126753
  84 H     1.0000    0     1.008    3.877902    8.860077    1.312674
  85 O     8.0000    0    15.999    6.647026    7.764165    2.955966
  86 H     1.0000    0     1.008    6.807861    5.933646    2.734281
  87 H     1.0000    0     1.008    8.285588    8.472462    2.645885
  88 O     8.0000    0    15.999   -5.271307   -1.508475    9.635518
  89 H     1.0000    0     1.008   -5.169348   -3.178029    8.903284
  90 H     1.0000    0     1.008   -3.832741   -1.396319   10.793840
  91 O     8.0000    0    15.999   -2.545591    6.095855   10.559865
  92 H     1.0000    0     1.008   -1.761748    7.393046    9.512817
  93 H     1.0000    0     1.008   -2.818677    4.679560    9.370257
  94 O     8.0000    0    15.999   -1.843807    5.977409   -0.957172
  95 H     1.0000    0     1.008   -0.741665    7.349149   -0.463951
  96 H     1.0000    0     1.008   -2.778817    5.489293    0.554562
  97 O     8.0000    0    15.999    2.644659   -6.516487   -7.133974
  98 H     1.0000    0     1.008    4.172769   -5.706924   -6.514932
  99 H     1.0000    0     1.008    1.392841   -6.363778   -5.781227
 100 O     8.0000    0    15.999   -0.132892   -4.237033  -10.939668
 101 H     1.0000    0     1.008    1.012568   -5.073587   -9.759331
 102 H     1.0000    0     1.008   -1.673226   -5.252024  -10.897711
 103 O     8.0000    0    15.999    5.322338    5.416346   10.913203
 104 H     1.0000    0     1.008    5.200714    4.353571    9.389471
 105 H     1.0000    0     1.008    3.847275    4.943645   11.907637
 106 O     8.0000    0    15.999   -4.408758    3.271988   -9.304270
 107 H     1.0000    0     1.008   -5.199018    2.636878  -10.810305
 108 H     1.0000    0     1.008   -2.753633    2.404545   -9.200007
 109 O     8.0000    0    15.999   -0.719370   -0.922257   12.166767
 110 H     1.0000    0     1.008    0.123201   -0.934556   10.511927
 111 H     1.0000    0     1.008   -0.242006    0.700240   12.878051
 112 O     8.0000    0    15.999    6.879639    2.780819   -8.313609
 113 H     1.0000    0     1.008    6.385739    4.438764   -7.683995
 114 H     1.0000    0     1.008    6.120765    2.666465   -9.981570
 115 O     8.0000    0    15.999    6.488024   -3.775406   -4.604411
 116 H     1.0000    0     1.008    5.797030   -4.391585   -3.008270
 117 H     1.0000    0     1.008    7.588248   -2.353908   -4.153452
 118 O     8.0000    0    15.999   -4.965021    4.757723    3.009987
 119 H     1.0000    0     1.008   -6.262445    3.538136    2.522839
 120 H     1.0000    0     1.008   -5.834214    6.266723    3.512959
 121 O     8.0000    0    15.999    4.468808    7.029690   -6.509916
 122 H     1.0000    0     1.008    3.871883    7.357051   -8.242414
 123 H     1.0000    0     1.008    4.246737    8.634708   -5.638162
 124 O     8.0000    0    15.999   -2.603500    7.899900  -10.901708
 125 H     1.0000    0     1.008   -3.200292    6.311769  -10.148868
 126 H     1.0000    0     1.008   -3.730528    8.287641  -12.266402
 127 O     8.0000    0    15.999   -4.261773   -7.241662  -10.223354
 128 H     1.0000    0     1.008   -5.853851   -6.454487   -9.692201
 129 H     1.0000    0     1.008   -3.820303   -8.410456   -8.866554
 130 O     8.0000    0    15.999    1.058761   -0.487740    7.314454
 131 H     1.0000    0     1.008    2.574656    0.561762    7.172029
 132 H     1.0000    0     1.008   -0.373132    0.707672    7.203630
 133 O     8.0000    0    15.999    0.913439   -5.580979    7.607293
 134 H     1.0000    0     1.008    2.704953   -5.918492    7.834925
 135 H     1.0000    0     1.008    0.841456   -3.726569    7.535175
 136 O     8.0000    0    15.999    2.646454    7.567748  -11.204473
 137 H     1.0000    0     1.008    2.980653    5.887396  -11.878726
 138 H     1.0000    0     1.008    0.811104    7.702234  -11.104973
 139 O     8.0000    0    15.999   -5.823763    5.925225   -4.334474
 140 H     1.0000    0     1.008   -4.421340    6.118557   -3.138045
 141 H     1.0000    0     1.008   -5.078860    5.170998   -5.820276
 142 O     8.0000    0    15.999   -4.431643   -9.128665    2.354387
 143 H     1.0000    0     1.008   -4.477083   -7.899186    0.961724
 144 H     1.0000    0     1.008   -5.489767  -10.509105    1.846189
 145 O     8.0000    0    15.999   -8.475035   -5.126137   -8.131330
 146 H     1.0000    0     1.008   -8.066590   -3.425682   -7.531203
 147 H     1.0000    0     1.008   -8.512013   -6.197913   -6.631680
 148 O     8.0000    0    15.999   -9.376355    2.509991   -2.944020
 149 H     1.0000    0     1.008   -8.216404    3.918330   -3.316705
 150 H     1.0000    0     1.008   -9.091474    2.079447   -1.179653
 151 O     8.0000    0    15.999    0.925901    5.072325    3.988305
 152 H     1.0000    0     1.008    0.259440    6.312112    5.176515
 153 H     1.0000    0     1.008    1.536802    6.045027    2.572919
 154 O     8.0000    0    15.999   -0.383800   12.609286    3.290712
 155 H     1.0000    0     1.008    0.661016   14.084788    3.423485
 156 H     1.0000    0     1.008    0.544390   11.404298    2.213224
 157 O     8.0000    0    15.999   -3.015522    2.386104    7.153975
 158 H     1.0000    0     1.008   -3.633072    3.106421    5.568478
 159 H     1.0000    0     1.008   -4.208042    1.117102    7.755116
 160 O     8.0000    0    15.999    4.649767    2.974484    6.520077
 161 H     1.0000    0     1.008    3.249782    3.848832    5.601519
 162 H     1.0000    0     1.008    5.912490    2.670921    5.243715
 163 O     8.0000    0    15.999   -0.161436    9.066852    7.075344
 164 H     1.0000    0     1.008    1.639770    9.309698    7.481144
 165 H     1.0000    0     1.008   -0.578308   10.436024    5.920116

--------------------------------
INTERNAL COORDINATES (ANGSTROEM)
--------------------------------
 N      0   0   0     0.000000000000     0.00000000     0.00000000
 C      1   0   0     1.471767893150     0.00000000     0.00000000
 C      2   1   0     1.523281508435   112.21950185     0.00000000
 C      3   2   1     1.527981743410   114.09185749   278.57538358
 C      4   3   2     1.507846304340   117.62757785    73.25962000
 O      5   4   3     1.265686397731   117.30195767   223.91915033
 O      5   4   3     1.260819704109   120.57088385    46.18435570
 H      1   2   3     1.043057096232   111.19085433   196.50084390
 H      1   2   3     1.035575320272   108.94972589   315.80463894
 H      2   1   3     1.088798520625   107.32937354   119.65855580
 H      2   1   3     1.087522339811   109.21363513   237.97970673
 H      3   2   1     1.085872468896   108.69468766   159.83033017
 H      3   2   1     1.087313785778   110.54693978    42.47993852
 H      4   3   2     1.087991515004   110.68310114   307.88674676
 H      4   3   2     1.094563753884   108.19622097   189.82156372
 H      1   2   3     1.029542567787   113.55275272    75.17192050
 O     15   4   3     2.157221947804   154.80054753   341.50543876
 H     17  15   4     0.974183227047    94.66642719   100.77674549
 H     17  15   4     0.981980253979   113.56072269   353.03073086
 O     14   4   3     5.357885057979   136.21892442   268.19610953
 H     20  14   4     0.994799895284    28.25311697   339.90777584
 H     20  14   4     0.958418866311   117.51414300   267.67672043
 O      8   1   2     5.713648826996   144.62474175    90.11437935
 H     23   8   1     0.999334419267    71.75530895   334.84944721
 H     23   8   1     0.958505022503   166.93072854    55.66697722
 O     12   3   2     4.715848448627   169.20514400     8.16143880
 H     26  12   3     0.963693649757   117.42100480   142.90641169
 H     26  12   3     0.992376292241    23.67268999    85.95724451
 O      6   5   4     3.808899217473   159.85884475   261.75576642
 H     29   6   5     0.979148095823    55.80625281    98.15009139
 H     29   6   5     0.961801605941    98.35309336   202.00404795
 O     24  23   8     4.444236887965    97.53563447   278.96031240
 H     32  24  23     0.975734764424   118.14077149    92.60341071
 H     32  24  23     0.980649418912    48.37505681     6.54289841
 O     11   2   1     3.544061650127   122.40833717   272.98396027
 H     35  11   2     0.961616786575   114.55936049   175.01559492
 H     35  11   2     0.984038123965    42.15344119   260.92861418
 O      8   1   2     2.328747518897   113.15784864   289.13278847
 H     38   8   1     0.970494130780   114.44720012    94.36209364
 H     38   8   1     0.967913724070    91.23750033   345.48601388
 O     26  12   3     2.637192869018   103.63747017     2.87110619
 H     41  26  12     0.995554473793     4.58312218   225.73295796
 H     41  26  12     0.958345738406   110.15371440   189.78062195
 O      9   1   2     3.165352615104   119.13124093   169.42737121
 H     44   9   1     0.969837560743    97.74012890   283.45679265
 H     44   9   1     0.973560731318    81.05778942    28.11940787
 O     36  35  11     2.456468910093   123.65445387    29.31078768
 H     47  36  35     0.963634017609   145.59794491    98.92656509
 H     47  36  35     0.987286935024    67.71615373    17.36598341
 O      6   5   4     2.702206338727   114.53758838   240.09224301
 H     50   6   5     0.973476091444   104.21541327   173.84424045
 H     50   6   5     0.982791815890     4.65116780   257.13570934
 O      9   1   2     1.798343337579   156.49836658    89.23762096
 H     53   9   1     0.976826409718    95.17622946    99.86315435
 H     53   9   1     0.971597531451    94.45016360   352.54702036
 O     16   1   2     1.931318774847   151.13637100   170.80950882
 H     56  16   1     0.987138358860    89.93379998   343.86609590
 H     56  16   1     0.962803724668   116.04590482    91.86717026
 O     14   4   3     2.311297143256   155.77625880   324.45107261
 H     59  14   4     0.982952081739   168.34196743   285.38699056
 H     59  14   4     0.974380373701    83.89057683   156.13020976
 O      7   5   4     2.754843070853   109.24737420   111.46768459
 H     62   7   5     0.977394969973     5.05017519   211.05239427
 H     62   7   5     0.968357667992   100.05314051    41.87398119
 O     28  26  12     1.708318888742   169.73602594   218.29776977
 H     65  28  26     0.972447061484    92.91232379     6.98072986
 H     65  28  26     0.971540495541    90.77628932   113.19473289
 O     53   9   1     2.702149806841   108.81578307   240.09241216
 H     68  53   9     0.981531942321     4.71986964   186.07343783
 H     68  53   9     0.959578778950   110.32483164   219.85152729
 O     37  35  11     1.719611595315   164.47052833   232.91867587
 H     71  37  35     0.979436917193   126.90830026   102.78455353
 H     71  37  35     0.965329801862   126.97113905   295.97747716
 O     21  20  14     1.667799047811   176.10115003   356.55955515
 H     74  21  20     0.980230280473   105.96419670   271.11086812
 H     74  21  20     0.983287362775    98.76558482    19.50002978
 O     40  38   8     1.868126155848   170.62877639   291.64863813
 H     77  40  38     0.972333366744   134.68111937    90.04481859
 H     77  40  38     0.967333703180    86.92613489   344.22389526
 O     38   8   1     2.717184477032   101.07876515   235.83350133
 H     80  38   8     0.959647756782   107.52473434   254.56198439
 H     80  38   8     0.986295235488     2.63166861   208.21416592
 O     41  26  12     2.751271231974    96.10564817   324.08050895
 H     83  41  26     0.973631244615     4.64587195   156.76376414
 H     83  41  26     0.976475386871   111.51395018   154.25858743
 O     85  83  41     1.799940268343   170.81992180   220.75257452
 H     86  85  83     0.979451314026   109.36144863    37.08249526
 H     86  85  83     0.958778020348   121.84489916   162.32520970
 O     44   9   1     2.919723723318    75.65509221   120.33718177
 H     89  44   9     0.966233327649     9.97350124   160.46245536
 H     89  44   9     0.979158617001   103.74179980   260.42134703
 O     24  23   8     1.632473751313   178.24592359    35.36772243
 H     92  24  23     0.974810325297   109.18888710   235.47270912
 H     92  24  23     0.989382245625    99.83839985   343.63688948
 O     67  65  28     1.837857101966   153.37339495    23.50223346
 H     95  67  65     0.967056170310   104.24555825   273.18371452
 H     95  67  65     0.975444435606   144.52120640   123.88072343
 O     30  29   6     1.804431364512   165.64699377     4.36239218
 H     98  30  29     0.971977268975   120.66267728   107.37687223
 H     98  30  29     0.978661753140    96.11594117   354.35039561
 O     75  74  21     1.708291315829   170.37521304    65.42416973
 H    101  75  74     0.976485587784   108.86190006    28.21609123
 H    101  75  74     0.976413661237   119.03128043   148.01345532
 O     34  32  24     1.759604125510   167.85771541    56.73861606
 H    104  34  32     0.985185699820    90.00638598    31.16801370
 H    104  34  32     0.974053678770   118.68589648   285.06859477
 O     18  17  15     1.876828084168   173.64266491    54.50481097
 H    107  18  17     0.960717577164    90.75070803    69.86609184
 H    107  18  17     0.990391586506    96.21068788   324.07938678
 O     91  89  44     1.817994392013   164.38501606    75.94871147
 H    110  91  89     0.982699726716    93.10373862   343.45196939
 H    110  91  89     0.970906593263   120.84614097    91.17931800
 O     60  59  61     1.743696133902   174.87879250   283.54227397
 H    113  60  59     0.974193569738    97.64341443   288.90433526
 H    113  60  59     0.971593210576    94.37505723   183.28685480
 O     61  59  14     1.797938617984   161.99913905   216.14651734
 H    116  61  59     0.976445230817   100.91756883   109.57303035
 H    116  61  59     0.980694396924    88.27456921     4.07406527
 O     97  95  67     1.782297812426   169.95063648   267.01477428
 H    119  97  95     0.976903944104   114.03558614    57.32348893
 H    119  97  95     0.959192151924   109.43452728   298.00581760
 O    114 113  60     1.815161683361   161.30494223   331.52519270
 H    122 114 113     0.985041945544    89.62618659   282.19680952
 H    122 114 113     0.973650759760   152.68791480   160.20849777
 O     27  26  12     2.002465404657   140.32826401   341.24039453
 H    125  27  26     0.982203349550   101.09106949    29.12161577
 H    125  27  26     0.958807748046   127.29414962   150.38587992
 O    103 101  75     1.764152766551   168.83954187   264.67931376
 H    128 103 101     0.980975522553   118.12403489    99.24160391
 H    128 103 101     0.976024094939   109.94691318   338.42599477
 O      8   1   2     1.769280391563   154.15522646   116.85345718
 H    131   8   1     0.978573603970   101.63124587   213.12579685
 H    131   8   1     0.988812462103    89.09783491   318.36074207
 O     57  56  16     1.690060154807   173.39939490    10.79131962
 H    134  57  56     0.972197232489    96.99193900   236.04301204
 H    134  57  56     0.982792114178   107.50352369   342.15218397
 O    123 122 114     1.699957920567   172.76352902    68.38011368
 H    137 123 122     0.974302775182   102.03828599   313.48281030
 H    137 123 122     0.975251664363   109.56599406    64.93199189
 O     95  67  65     2.762332205955    74.79413241    41.30521891
 H    140  95  67     0.980850681192     5.41637899   248.46441206
 H    140  95  67     0.965853009208   102.68811229     4.97327300
 O     45  44   9     1.910216770089   159.44051383   352.39829565
 H    143  45  44     0.983358329184   111.70718469   347.62879594
 H    143  45  44     0.958892837891   126.32217126   215.85883722
 O    129 128 103     1.760771905563   168.66216369   267.97812972
 H    146 129 128     0.978409813171   110.20605514    75.93220767
 H    146 129 128     0.975614121837    99.51425188   324.90104914
 O     19  17  15     1.736846297612   166.88662787    68.80763219
 H    149  19  17     0.985435366972    95.22595825    12.66515220
 H    149  19  17     0.972810545306   115.54057327   262.35081774
 O     10   2   1     2.243510491171   157.08258327    59.33337378
 H    152  10   2     0.974761594433   141.17315751   225.69245629
 H    152  10   2     0.964594254993    91.28552287   109.11415214
 O     83  41  26     2.713853040066   105.92149294   273.72528588
 H    155  83  41     0.959311588221   106.52203583   296.84897840
 H    155  83  41     0.986388762134     2.46925266    23.21513749
 O    133 131   8     1.656740877308   172.16592929    91.06445750
 H    158 133 131     0.977765144003   120.31100473   241.34668986
 H    158 133 131     0.974870392672    99.89688426     0.85851264
 O    105 104  34     1.709729704179   169.01321133   328.71685945
 H    161 105 104     0.999597154443   111.14152795   345.23422800
 H    161 105 104     0.963585130645   125.12912282   112.11471593
 O     93  92  24     1.779161109517   164.83537018    86.61321900
 H    164  93  92     0.985462415448   111.55045470   264.10166624
 H    164  93  92     0.973307387705   135.89486608   120.24100505

---------------------------
INTERNAL COORDINATES (A.U.)
---------------------------
 N      0   0   0     0.000000000000     0.00000000     0.00000000
 C      1   0   0     2.781238250752     0.00000000     0.00000000
 C      2   1   0     2.878584875809   112.21950185     0.00000000
 C      3   2   1     2.887467032677   114.09185749   278.57538358
 C      4   3   2     2.849416567248   117.62757785    73.25962000
 O      5   4   3     2.391800663141   117.30195767   223.91915033
 O      5   4   3     2.382603945017   120.57088385    46.18435570
 H      1   2   3     1.971092253922   111.19085433   196.50084390
 H      1   2   3     1.956953746362   108.94972589   315.80463894
 H      2   1   3     2.057531019000   107.32937354   119.65855580
 H      2   1   3     2.055119386763   109.21363513   237.97970673
 H      3   2   1     2.052001582579   108.69468766   159.83033017
 H      3   2   1     2.054725276757   110.54693978    42.47993852
 H      4   3   2     2.056005999388   110.68310114   307.88674676
 H      4   3   2     2.068425730957   108.19622097   189.82156372
 H      1   2   3     1.945553496332   113.55275272    75.17192050
 O     15   4   3     4.076558691433   154.80054753   341.50543876
 H     17  15   4     1.840939503379    94.66642719   100.77674549
 H     17  15   4     1.855673748939   113.56072269   353.03073086
 O     14   4   3    10.124935416609   136.21892442   268.19610953
 H     20  14   4     1.879899360141    28.25311697   339.90777584
 H     20  14   4     1.811149178910   117.51414300   267.67672043
 O      8   1   2    10.797231508423   144.62474175    90.11437935
 H     23   8   1     1.888468368615    71.75530895   334.84944721
 H     23   8   1     1.811311990519   166.93072854    55.66697722
 O     12   3   2     8.911662056982   169.20514400     8.16143880
 H     26  12   3     1.821117075039   117.42100480   142.90641169
 H     26  12   3     1.875319414132    23.67268999    85.95724451
 O      6   5   4     7.197776392731   159.85884475   261.75576642
 H     29   6   5     1.850321745656    55.80625281    98.15009139
 H     29   6   5     1.817541630394    98.35309336   202.00404795
 O     24  23   8     8.398390592524    97.53563447   278.96031240
 H     32  24  23     1.843871484108   118.14077149    92.60341071
 H     32  24  23     1.853158835133    48.37505681     6.54289841
 O     11   2   1     6.697305920472   122.40833717   272.98396027
 H     35  11   2     1.817192372409   114.55936049   175.01559492
 H     35  11   2     1.859562559631    42.15344119   260.92861418
 O      8   1   2     4.400695045765   113.15784864   289.13278847
 H     38   8   1     1.833968121752   114.44720012    94.36209364
 H     38   8   1     1.829091859756    91.23750033   345.48601388
 O     26  12   3     4.983572284774   103.63747017     2.87110619
 H     41  26  12     1.881325306868     4.58312218   225.73295796
 H     41  26  12     1.811010987198   110.15371440   189.78062195
 O      9   1   2     5.981649559838   119.13124093   169.42737121
 H     44   9   1     1.832727384195    97.74012890   283.45679265
 H     44   9   1     1.839763156931    81.05778942    28.11940787
 O     36  35  11     4.642053496567   123.65445387    29.31078768
 H     47  36  35     1.821004386611   145.59794491    98.92656509
 H     47  36  35     1.865701922795    67.71615373    17.36598341
 O      6   5   4     5.106429937540   114.53758838   240.09224301
 H     50   6   5     1.839603210748   104.21541327   173.84424045
 H     50   6   5     1.857207378691     4.65116780   257.13570934
 O      9   1   2     3.398376402786   156.49836658    89.23762096
 H     53   9   1     1.845934394749    95.17622946    99.86315435
 H     53   9   1     1.836053246836    94.45016360   352.54702036
 O     16   1   2     3.649663561761   151.13637100   170.80950882
 H     56  16   1     1.865421154534    89.93379998   343.86609590
 H     56  16   1     1.819435360342   116.04590482    91.86717026
 O     14   4   3     4.367718614869   155.77625880   324.45107261
 H     59  14   4     1.857510237254   168.34196743   285.38699056
 H     59  14   4     1.841312056563    83.89057683   156.13020976
 O      7   5   4     5.205898945843   109.24737420   111.46768459
 H     62   7   5     1.847008817920     5.05017519   211.05239427
 H     62   7   5     1.829930792188   100.05314051    41.87398119
 O     28  26  12     3.228254849127   169.73602594   218.29776977
 H     65  28  26     1.837658625940    92.91232379     6.98072986
 H     65  28  26     1.835945464586    90.77628932   113.19473289
 O     53   9   1     5.106323107758   108.81578307   240.09241216
 H     68  53   9     1.854826562682     4.71986964   186.07343783
 H     68  53   9     1.813341096139   110.32483164   219.85152729
 O     37  35  11     3.249594971860   164.47052833   232.91867587
 H     71  37  35     1.850867538947   126.90830026   102.78455353
 H     71  37  35     1.824208954432   126.97113905   295.97747716
 O     21  20  14     3.151683446777   176.10115003   356.55955515
 H     74  21  20     1.852366778270   105.96419670   271.11086812
 H     74  21  20     1.858143826591    98.76558482    19.50002978
 O     40  38   8     3.530246818168   170.62877639   291.64863813
 H     77  40  38     1.837443774020   134.68111937    90.04481859
 H     77  40  38     1.827995779122    86.92613489   344.22389526
 O     38   8   1     5.134734516933   101.07876515   235.83350133
 H     80  38   8     1.813471445349   107.52473434   254.56198439
 H     80  38   8     1.863827882264     2.63166861   208.21416592
 O     41  26  12     5.199149148566    96.10564817   324.08050895
 H     83  41  26     1.839896407751     4.64587195   156.76376414
 H     83  41  26     1.845271057701   111.51395018   154.25858743
 O     85  83  41     3.401394164585   170.81992180   220.75257452
 H     86  85  83     1.850894745018   109.36144863    37.08249526
 H     86  85  83     1.811827881680   121.84489916   162.32520970
 O     44   9   1     5.517478223784    75.65509221   120.33718177
 H     89  44   9     1.825916370724     9.97350124   160.46245536
 H     89  44   9     1.850341627800   103.74179980   260.42134703
 O     24  23   8     3.084928310797   178.24592359    35.36772243
 H     92  24  23     1.842124547331   109.18888710   235.47270912
 H     92  24  23     1.869661485995    99.83839985   343.63688948
 O     67  65  28     3.473046595997   153.37339495    23.50223346
 H     95  67  65     1.827471318004   104.24555825   273.18371452
 H     95  67  65     1.843322842152   144.52120640   123.88072343
 O     30  29   6     3.409881106385   165.64699377     4.36239218
 H     98  30  29     1.836770846760   120.66267728   107.37687223
 H     98  30  29     1.849402691178    96.11594117   354.35039561
 O     75  74  21     3.228202743872   170.37521304    65.42416973
 H    101  75  74     1.845290334633   108.86190006    28.21609123
 H    101  75  74     1.845154413157   119.03128043   148.01345532
 O     34  32  24     3.325169901331   167.85771541    56.73861606
 H    104  34  32     1.861731163716    90.00638598    31.16801370
 H    104  34  32     1.840694692615   118.68589648   285.06859477
 O     18  17  15     3.546691079530   173.64266491    54.50481097
 H    107  18  17     1.815493112884    90.75070803    69.86609184
 H    107  18  17     1.871568863837    96.21068788   324.07938678
 O     91  89  44     3.435511513909   164.38501606    75.94871147
 H    110  91  89     1.857033355373    93.10373862   343.45196939
 H    110  91  89     1.834747562885   120.84614097    91.17931800
 O     60  59  61     3.295108153852   174.87879250   283.54227397
 H    113  60  59     1.840959048231    97.64341443   288.90433526
 H    113  60  59     1.836045081566    94.37505723   183.28685480
 O     61  59  14     3.397611593590   161.99913905   216.14651734
 H    116  61  59     1.845214071018   100.91756883   109.57303035
 H    116  61  59     1.853243831258    88.27456921     4.07406527
 O     97  95  67     3.368054754573   169.95063648   267.01477428
 H    119  97  95     1.846080913504   114.03558614    57.32348893
 H    119  97  95     1.812610476943   109.43452728   298.00581760
 O    114 113  60     3.430158470340   161.30494223   331.52519270
 H    122 114 113     1.861459507503    89.62618659   282.19680952
 H    122 114 113     1.839933286030   152.68791480   160.20849777
 O     27  26  12     3.784111207454   140.32826401   341.24039453
 H    125  27  26     1.856095338470   101.09106949    29.12161577
 H    125  27  26     1.811884058889   127.29414962   150.38587992
 O    103 101  75     3.333765587181   168.83954187   264.67931376
 H    128 103 101     1.853775081705   118.12403489    99.24160391
 H    128 103 101     1.844418239543   109.94691318   338.42599477
 O      8   1   2     3.343455394171   154.15522646   116.85345718
 H    131   8   1     1.849236113387   101.63124587   213.12579685
 H    131   8   1     1.868584751184    89.09783491   318.36074207
 O     57  56  16     3.193750842438   173.39939490    10.79131962
 H    134  57  56     1.837186517560    96.99193900   236.04301204
 H    134  57  56     1.857207942373   107.50352369   342.15218397
 O    123 122 114     3.212454909061   172.76352902    68.38011368
 H    137 123 122     1.841165416614   102.03828599   313.48281030
 H    137 123 122     1.842958557297   109.56599406    64.93199189
 O     95  67  65     5.220051360165    74.79413241    41.30521891
 H    140  95  67     1.853539165723     5.41637899   248.46441206
 H    140  95  67     1.825197673026   102.68811229     4.97327300
 O     45  44   9     3.609786551891   159.44051383   352.39829565
 H    143  45  44     1.858277933668   111.70718469   347.62879594
 H    143  45  44     1.812044855393   126.32217126   215.85883722
 O    129 128 103     3.327376685816   168.66216369   267.97812972
 H    146 129 128     1.848926593634   110.20605514    75.93220767
 H    146 129 128     1.843643502658    99.51425188   324.90104914
 O     19  17  15     3.282163839201   166.88662787    68.80763219
 H    149  19  17     1.862202966257    95.22595825    12.66515220
 H    149  19  17     1.838345510819   115.54057327   262.35081774
 O     10   2   1     4.239620406893   157.08258327    59.33337378
 H    152  10   2     1.842032459343   141.17315751   225.69245629
 H    152  10   2     1.822818972291    91.28552287   109.11415214
 O     83  41  26     5.128439013434   105.92149294   273.72528588
 H    155  83  41     1.812836178835   106.52203583   296.84897840
 H    155  83  41     1.864004622011     2.46925266    23.21513749
 O    133 131   8     3.130786532985   172.16592929    91.06445750
 H    158 133 131     1.847708345459   120.31100473   241.34668986
 H    158 133 131     1.842238058218    99.89688426     0.85851264
 O    105 104  34     3.230920903928   169.01321133   328.71685945
 H    161 105 104     1.888964866144   111.14152795   345.23422800
 H    161 105 104     1.820912003637   125.12912282   112.11471593
 O     93  92  24     3.362127245111   164.83537018    86.61321900
 H    164  93  92     1.862254080469   111.55045470   264.10166624
 H    164  93  92     1.839284406885   135.89486608   120.24100505

---------------------
BASIS SET INFORMATION
---------------------
There are 4 groups of distinct atoms

 Group   1 Type N   : 11s6p2d1f contracted to 5s3p2d1f pattern {62111/411/11/1}
 Group   2 Type C   : 11s6p2d1f contracted to 5s3p2d1f pattern {62111/411/11/1}
 Group   3 Type O   : 11s6p2d1f contracted to 5s3p2d1f pattern {62111/411/11/1}
 Group   4 Type H   : 5s1p contracted to 3s1p pattern {311/1}

Atom   0N    basis set group =>   1
Atom   1C    basis set group =>   2
Atom   2C    basis set group =>   2
Atom   3C    basis set group =>   2
Atom   4C    basis set group =>   2
Atom   5O    basis set group =>   3
Atom   6O    basis set group =>   3
Atom   7H    basis set group =>   4
Atom   8H    basis set group =>   4
Atom   9H    basis set group =>   4
Atom  10H    basis set group =>   4
Atom  11H    basis set group =>   4
Atom  12H    basis set group =>   4
Atom  13H    basis set group =>   4
Atom  14H    basis set group =>   4
Atom  15H    basis set group =>   4
Atom  16O    basis set group =>   3
Atom  17H    basis set group =>   4
Atom  18H    basis set group =>   4
Atom  19O    basis set group =>   3
Atom  20H    basis set group =>   4
Atom  21H    basis set group =>   4
Atom  22O    basis set group =>   3
Atom  23H    basis set group =>   4
Atom  24H    basis set group =>   4
Atom  25O    basis set group =>   3
Atom  26H    basis set group =>   4
Atom  27H    basis set group =>   4
Atom  28O    basis set group =>   3
Atom  29H    basis set group =>   4
Atom  30H    basis set group =>   4
Atom  31O    basis set group =>   3
Atom  32H    basis set group =>   4
Atom  33H    basis set group =>   4
Atom  34O    basis set group =>   3
Atom  35H    basis set group =>   4
Atom  36H    basis set group =>   4
Atom  37O    basis set group =>   3
Atom  38H    basis set group =>   4
Atom  39H    basis set group =>   4
Atom  40O    basis set group =>   3
Atom  41H    basis set group =>   4
Atom  42H    basis set group =>   4
Atom  43O    basis set group =>   3
Atom  44H    basis set group =>   4
Atom  45H    basis set group =>   4
Atom  46O    basis set group =>   3
Atom  47H    basis set group =>   4
Atom  48H    basis set group =>   4
Atom  49O    basis set group =>   3
Atom  50H    basis set group =>   4
Atom  51H    basis set group =>   4
Atom  52O    basis set group =>   3
Atom  53H    basis set group =>   4
Atom  54H    basis set group =>   4
Atom  55O    basis set group =>   3
Atom  56H    basis set group =>   4
Atom  57H    basis set group =>   4
Atom  58O    basis set group =>   3
Atom  59H    basis set group =>   4
Atom  60H    basis set group =>   4
Atom  61O    basis set group =>   3
Atom  62H    basis set group =>   4
Atom  63H    basis set group =>   4
Atom  64O    basis set group =>   3
Atom  65H    basis set group =>   4
Atom  66H    basis set group =>   4
Atom  67O    basis set group =>   3
Atom  68H    basis set group =>   4
Atom  69H    basis set group =>   4
Atom  70O    basis set group =>   3
Atom  71H    basis set group =>   4
Atom  72H    basis set group =>   4
Atom  73O    basis set group =>   3
Atom  74H    basis set group =>   4
Atom  75H    basis set group =>   4
Atom  76O    basis set group =>   3
Atom  77H    basis set group =>   4
Atom  78H    basis set group =>   4
Atom  79O    basis set group =>   3
Atom  80H    basis set group =>   4
Atom  81H    basis set group =>   4
Atom  82O    basis set group =>   3
Atom  83H    basis set group =>   4
Atom  84H    basis set group =>   4
Atom  85O    basis set group =>   3
Atom  86H    basis set group =>   4
Atom  87H    basis set group =>   4
Atom  88O    basis set group =>   3
Atom  89H    basis set group =>   4
Atom  90H    basis set group =>   4
Atom  91O    basis set group =>   3
Atom  92H    basis set group =>   4
Atom  93H    basis set group =>   4
Atom  94O    basis set group =>   3
Atom  95H    basis set group =>   4
Atom  96H    basis set group =>   4
Atom  97O    basis set group =>   3
Atom  98H    basis set group =>   4
Atom  99H    basis set group =>   4
Atom 100O    basis set group =>   3
Atom 101H    basis set group =>   4
Atom 102H    basis set group =>   4
Atom 103O    basis set group =>   3
Atom 104H    basis set group =>   4
Atom 105H    basis set group =>   4
Atom 106O    basis set group =>   3
Atom 107H    basis set group =>   4
Atom 108H    basis set group =>   4
Atom 109O    basis set group =>   3
Atom 110H    basis set group =>   4
Atom 111H    basis set group =>   4
Atom 112O    basis set group =>   3
Atom 113H    basis set group =>   4
Atom 114H    basis set group =>   4
Atom 115O    basis set group =>   3
Atom 116H    basis set group =>   4
Atom 117H    basis set group =>   4
Atom 118O    basis set group =>   3
Atom 119H    basis set group =>   4
Atom 120H    basis set group =>   4
Atom 121O    basis set group =>   3
Atom 122H    basis set group =>   4
Atom 123H    basis set group =>   4
Atom 124O    basis set group =>   3
Atom 125H    basis set group =>   4
Atom 126H    basis set group =>   4
Atom 127O    basis set group =>   3
Atom 128H    basis set group =>   4
Atom 129H    basis set group =>   4
Atom 130O    basis set group =>   3
Atom 131H    basis set group =>   4
Atom 132H    basis set group =>   4
Atom 133O    basis set group =>   3
Atom 134H    basis set group =>   4
Atom 135H    basis set group =>   4
Atom 136O    basis set group =>   3
Atom 137H    basis set group =>   4
Atom 138H    basis set group =>   4
Atom 139O    basis set group =>   3
Atom 140H    basis set group =>   4
Atom 141H    basis set group =>   4
Atom 142O    basis set group =>   3
Atom 143H    basis set group =>   4
Atom 144H    basis set group =>   4
Atom 145O    basis set group =>   3
Atom 146H    basis set group =>   4
Atom 147H    basis set group =>   4
Atom 148O    basis set group =>   3
Atom 149H    basis set group =>   4
Atom 150H    basis set group =>   4
Atom 151O    basis set group =>   3
Atom 152H    basis set group =>   4
Atom 153H    basis set group =>   4
Atom 154O    basis set group =>   3
Atom 155H    basis set group =>   4
Atom 156H    basis set group =>   4
Atom 157O    basis set group =>   3
Atom 158H    basis set group =>   4
Atom 159H    basis set group =>   4
Atom 160O    basis set group =>   3
Atom 161H    basis set group =>   4
Atom 162H    basis set group =>   4
Atom 163O    basis set group =>   3
Atom 164H    basis set group =>   4
Atom 165H    basis set group =>   4
---------------------------------
AUXILIARY/J BASIS SET INFORMATION
---------------------------------
There are 4 groups of distinct atoms

 Group   1 Type N   : 12s5p4d2f1g contracted to 6s4p3d1f1g pattern {711111/2111/211/2/1}
 Group   2 Type C   : 12s5p4d2f1g contracted to 6s4p3d1f1g pattern {711111/2111/211/2/1}
 Group   3 Type O   : 12s5p4d2f1g contracted to 6s4p3d1f1g pattern {711111/2111/211/2/1}
 Group   4 Type H   : 5s2p1d contracted to 3s1p1d pattern {311/2/1}

Atom   0N    basis set group =>   1
Atom   1C    basis set group =>   2
Atom   2C    basis set group =>   2
Atom   3C    basis set group =>   2
Atom   4C    basis set group =>   2
Atom   5O    basis set group =>   3
Atom   6O    basis set group =>   3
Atom   7H    basis set group =>   4
Atom   8H    basis set group =>   4
Atom   9H    basis set group =>   4
Atom  10H    basis set group =>   4
Atom  11H    basis set group =>   4
Atom  12H    basis set group =>   4
Atom  13H    basis set group =>   4
Atom  14H    basis set group =>   4
Atom  15H    basis set group =>   4
Atom  16O    basis set group =>   3
Atom  17H    basis set group =>   4
Atom  18H    basis set group =>   4
Atom  19O    basis set group =>   3
Atom  20H    basis set group =>   4
Atom  21H    basis set group =>   4
Atom  22O    basis set group =>   3
Atom  23H    basis set group =>   4
Atom  24H    basis set group =>   4
Atom  25O    basis set group =>   3
Atom  26H    basis set group =>   4
Atom  27H    basis set group =>   4
Atom  28O    basis set group =>   3
Atom  29H    basis set group =>   4
Atom  30H    basis set group =>   4
Atom  31O    basis set group =>   3
Atom  32H    basis set group =>   4
Atom  33H    basis set group =>   4
Atom  34O    basis set group =>   3
Atom  35H    basis set group =>   4
Atom  36H    basis set group =>   4
Atom  37O    basis set group =>   3
Atom  38H    basis set group =>   4
Atom  39H    basis set group =>   4
Atom  40O    basis set group =>   3
Atom  41H    basis set group =>   4
Atom  42H    basis set group =>   4
Atom  43O    basis set group =>   3
Atom  44H    basis set group =>   4
Atom  45H    basis set group =>   4
Atom  46O    basis set group =>   3
Atom  47H    basis set group =>   4
Atom  48H    basis set group =>   4
Atom  49O    basis set group =>   3
Atom  50H    basis set group =>   4
Atom  51H    basis set group =>   4
Atom  52O    basis set group =>   3
Atom  53H    basis set group =>   4
Atom  54H    basis set group =>   4
Atom  55O    basis set group =>   3
Atom  56H    basis set group =>   4
Atom  57H    basis set group =>   4
Atom  58O    basis set group =>   3
Atom  59H    basis set group =>   4
Atom  60H    basis set group =>   4
Atom  61O    basis set group =>   3
Atom  62H    basis set group =>   4
Atom  63H    basis set group =>   4
Atom  64O    basis set group =>   3
Atom  65H    basis set group =>   4
Atom  66H    basis set group =>   4
Atom  67O    basis set group =>   3
Atom  68H    basis set group =>   4
Atom  69H    basis set group =>   4
Atom  70O    basis set group =>   3
Atom  71H    basis set group =>   4
Atom  72H    basis set group =>   4
Atom  73O    basis set group =>   3
Atom  74H    basis set group =>   4
Atom  75H    basis set group =>   4
Atom  76O    basis set group =>   3
Atom  77H    basis set group =>   4
Atom  78H    basis set group =>   4
Atom  79O    basis set group =>   3
Atom  80H    basis set group =>   4
Atom  81H    basis set group =>   4
Atom  82O    basis set group =>   3
Atom  83H    basis set group =>   4
Atom  84H    basis set group =>   4
Atom  85O    basis set group =>   3
Atom  86H    basis set group =>   4
Atom  87H    basis set group =>   4
Atom  88O    basis set group =>   3
Atom  89H    basis set group =>   4
Atom  90H    basis set group =>   4
Atom  91O    basis set group =>   3
Atom  92H    basis set group =>   4
Atom  93H    basis set group =>   4
Atom  94O    basis set group =>   3
Atom  95H    basis set group =>   4
Atom  96H    basis set group =>   4
Atom  97O    basis set group =>   3
Atom  98H    basis set group =>   4
Atom  99H    basis set group =>   4
Atom 100O    basis set group =>   3
Atom 101H    basis set group =>   4
Atom 102H    basis set group =>   4
Atom 103O    basis set group =>   3
Atom 104H    basis set group =>   4
Atom 105H    basis set group =>   4
Atom 106O    basis set group =>   3
Atom 107H    basis set group =>   4
Atom 108H    basis set group =>   4
Atom 109O    basis set group =>   3
Atom 110H    basis set group =>   4
Atom 111H    basis set group =>   4
Atom 112O    basis set group =>   3
Atom 113H    basis set group =>   4
Atom 114H    basis set group =>   4
Atom 115O    basis set group =>   3
Atom 116H    basis set group =>   4
Atom 117H    basis set group =>   4
Atom 118O    basis set group =>   3
Atom 119H    basis set group =>   4
Atom 120H    basis set group =>   4
Atom 121O    basis set group =>   3
Atom 122H    basis set group =>   4
Atom 123H    basis set group =>   4
Atom 124O    basis set group =>   3
Atom 125H    basis set group =>   4
Atom 126H    basis set group =>   4
Atom 127O    basis set group =>   3
Atom 128H    basis set group =>   4
Atom 129H    basis set group =>   4
Atom 130O    basis set group =>   3
[...]
122 H      0.6265     1.0000     0.3735     0.9215     0.9215    -0.0000
123 H      0.6252     1.0000     0.3748     0.9197     0.9197     0.0000
124 O      8.7319     8.0000    -0.7319     1.8037     1.8037    -0.0000
125 H      0.6173     1.0000     0.3827     0.8949     0.8949    -0.0000
126 H      0.6352     1.0000     0.3648     0.8886     0.8886    -0.0000
127 O      8.7591     8.0000    -0.7591     1.7368     1.7368    -0.0000
128 H      0.6400     1.0000     0.3600     0.9366     0.9366     0.0000
129 H      0.6534     1.0000     0.3466     0.9437     0.9437    -0.0000
130 O      8.7989     8.0000    -0.7989     1.7517     1.7517     0.0000
131 H      0.5993     1.0000     0.4007     0.8956     0.8956    -0.0000
132 H      0.6061     1.0000     0.3939     0.8876     0.8876    -0.0000
133 O      8.7385     8.0000    -0.7385     1.8220     1.8220    -0.0000
134 H      0.6341     1.0000     0.3659     0.9283     0.9283    -0.0000
135 H      0.6006     1.0000     0.3994     0.8541     0.8541    -0.0000
136 O      8.7301     8.0000    -0.7301     1.7837     1.7837    -0.0000
137 H      0.6408     1.0000     0.3592     0.9275     0.9275    -0.0000
138 H      0.6349     1.0000     0.3651     0.9225     0.9225    -0.0000
139 O      8.7120     8.0000    -0.7120     1.8291     1.8291    -0.0000
140 H      0.6375     1.0000     0.3625     0.9290     0.9290     0.0000
141 H      0.6391     1.0000     0.3609     0.9007     0.9007     0.0000
142 O      8.7243     8.0000    -0.7243     1.7990     1.7990    -0.0000
143 H      0.6420     1.0000     0.3580     0.9256     0.9256    -0.0000
144 H      0.6357     1.0000     0.3643     0.8907     0.8907    -0.0000
145 O      8.7468     8.0000    -0.7468     1.7682     1.7682    -0.0000
146 H      0.6332     1.0000     0.3668     0.9230     0.9230     0.0000
147 H      0.6473     1.0000     0.3527     0.9308     0.9308    -0.0000
148 O      8.7479     8.0000    -0.7479     1.7697     1.7697    -0.0000
149 H      0.6306     1.0000     0.3694     0.9159     0.9159     0.0000
150 H      0.6415     1.0000     0.3585     0.9271     0.9271    -0.0000
151 O      8.7181     8.0000    -0.7181     1.8058     1.8058     0.0000
152 H      0.6232     1.0000     0.3768     0.9103     0.9103     0.0000
153 H      0.6422     1.0000     0.3578     0.9021     0.9021    -0.0000
154 O      8.7332     8.0000    -0.7332     1.7756     1.7756     0.0000
155 H      0.6427     1.0000     0.3573     0.8913     0.8913    -0.0000
156 H      0.6294     1.0000     0.3706     0.9169     0.9169    -0.0000
157 O      8.7417     8.0000    -0.7417     1.7987     1.7987    -0.0000
158 H      0.6084     1.0000     0.3916     0.8976     0.8976    -0.0000
159 H      0.6244     1.0000     0.3756     0.9043     0.9043    -0.0000
160 O      8.7480     8.0000    -0.7480     1.7829     1.7829    -0.0000
161 H      0.6205     1.0000     0.3795     0.9098     0.9098    -0.0000
162 H      0.6308     1.0000     0.3692     0.9000     0.9000    -0.0000
163 O      8.7616     8.0000    -0.7616     1.7647     1.7647    -0.0000
164 H      0.6379     1.0000     0.3621     0.9346     0.9346    -0.0000
165 H      0.6311     1.0000     0.3689     0.9220     0.9220    -0.0000

  Mayer bond orders larger than 0.100000
B(  0-N ,  1-C ) :   0.9145 B(  0-N ,  7-H ) :   0.8187 B(  0-N ,  8-H ) :   0.8294 
B(  0-N , 15-H ) :   0.8645 B(  1-C ,  2-C ) :   0.9534 B(  1-C ,  9-H ) :   0.9678 
B(  1-C , 10-H ) :   0.9705 B(  2-C ,  3-C ) :   0.9400 B(  2-C , 11-H ) :   0.9774 
B(  2-C , 12-H ) :   0.9691 B(  3-C ,  4-C ) :   0.9499 B(  3-C , 13-H ) :   0.9763 
B(  3-C , 14-H ) :   0.9120 B(  4-C ,  5-O ) :   1.4241 B(  4-C ,  6-O ) :   1.4166 
B(  5-O , 51-H ) :   0.1130 B(  6-O ,143-H ) :   0.1122 B( 16-O , 17-H ) :   0.8335 
B( 16-O , 18-H ) :   0.7954 B( 18-H ,148-O ) :   0.1181 B( 19-O , 20-H ) :   0.7617 
B( 19-O , 21-H ) :   0.8706 B( 20-H , 73-O ) :   0.1297 B( 22-O , 23-H ) :   0.7430 
B( 22-O , 24-H ) :   0.8729 B( 22-O ,111-H ) :   0.1012 B( 23-H , 91-O ) :   0.1635 
B( 25-O , 26-H ) :   0.8519 B( 25-O , 27-H ) :   0.7855 B( 25-O , 41-H ) :   0.1317 
B( 27-H , 64-O ) :   0.1378 B( 28-O , 29-H ) :   0.8190 B( 28-O , 30-H ) :   0.8772 
B( 31-O , 32-H ) :   0.8390 B( 31-O , 33-H ) :   0.8051 B( 31-O ,164-H ) :   0.1389 
B( 33-H ,103-O ) :   0.1237 B( 34-O , 35-H ) :   0.8518 B( 34-O , 36-H ) :   0.7727 
B( 37-O , 38-H ) :   0.8310 B( 37-O , 39-H ) :   0.8276 B( 40-O , 41-H ) :   0.7594 
B( 40-O , 42-H ) :   0.8672 B( 43-O , 44-H ) :   0.8334 B( 43-O , 45-H ) :   0.8254 
B( 46-O , 47-H ) :   0.8577 B( 46-O , 48-H ) :   0.8121 B( 46-O ,117-H ) :   0.1040 
B( 48-H , 70-O ) :   0.1161 B( 49-O , 50-H ) :   0.8321 B( 49-O , 51-H ) :   0.7993 
B( 49-O ,129-H ) :   0.1041 B( 52-O , 53-H ) :   0.8064 B( 52-O , 54-H ) :   0.8126 
B( 55-O , 56-H ) :   0.7844 B( 55-O , 57-H ) :   0.8446 B( 56-H ,133-O ) :   0.1306 
B( 58-O , 59-H ) :   0.7766 B( 58-O , 60-H ) :   0.7974 B( 59-H ,112-O ) :   0.1531 
B( 60-H ,115-O ) :   0.1234 B( 61-O , 62-H ) :   0.8251 B( 61-O , 63-H ) :   0.8531 
B( 64-O , 65-H ) :   0.8207 B( 64-O , 66-H ) :   0.8328 B( 65-H ,121-O ) :   0.1014 
B( 67-O , 68-H ) :   0.7941 B( 67-O , 69-H ) :   0.8659 B( 70-O , 71-H ) :   0.7973 
B( 70-O , 72-H ) :   0.8297 B( 73-O , 74-H ) :   0.7755 B( 73-O , 75-H ) :   0.7940 
B( 74-H ,100-O ) :   0.1244 B( 76-O , 77-H ) :   0.8196 B( 76-O , 78-H ) :   0.8359 
B( 79-O , 80-H ) :   0.8796 B( 79-O , 81-H ) :   0.8045 B( 82-O , 83-H ) :   0.7957 
B( 82-O , 84-H ) :   0.7994 B( 82-O ,156-H ) :   0.1012 B( 85-O , 86-H ) :   0.8143 
B( 85-O , 87-H ) :   0.8624 B( 88-O , 89-H ) :   0.8569 B( 88-O , 90-H ) :   0.8157 
B( 90-H ,109-O ) :   0.1056 B( 91-O , 92-H ) :   0.8233 B( 91-O , 93-H ) :   0.8026 
B( 93-H ,157-O ) :   0.1162 B( 94-O , 95-H ) :   0.8364 B( 94-O , 96-H ) :   0.8005 
B( 97-O , 98-H ) :   0.8272 B( 97-O , 99-H ) :   0.7904 B(100-O ,101-H ) :   0.8284 
B(100-O ,102-H ) :   0.8101 B(102-H ,127-O ) :   0.1076 B(103-O ,104-H ) :   0.8180 
B(103-O ,105-H ) :   0.8293 B(106-O ,107-H ) :   0.8645 B(106-O ,108-H ) :   0.7552 
B(109-O ,110-H ) :   0.8299 B(109-O ,111-H ) :   0.8355 B(112-O ,113-H ) :   0.8211 
B(112-O ,114-H ) :   0.8267 B(115-O ,116-H ) :   0.8072 B(115-O ,117-H ) :   0.8129 
B(118-O ,119-H ) :   0.7895 B(118-O ,120-H ) :   0.8622 B(118-O ,158-H ) :   0.1045 
B(121-O ,122-H ) :   0.7657 B(121-O ,123-H ) :   0.8059 B(122-H ,136-O ) :   0.1384 
B(124-O ,125-H ) :   0.7997 B(124-O ,126-H ) :   0.8710 B(127-O ,128-H ) :   0.8061 
B(127-O ,129-H ) :   0.8251 B(128-H ,145-O ) :   0.1207 B(130-O ,131-H ) :   0.7726 
B(130-O ,132-H ) :   0.7619 B(132-H ,157-O ) :   0.1114 B(133-O ,134-H ) :   0.8247 
B(133-O ,135-H ) :   0.8024 B(136-O ,137-H ) :   0.8248 B(136-O ,138-H ) :   0.8233 
B(139-O ,140-H ) :   0.8184 B(139-O ,141-H ) :   0.8695 B(142-O ,143-H ) :   0.7914 
B(142-O ,144-H ) :   0.8705 B(145-O ,146-H ) :   0.8188 B(145-O ,147-H ) :   0.8297 
B(148-O ,149-H ) :   0.8092 B(148-O ,150-H ) :   0.8373 B(151-O ,152-H ) :   0.7956 
B(151-O ,153-H ) :   0.8546 B(151-O ,161-H ) :   0.1554 B(152-H ,163-O ) :   0.1068 
B(154-O ,155-H ) :   0.8774 B(154-O ,156-H ) :   0.8023 B(157-O ,158-H ) :   0.7839 
B(157-O ,159-H ) :   0.7981 B(160-O ,161-H ) :   0.7456 B(160-O ,162-H ) :   0.8493 
B(163-O ,164-H ) :   0.7747 B(163-O ,165-H ) :   0.8151 

-------
TIMINGS
-------

Total SCF time: 0 days 0 hours 5 min 31 sec 

Total time                  ....     331.182 sec
Sum of individual times     ....     330.820 sec  ( 99.9%)

SCF preparation             ....       8.766 sec  (  2.6%)
Fock matrix formation       ....     275.577 sec  ( 83.2%)
  Startup                   ....       1.605 sec  (  0.6% of F)
  Split-RI-J                ....      33.471 sec  ( 12.1% of F)
  Chain of spheres X        ....     160.460 sec  ( 58.2% of F)
  XC integration            ....      19.910 sec  (  7.2% of F)
    XC Preparation          ....       0.000 sec  (  0.0% of XC)
    Basis function eval.    ....       4.368 sec  ( 21.9% of XC)
    Density eval.           ....       6.646 sec  ( 33.4% of XC)
    XC-Functional eval.     ....       0.251 sec  (  1.3% of XC)
    XC-Potential eval.      ....       3.760 sec  ( 18.9% of XC)
  CPCM terms                ....      54.470 sec  ( 19.8% of F)
Diagonalization             ....       0.000 sec  (  0.0%)
Density matrix formation    ....       6.421 sec  (  1.9%)
Total Energy calculation    ....       2.701 sec  (  0.8%)
Population analysis         ....       1.256 sec  (  0.4%)
Orbital Transformation      ....       4.169 sec  (  1.3%)
Orbital Orthonormalization  ....       0.000 sec  (  0.0%)
DIIS solution               ....      17.397 sec  (  5.3%)
SOSCF solution              ....      14.534 sec  (  4.4%)
Finished LeanSCF after 333.2 sec

Maximum memory used throughout the entire LEANSCF-calculation: 728.1 MB


-------------------------------------------------------------------------------
                          DFT DISPERSION CORRECTION                            
                                                                               
                                DFTD4 V3.4.0                                   
-------------------------------------------------------------------------------
The B3LYP functional is recognized
Active option DFTDOPT                   ...         5   

-------------------------   ----------------
Dispersion correction           -0.237228306
-------------------------   ----------------


-------------------------   --------------------
FINAL SINGLE POINT ENERGY     -4185.466564945010
-------------------------   --------------------

--------------------------------------------------------------------------
WARNING: There was an error initializing an OpenFabrics device.

  Local host:   ga01
  Local device: mlx5_0
--------------------------------------------------------------------------


           ************************************************************
           *        Program running with 25 parallel MPI-processes    *
           *              working on a common directory               *
           ************************************************************

------------------------------------------------------------------------------
                              ORCA PROPERTY CALCULATIONS
------------------------------------------------------------------------------

GBWName                                 ... input.gbw
Number of atoms                         ...    166
Number of basis functions               ...   2421
Max core memory                         ...   5000 MB

Electric properties:
Dipole moment                           ... YES
Quadrupole moment                       ...  NO
Static polarizability (Dipole/Dipole)   ...  NO
Static polarizability (Dipole/Quad.)    ...  NO
Static polarizability (Quad./Quad.)     ...  NO
Static polarizability (Velocity)        ...  NO

Atomic electric properties:
Dipole moment                           ...  NO
Quadrupole moment                       ...  NO
Static polarizability                   ...  NO

Choice of electric origin               ... Center of mass
Position of electric origin             ...    -0.162782     0.697188    -0.595129

General magnetic properties:
Magnetizability                         ...  NO

EPR properties:
g-Tensor (aka g-matrix)                 ...  NO
Zero-Field splitting spin-orbit         ...  NO
Zero-field splitting spin-spin          ...  NO
Hyperfine couplings                     ...  NO (   0 nuclei)
Quadrupole couplings                    ...  NO (   0 nuclei)
Contact density                         ...  NO (   0 nuclei)

NMR properties:
Chemical shifts                         ...  NO (   0 nuclei)
Spin-rotation constants                 ...  NO (   0 nuclei)
Spin-spin couplings                     ...  NO (   0 nuclei,    0 pairs)

Choice of magnetic origin               ... GIAO
Position of magnetic origin             ...     0.000000     0.000000     0.000000

Properties with geometric perturbations:
SCF Hessian                             ...  NO
IR spectrum                             ...  NO
VCD spectrum                            ...  NO
X-ray spectroscopy properties:
SCF XES/XAS/RIXS spectra                ...  NO


-------------
DIPOLE MOMENT
-------------

Method             : SCF
Type of density    : Electron Density
Multiplicity       :   1
Irrep              :   0
Energy             : -4185.2293366388767026 Eh
Relativity type    : 
Basis              : AO
                                X                 Y                 Z
Electronic contribution:     -2.680655639      -8.493359315      -1.337137309
Nuclear contribution   :      8.512022452      15.187439471       1.566183429
                        -----------------------------------------
Total Dipole Moment    :      5.831366813       6.694080156       0.229046120
                        -----------------------------------------
Magnitude (a.u.)       :      8.880766305
Magnitude (Debye)      :     22.573114033



--------------------
Rotational spectrum 
--------------------
 
Rotational constants in cm-1:             0.001128             0.000918             0.000727 
Rotational constants in MHz :            33.821279            27.510917            21.799030 

Dipole components along the rotational axes: 
x,y,z [a.u.] :     3.519740     7.369936    -3.487619 
x,y,z [Debye]:     8.946469    18.732888    -8.864824 

 

Dipole moment calculation done in   0.3 sec 

Maximum memory used throughout the entire PROP-calculation: 434.3 MB
[ga01:763937] 24 more processes have sent help message help-mpi-btl-openib.txt / error in device init
[ga01:763937] Set MCA parameter "orte_base_help_aggregate" to 0 to see all help / error messages
--------------------------------------------------------------------------
WARNING: There was an error initializing an OpenFabrics device.

  Local host:   ga01
  Local device: mlx5_0
--------------------------------------------------------------------------
[ga01:764042] 24 more processes have sent help message help-mpi-btl-openib.txt / error in device init
[ga01:764042] Set MCA parameter "orte_base_help_aggregate" to 0 to see all help / error messages

--------------------------------
SUGGESTED CITATIONS FOR THIS RUN
--------------------------------

Below you find a list of papers that are relevant to this ORCA run
We neither can nor want to force you to cite these papers, but we appreciate if you do
You receive ORCA, which is the product of decades of hard work by many enthusiastic individuals, for free
The only thing we kindly ask in return is that you cite our papers,
We deeply appreciate it, if you show your appreciation for ORCA by not just citing the generic ORCA reference.

Please note that relegating all ORCA citations to the supporting information does *not* help us.
SI sections are not indexed - citations you put there will not count into any citation statistics
But we need these citations in order to attract the funding resources that allow us to do what we are doing

Therefore, if you are a happy ORCA user, please consider citing a few of the papers listed below in the main body of your paper

In addition to the list printed below, the program has created the file input.bibtex that contains the list in bibtex format
You can import this file easily into all common literature databanks and citation aid programs


List of essential papers. We consider these as the minimum necessary citations

  1. Neese,F.
     Software update: the ORCA program system, version 5.0
     WIRES Comput. Molec. Sci., 2022 12(1)e1606
     doi.org/10.1002/wcms.1606

List of papers to cite with high priority. The work reported in these papers was absolutely
necessary for this run to complete.
Our perspective: the developers of density functionals and basis sets usually get cited in chemistry papers
Good! But without the algorithms to do something with them, the functionals or basis sets would not do anything.
Hence, in our opinion, the algorithm design and method developments papers are equally worthy of getting cited

  1. Neese,F.
     An improvement of the resolution of the identity approximation for the formation of the Coulomb matrix
     J. Comp. Chem., 2003 24(14)1740-1747
     doi.org/10.1002/jcc.10318
  2. Neese,F.; Wennmohs,F.; Hansen,A.; Becker,U.
     Efficient, approximate and parallel Hartree-Fock and hybrid DFT calculations. A 'chain-of-spheres' algorithm for the Hartree-Fock exchange
     Chem. Phys., 2009 356(1-3)98-109
     doi.org/10.1016/j.chemphys.2008.10.036
  3. Garcia-Rates,M.; Neese,F.
     Effect of the Solute Cavity on the Solvation Energy and its Derivatives within the Framework of the Gaussian Charge Scheme
     J. Comput. Chem., 2020 41 922-939
     doi.org/10.1002/jcc.26139
  4. Helmich-Paris,B.; de Souza,B.; Neese,F.; Izsák,R.
     An improved chain of spheres for exchange algorithm
     J. Chem. Phys., 2021 155 104109
     doi.org/doi: 10.1063/5.0058766.
  5. Neese,F.
     The SHARK Integral Generation and Digestion System
     J. Comp. Chem., 2022  1-16
     doi.org/10.1002/jcc.26942
  6. Caldeweyher,E.; Bannwarth,C.; Grimme,S.
     Extension of the D3 dispersion coefficient model
     J. Chem. Phys., 2017 147 034112
     doi.org/10.1063/1.4993215
  7. Caldeweyher,E.; Ehlert,S.; Hansen,A.; Neugebauer,H.; Spicher,S.; Bannwarth,C.; Grimme,S.
     A generally applicable atomic-charge dependent London dispersion correction
     J. Chem. Phys., 2019 150 154122
     doi.org/10.1063/1.5090222
  8. Caldeweyher,E.; Mewes,J.; Ehlert,S.; Grimme,S.
     Extension and evaluation of the D4 London-dispersion model for periodic systems
     Phys. Chem. Chem. Phys., 2020 22(16)8499-8512
     doi.org/10.1039/D0CP00502A
  9. Wittmann,L.; Gordiy,I.; Friede,M.; Helmich-Paris,B.; Grimme,S.; Hansen,A.; Bursch,M.
     Extension of the D3 and D4 London Dispersion Corrections to the full Actinides Series
     Phys. Chem. Chem. Phys., 2024 26(32)21379-21394
     doi.org/https://doi.org/10.1039/D4CP01514B 

List of suggested additional citations. These are papers that are important in the 'surrounding' of 
of this run, or papers that preceded the highly important papers. If you like your results we are grateful for a citation.

  1. Izsak,R.; Neese,F.
     An overlap fitted chain of spheres exchange method
     J. Chem. Phys., 2011 135 144105
     doi.org/10.1063/1.3646921
  2. Izsak,R.; Hansen,A.; Neese,F.
     The resolution of identity and chain of spheres approximations for the LPNO-CCSD singles Fock term
     Molec. Phys., 2012 110 2413-2417
     doi.org/10.1080/00268976.2012.687466
  3. Neese,F.
     The ORCA program system
     WIRES Comput. Molec. Sci., 2012 2(1)73-78
     doi.org/10.1002/wcms.81
  4. Izsak,R.; Neese,F.; Klopper,W.
     Robust fitting techniques in the chain of spheres approximation to the Fock exchange: The role of the complementary space
     J. Chem. Phys., 2013 139 
     doi.org/10.1063/1.4819264
  5. Neese,F.
     Software update: the ORCA program system, version 4.0
     WIRES Comput. Molec. Sci., 2018 8(1)1-6
     doi.org/10.1002/wcms.1327
  6. Neese,F.; Wennmohs,F.; Becker,U.; Riplinger,C.
     The ORCA quantum chemistry program package
     J. Chem. Phys., 2020 152 Art. No. L224108
     doi.org/10.1063/5.0004608

List of optional additional citations

  1. Neese,F.
     Approximate second-order SCF convergence for spin unrestricted wavefunctions
     Chem. Phys. Lett., 2000 325(1-3)93-98
     doi.org/10.1016/s0009-2614(00)00662-x

Timings for individual modules:

Sum of individual times          ...      363.108 sec (=   6.052 min)
Startup calculation              ...       18.566 sec (=   0.309 min)   5.1 %
SCF iterations                   ...      342.538 sec (=   5.709 min)  94.3 %
Property calculations            ...        2.004 sec (=   0.033 min)   0.6 %
                             ****ORCA TERMINATED NORMALLY****
TOTAL RUN TIME: 0 days 0 hours 6 minutes 4 seconds 539 msec
