37
 energy: -59.712807345547 gnorm: 0.208225984722 xtb: 6.7.1 (edcfbbe)
N           -0.44376700000000       -0.47181200000000        1.74520500000000
C            0.69351000000000        0.10436000000000        1.02689900000000
C            0.25232500000000        0.99958500000000       -0.14624500000000
C           -0.57382300000000        0.30680200000000       -1.24485700000000
C            0.17276200000000       -0.78812900000000       -1.95771100000000
O            0.40822200000000       -0.68794500000000       -3.15102700000000
O            0.54634400000000       -1.90328400000000       -1.30373900000000
H           -0.08747200000000       -1.00411400000000        2.57127000000000
H           -1.08118400000000        0.28586300000000        2.08138600000000
H            1.28097900000000        0.73286000000000        1.73117400000000
H            1.36804500000000       -0.70373400000000        0.67713900000000
H            1.15866700000000        1.44313000000000       -0.61117500000000
H           -0.35578800000000        1.83434200000000        0.26527400000000
H           -1.51736400000000       -0.10080200000000       -0.82923500000000
H           -0.85273400000000        1.08677100000000       -1.98587200000000
H           -0.96872000000000       -1.13389300000000        1.13151600000000
O           -1.32198600000000       -1.44829000000000       -3.80536100000000
H           -2.02868800000000       -2.11228700000000       -4.00609000000000
H           -0.88522100000000       -1.27937000000000       -4.67789500000000
O           -1.61404900000000        1.28124500000000        4.99349600000000
H           -1.45663600000000        1.58373600000000        5.92319000000000
H           -0.90694800000000        1.72866700000000        4.46393500000000
O            1.73758300000000        0.00591700000000        6.66917400000000
H            2.03438400000000       -0.93867200000000        6.68562700000000
H            1.03278100000000        0.05663800000000        7.36292800000000
O            2.91304700000000       -1.76993300000000       -1.82027200000000
H            2.83474000000000       -2.58897000000000       -1.26922100000000
H            3.52096900000000       -1.18171600000000       -1.30544700000000
O           -2.94602500000000       -1.16001600000000        3.07163100000000
H           -2.61220900000000       -2.02827500000000        2.73206700000000
H           -3.14652800000000       -0.63522100000000        2.25615400000000
O           -1.88243100000000       -2.05366600000000        4.59296100000000
H           -1.95915200000000       -1.10923700000000        4.88067600000000
H           -1.11834600000000       -2.40998000000000        5.11241000000000
O           -0.25434600000000       -0.22787500000000       -7.42899800000000
H            0.21332700000000       -1.09990700000000       -7.39086300000000
H           -0.95703600000000       -0.29261300000000       -6.73426900000000
37
 energy: -59.762300835239 gnorm: 0.101223285776 xtb: 6.7.1 (edcfbbe)
N           -0.43883044156206       -0.47124471847424        1.74856048630659
C            0.70301451078005        0.11266778093120        1.02961515877658
C            0.25164470190186        1.00639922186587       -0.12853606165598
C           -0.56852554987289        0.31335037800559       -1.22297294578055
C            0.20226813896080       -0.78703234446905       -1.93205702879145
O            0.51247718927424       -0.64239553300832       -3.12006708979004
O            0.47186319744871       -1.86910676778123       -1.26706151526636
H           -0.10372157845343       -1.00565168725357        2.56546361124084
H           -1.08055132915718        0.26724701721510        2.08241515014400
H            1.28451083309831        0.72896205623415        1.72667959124919
H            1.34701301143882       -0.69446896368119        0.65693830273410
H            1.14471440652445        1.43633981134304       -0.60079753019301
H           -0.34971571687537        1.83620628546614        0.26596583524325
H           -1.50787763616756       -0.10105807942214       -0.83373486579363
H           -0.83862720995006        1.06401946423712       -1.98156900610065
H           -0.95158665825306       -1.12065894752139        1.13087882892563
O           -1.40657198883365       -1.47349086869189       -3.84949458698992
H           -2.08350408242018       -2.14132565585976       -4.06117739859205
H           -0.90987801533052       -1.30891972663463       -4.67155587174813
O           -1.59099497723618        1.26861000285262        4.99692858190713
H           -1.46822301208754        1.58773675540852        5.90620223172487
H           -0.91466400867606        1.73541400055741        4.47712503376026
O            1.72343082458648       -0.00659363910509        6.66703641560618
H            2.03846430044617       -0.92597657776383        6.68966267977404
H            1.05005313458177        0.04963492187789        7.36522681855156
O            2.98686321658085       -1.77823480409319       -1.83236667099111
H            2.83130893062696       -2.56821515602220       -1.27938375397617
H            3.54224108941545       -1.18875239157630       -1.29345420039958
O           -2.97899500474106       -1.12787717027543        2.99883968598419
H           -2.65198016197613       -2.00009727680379        2.71369334247470
H           -3.19098416350293       -0.63147955486417        2.19624413425841
O           -1.83202274883632       -2.07527106457906        4.65302971951801
H           -1.93740238426117       -1.13733781979242        4.90033406324651
H           -1.08989641939106       -2.41768563060148        5.16957953528254
O           -0.26079612611035       -0.23847866455872       -7.42967610139729
H            0.20953034578956       -1.08837386899880       -7.38746495739290
H           -0.94681661775977       -0.28668578416283       -6.74321462184990
37
 energy: -59.781208762846 gnorm: 0.040491197477 xtb: 6.7.1 (edcfbbe)
N           -0.43441415761496       -0.47284198616359        1.75095836545151
C            0.70870153789423        0.12242564381063        1.02847961578956
C            0.24770850634219        1.01625843371390       -0.11919541514578
C           -0.57313154858557        0.31833090863432       -1.20902085911758
C            0.18632326153844       -0.81765022175271       -1.92058059543537
O            0.57866699653619       -0.61017060882234       -3.09413618100711
O            0.44958444222977       -1.82714965590420       -1.23726711252153
H           -0.11768101426436       -1.01261773011408        2.56136559558765
H           -1.08527916798572        0.24652472606464        2.08511204865333
H            1.29312129424876        0.72200841630683        1.72305327681569
H            1.32287252233249       -0.68614000164572        0.63060214131598
H            1.13343021265884        1.43654088302882       -0.59514692539233
H           -0.34451343748881        1.84307719336710        0.27302372848994
H           -1.50085471781870       -0.10285091027025       -0.82398301939509
H           -0.83627840819154        1.04999808935288       -1.97720280920224
H           -0.93078986162060       -1.11074007709805        1.12024903473870
O           -1.48770295665325       -1.47619250844768       -3.87105920659894
H           -2.11735132035127       -2.16861286508930       -4.10093008641990
H           -0.91078018041737       -1.33683239477228       -4.63773982655443
O           -1.55979578619952        1.24835503469082        4.99797664775030
H           -1.49069777536562        1.59232869116456        5.89351910139515
H           -0.91655276140574        1.75045849023411        4.48773258899319
O            1.70509729192557       -0.02186983805598        6.66130221899539
H            2.05338773895112       -0.91724822859556        6.69236371324212
H            1.06987413407178        0.04198127907622        7.37928669840705
O            3.05824835863947       -1.78398871881882       -1.83763536891709
H            2.82902126471313       -2.55355130246687       -1.29385804345348
H            3.58037335477396       -1.20014816186420       -1.27927629680985
O           -2.98745153525907       -1.08360045289048        2.93750136822546
H           -2.70695991624803       -1.97941528451294        2.70960815141696
H           -3.25184673093948       -0.63475259252378        2.13378308091920
O           -1.77769574258522       -2.08816188294651        4.68038725000483
H           -1.92648981255473       -1.16175602727795        4.90867018929362
H           -1.06712818178236       -2.42315059199595        5.22276715693029
O           -0.27046552551656       -0.24927912278394       -7.43959004762472
H            0.21277467494482       -1.07787311241956       -7.38524242878878
H           -0.93809305295246       -0.27151851221236       -6.75004275003203
37
 energy: -59.792366053948 gnorm: 0.052474531711 xtb: 6.7.1 (edcfbbe)
N           -0.43177853835785       -0.47877958151779        1.75022476055082
C            0.71026160955693        0.12926951004183        1.02691330082733
C            0.24184894780050        1.03328570133323       -0.10929595736970
C           -0.56839742383670        0.33401063347881       -1.20536502973281
C            0.25954651719807       -0.79949739685751       -1.89328284643050
O            0.61986124902660       -0.59490542678304       -3.06936552536118
O            0.37277941020323       -1.84315377916089       -1.22130226752630
H           -0.12702983845734       -1.02768554074192        2.55728069109584
H           -1.09598760647372        0.22392522032912        2.08945953700192
H            1.30441522896808        0.71224343870729        1.72404242155500
H            1.30462194660560       -0.67923106524830        0.60426154228610
H            1.12616216612561        1.45217565789235       -0.58515018018826
H           -0.35170496704018        1.85559031001484        0.28524846558141
H           -1.48633517509733       -0.11132911835550       -0.82428860133503
H           -0.83499771286593        1.05158489052673       -1.97968215205996
H           -0.91246843972151       -1.10826849366290        1.10163923278193
O           -1.58833392146604       -1.47151646364739       -3.87310797564462
H           -2.15642541921956       -2.20831504390563       -4.14402976088258
H           -0.91056748569097       -1.36507997869353       -4.57617296500077
O           -1.51337962770860        1.20658282268482        4.99717411447637
H           -1.53093561605724        1.60353188681259        5.88268968341140
H           -0.91735988168175        1.77943673006369        4.49390841111873
O            1.66982386901671       -0.04143320161968        6.63838796815144
H            2.08504859337023       -0.91045205928193        6.69826841772137
H            1.09851735676146        0.03256583150334        7.41384447548008
O            3.15196313266501       -1.79626829733654       -1.85395530476921
H            2.81872339370790       -2.53514712722662       -1.30490105178827
H            3.61750761059044       -1.20403868798838       -1.24839352407807
O           -2.97566081319581       -1.02005955125339        2.87508311416388
H           -2.77714466269729       -1.96101357921514        2.71324071555101
H           -3.34090203603859       -0.65301014354081        2.04982120112386
O           -1.71186981592072       -2.10099099520418        4.68499829641638
H           -1.91726174499319       -1.18519007305834        4.90909350516287
H           -1.04621489282985       -2.42795381860063        5.29559462384302
O           -0.28872392361217       -0.25980049717323       -7.46824127765168
H            0.22602484243815       -1.06624485725619       -7.37912321624811
H           -0.92639433107244       -0.24466285605982       -6.74968184223443
37
 energy: -59.799749820420 gnorm: 0.053909913789 xtb: 6.7.1 (edcfbbe)
N           -0.43038176342516       -0.48780819814147        1.74411109142785
C            0.70990413359753        0.13353740880016        1.02572100552672
C            0.23880138001062        1.05309897821091       -0.09847182342378
C           -0.56695321478655        0.34938032802078       -1.19526735065432
C            0.25139294289476       -0.81804665262744       -1.87202042047426
O            0.66256313259387       -0.59297248358271       -3.02994261351630
O            0.35554652659011       -1.84718284318793       -1.18389223451256
H           -0.13361801954313       -1.04606788819363        2.55008618581604
H           -1.11291184186624        0.19742450078944        2.09057103216497
H            1.31571114682793        0.70096723209348        1.72785506750321
H            1.29390712853576       -0.67268875805815        0.58447731572782
H            1.12376497588246        1.47554084254224       -0.57395776089059
H           -0.35519178271232        1.87388116623336        0.30383802087820
H           -1.48292026374033       -0.09925239281418       -0.81317589145064
H           -0.82993485694612        1.05648278768932       -1.97895794268008
H           -0.89514049516243       -1.11291386711355        1.07749292182982
O           -1.67285492836428       -1.49175730196936       -3.87998848276270
H           -2.19155620474664       -2.25894444367711       -4.18193363399156
H           -0.95732327249437       -1.36873119453203       -4.52519584888764
O           -1.51204622159798        1.22340413555260        4.98971067981636
H           -1.54644996517189        1.58242949923444        5.87580918368953
H           -0.90663049639369        1.78100400427028        4.50207022353483
O            1.64908906412191       -0.05878549344140        6.63279137789047
H            2.11736822022288       -0.90452777139271        6.69972584527452
H            1.12753627843219        0.01773096127797        7.44790296033157
O            3.22518742516345       -1.79324189801911       -1.84738169129131
H            2.85459514251395       -2.52541499444628       -1.33619364344301
H            3.67084508097149       -1.20998941866453       -1.22155218783683
O           -2.99360902163501       -0.97121591689906        2.80732537628914
H           -2.82229722958064       -1.91826186471964        2.69234208545654
H           -3.42307039200826       -0.65619267761648        1.98497657304783
O           -1.64528163110735       -2.11693992239336        4.67241362959042
H           -1.90800251208723       -1.21031780831798        4.89273477826280
H           -1.03484254874297       -2.42890199817980        5.36783075645639
O           -0.32054348706582       -0.27586385428019       -7.51781954105780
H            0.24701468826029       -1.04988216387884       -7.36593091866717
H           -0.90443511744143       -0.20880503856986       -6.74226912497532
37
 energy: -59.803641694181 gnorm: 0.074899366735 xtb: 6.7.1 (edcfbbe)
N           -0.42853656712347       -0.49936182678746        1.73368103625849
C            0.70880127704452        0.13827899943000        1.02666411177481
C            0.23619875845110        1.07362439638298       -0.08568964922966
C           -0.56311760734633        0.36439670165536       -1.18257627701859
C            0.23633026427712       -0.83432521035700       -1.85169309886155
O            0.71077754506431       -0.59547951242846       -2.98347622217010
O            0.35322197626119       -1.85109969359980       -1.14994849604732
H           -0.13697849376602       -1.06556844349416        2.53993375453437
H           -1.13576767770186        0.16416917906786        2.08708977307300
H            1.32533393730444        0.69083618362104        1.73528828259696
H            1.28959957561501       -0.66148825475658        0.56958141197253
H            1.12103571061555        1.50908526388143       -0.55666025781117
H           -0.36285457927835        1.88994958048588        0.32675044219400
H           -1.48115635707963       -0.08214033856827       -0.80028120016353
H           -0.82107587747101        1.06206742497376       -1.97669863653095
H           -0.87367329955124       -1.12381752837058        1.04930757029689
O           -1.78334273021425       -1.51140647900050       -3.89276736633650
H           -2.24650275542395       -2.30185794674421       -4.22219714894981
H           -1.00164881507372       -1.39824128393228       -4.45547308544920
O           -1.43745720984669        1.15139373769474        4.98991129813620
H           -1.62455726790718        1.60140828187929        5.86045409866173
H           -0.91002872628971        1.83497057234244        4.51304401349551
O            1.67336480091400       -0.07112831911959        6.67473436221391
H            2.13143445188344       -0.90677041128293        6.68659809412622
H            1.14221169261698       -0.00306053839080        7.45718441605824
O            3.34470051943354       -1.80584004513626       -1.85484042543280
H            2.84962115416372       -2.49975410439247       -1.35853061648266
H            3.73641102076193       -1.22807343418626       -1.17739287852612
O           -3.05124616811690       -0.92415046922486        2.72831932542429
H           -2.88131123399138       -1.86072539574396        2.67019631981362
H           -3.47786569464267       -0.63741482958198        1.93042258188106
O           -1.59192153272715       -2.13704147408451        4.67095778414251
H           -1.87109591839398       -1.23658165530148        4.87020416386609
H           -1.01785349452089       -2.43278233108213        5.39404468324338
O           -0.29850068640497       -0.25796392770513       -7.50199263209759
H            0.24166617250299       -1.03719285809937       -7.38911001697422
H           -0.90698416403842       -0.19673901004477       -6.76920451568283
37
 energy: -59.807598190083 gnorm: 0.070432960119 xtb: 6.7.1 (edcfbbe)
N           -0.42793014082968       -0.51057049161806        1.72420132610057
C            0.70667946454675        0.14045766971043        1.03141140670328
C            0.23287280956774        1.08128055372806       -0.07534129471645
C           -0.56034404906806        0.37021698102777       -1.17284892636544
C            0.24612384353754       -0.82394912098437       -1.83393331075414
O            0.73520362305088       -0.60575625301800       -2.95215595754010
O            0.33876412264969       -1.85727374775136       -1.13535033413150
H           -0.13454290459124       -1.07764697816443        2.53035514734695
H           -1.15142970675381        0.13776216877332        2.07926787374747
H            1.32353949878107        0.68696700765585        1.74497011252381
H            1.29401274576650       -0.65023770483144        0.56822021751465
H            1.11519303761207        1.53314188536112       -0.53856167573966
H           -0.37377471598167        1.89069561672892        0.34221248500609
H           -1.48428051292320       -0.06996555692715       -0.79421329724257
H           -0.81244572749354        1.06354924515276       -1.97385973175141
H           -0.85936263820145       -1.13825279570282        1.03322213814616
O           -1.86622379479797       -1.52824175596683       -3.90153267979324
H           -2.29517771643071       -2.31992261207767       -4.24424791910587
H           -1.02939011397298       -1.43061953029856       -4.39823906588094
O           -1.50043140496172        1.23836077417578        4.97988448917461
H           -1.58943643054341        1.54878513925072        5.86104900400785
H           -0.89311180969394        1.79232887980462        4.51401665828628
O            1.65011594805440       -0.08676494001228        6.66877402776412
H            2.16220553676287       -0.89569154344289        6.68788756826492
H            1.17868663386287       -0.01422426784583        7.49724359055411
O            3.39482492010185       -1.80484983627160       -1.83590556514491
H            2.88667568936728       -2.48645029173848       -1.37497684462669
H            3.79376903049195       -1.24166249142408       -1.17084834229931
O           -3.06326522365021       -0.86050620503074        2.66685198149116
H           -2.95914397525912       -1.83408012449570        2.68991414887074
H           -3.53162478760214       -0.64695958160733        1.86617879230771
O           -1.55616010278184       -2.14149571736454        4.67485162699127
H           -1.82335614332633       -1.24546548153755        4.85812485255214
H           -1.00200061341046       -2.43234830404973        5.37918882987645
O           -0.29087186494126       -0.25159322889415       -7.50306566519955
H            0.24265657305547       -1.02405882257107       -7.39952552306720
H           -0.89978709999387       -0.18478353774455       -6.78738514387094
37
 energy: -59.805499556744 gnorm: 0.110122882126 xtb: 6.7.1 (edcfbbe)
N           -0.42795010082284       -0.52432392629121        1.71643477550317
C            0.70506830616367        0.13950513843854        1.03988624847985
C            0.22877232365317        1.07652750491195       -0.06664859486771
C           -0.56113288637873        0.36541983374234       -1.16523663690337
C            0.25682122331052       -0.80164710592024       -1.82206657281190
O            0.73281271567279       -0.61447623217959       -2.94121419851034
O            0.34466192092272       -1.84949941082124       -1.13456190706219
H           -0.12657758835124       -1.08622856976804        2.52079943521388
H           -1.15788520231894        0.11651516964130        2.06645622215727
H            1.30826456876666        0.69032243418143        1.75851348177940
H            1.30873222902663       -0.64044101764194        0.57938318712367
H            1.10655450748956        1.54160332051053       -0.52231149682580
H           -0.38515330488501        1.87820453685068        0.35108337195007
H           -1.49263268211159       -0.06110520869945       -0.79021724644870
H           -0.80579281382125        1.06191884755119       -1.96739091959436
H           -0.85133238371924       -1.15762499527152        1.02792799591518
O           -1.88942574738980       -1.55514042701745       -3.89792167350909
H           -2.31060314421546       -2.33940820708323       -4.23601348341368
H           -1.08797639242743       -1.41730205846393       -4.37632248550961
O           -1.47474024582663        1.20732625507327        4.96705206103052
H           -1.63794929768771        1.54302958942337        5.85236482325680
H           -0.88230334532858        1.82150035305275        4.52835119318158
O            1.57829284938111       -0.11323620482392        6.60780091558864
H            2.21245393940974       -0.88207536856899        6.70421513953203
H            1.23445931638484       -0.02684415275395        7.56539203280521
O            3.42631135886337       -1.80288895428979       -1.82726997539927
H            2.91712322405771       -2.47503727554379       -1.38589426888796
H            3.81956428329813       -1.24347101299371       -1.15943676841220
O           -3.04013364580688       -0.82012421030084        2.63025629363635
H           -2.95890762375461       -1.79847575348247        2.68069518775971
H           -3.62877344660234       -0.67142020707726        1.82616103154408
O           -1.49587267916390       -2.13673748178118        4.63181975719449
H           -1.82820030466528       -1.25012578627381        4.83832050154450
H           -1.00655991817510       -2.42204514556252        5.42019380755109
O           -0.35447319094898       -0.28770578817191       -7.59714666116755
H            0.28001602162381       -1.00664235806860       -7.35877781506141
H           -0.85830084362361       -0.13767112453080       -6.75884175836225
37
 energy: -59.810159911776 gnorm: 0.087256118815 xtb: 6.7.1 (edcfbbe)
N           -0.42624916384603       -0.53309114062431        1.71386947795734
C            0.70559611274129        0.14034849528148        1.04370342002068
C            0.22527532117042        1.07691042917815       -0.06132683399470
C           -0.56357511406067        0.36593959275235       -1.16201643362138
C            0.25608277037800       -0.79683217943161       -1.81320545662821
O            0.72771636869876       -0.61355292677634       -2.93703114376308
O            0.33968918970843       -1.84597873832818       -1.12933457336902
H           -0.12307825165779       -1.09259417206127        2.51753449207308
H           -1.16114005668780        0.10248473376164        2.05975404038462
H            1.29958059567443        0.69359337414994        1.76658851190335
H            1.31622127436151       -0.63485350961254        0.58261820623968
H            1.10087495024140        1.54365146306364       -0.51629041688818
H           -0.39177554480793        1.87463586012102        0.35624934462936
H           -1.49600553517719       -0.05600332237870       -0.78695114686272
H           -0.80437658424712        1.06394846211541       -1.96397972683315
H           -0.84290219861410       -1.16837080199325        1.02364901750705
O           -1.93756680512423       -1.54016388613174       -3.89362577258163
H           -2.31128166433130       -2.36965823916021       -4.25811835267534
H           -1.07507647360170       -1.42261576831206       -4.33596702063889
O           -1.48049684937076        1.21141023249264        4.95989662636575
H           -1.64585981550687        1.52899100612404        5.85072099416250
H           -0.87542742935791        1.82324981194003        4.53648672842145
O            1.68193501752617       -0.09438132849053        6.70555072356651
H            2.17671192641426       -0.90166224775323        6.68102229419527
H            1.19234989250420       -0.03829395892714        7.50549511978348
O            3.47064974064030       -1.81374041519321       -1.83961045094946
H            2.90367745436163       -2.46795324257917       -1.39322754446897
H            3.83061942920481       -1.24969660976698       -1.13665697854047
O           -3.07997807334727       -0.83154269850872        2.61260974956220
H           -2.93295801148027       -1.76285144816046        2.64778751074347
H           -3.64261865879723       -0.64945196854918        1.83058002274939
O           -1.46990097714989       -2.13546694559963        4.60617413424373
H           -1.83131752391830       -1.24804989033248        4.81492400742438
H           -1.00916791543991       -2.42050309103754        5.44515416460593
O           -0.34521677739365       -0.27865141161393       -7.59488616948590
H            0.27912121406147       -1.00699598938715       -7.36669748380068
H           -0.86289983376938       -0.13203253027412       -6.76560808143803
37
 energy: -59.806435345450 gnorm: 0.126015432486 xtb: 6.7.1 (edcfbbe)
N           -0.42407439671601       -0.53984945420348        1.71325074187117
C            0.70510008408576        0.14378430269649        1.04454883037370
C            0.22164744280851        1.08416537032171       -0.05844565147781
C           -0.56330205772204        0.37228196333823       -1.16466770191504
C            0.23229519686561       -0.81950707254518       -1.80698032046019
O            0.75734650398958       -0.60799405026077       -2.92573007074309
O            0.33453094371621       -1.84938756857475       -1.10777124734355
H           -0.12416789135845       -1.09915573955728        2.52025836882845
H           -1.17014338485095        0.08888379525994        2.05512684894085
H            1.29347707783524        0.69893693214715        1.77310928164306
H            1.32064465160203       -0.62856617016123        0.58410865202107
H            1.09840857280109        1.54798981858481       -0.51608848735793
H           -0.39871299352808        1.88017649276921        0.36042338951592
H           -1.49465932564466       -0.05111448367428       -0.78937423795799
H           -0.80106424343222        1.07008503360524       -1.96721368767475
H           -0.82982819545614       -1.17717538542463        1.01489505779217
O           -1.96381745456934       -1.54829238359900       -3.89389591996353
H           -2.33061472952774       -2.37913212597118       -4.25379852052810
H           -1.09318564328693       -1.43266369539489       -4.31329603653198
O           -1.45646961677596        1.17904172523617        4.96341065806230
H           -1.66984771366904        1.53902878328254        5.84268986073188
H           -0.88547462581505        1.84395071656115        4.54454834953446
O            1.64973758399699       -0.10359605845578        6.68629762363386
H            2.20390119177976       -0.88893946219175        6.67990073576476
H            1.22142004033039       -0.04880396012941        7.54522578718797
O            3.48668591510039       -1.82179527318894       -1.82742681729649
H            2.91379732646518       -2.47243888933744       -1.39942612893123
H            3.85567108931251       -1.26419885569448       -1.13472448986735
O           -3.14346096155119       -0.82210335402299        2.58739322862214
H           -2.98438354907274       -1.76317270348064        2.67393974382167
H           -3.57211629806516       -0.61635846811498        1.81779259587139
O           -1.52116788487207       -2.12823776107229        4.65292319236819
H           -1.76402031691605       -1.22240134404278        4.79605367107803
H           -0.98524626092114       -2.42562046041303        5.34630376455957
O           -0.24246643086424       -0.21890873862546       -7.47121296630836
H            0.23159214274996       -1.01913540720342       -7.43679930837275
H           -0.91079978882268       -0.17960106846395       -6.82951378949066
37
 energy: -59.808161159887 gnorm: 0.103996814295 xtb: 6.7.1 (edcfbbe)
N           -0.42419381869229       -0.54729053575820        1.70984843385387
C            0.70326859242458        0.14536561183666        1.04848445265545
C            0.22017574976921        1.08373639684735       -0.05574580554875
C           -0.56307022496199        0.37036542177052       -1.16292171328577