34
 energy: -56.569506502459 gnorm: 0.199159456544 xtb: 6.7.1 (edcfbbe)
C            0.00071700000000       -0.52255800000000        0.67804400000000
C            0.00015500000000        0.09392700000000        2.05036800000000
O           -0.00019500000000       -0.63013100000000        3.03226200000000
O           -0.00079700000000        1.43155900000000        2.21643300000000
C            0.00098900000000        0.52531100000000       -0.44326000000000
N           -0.00030100000000       -0.11659100000000       -1.75665200000000
H            0.90259300000000       -1.16292800000000        0.57888800000000
H           -0.90264000000000       -1.16023800000000        0.57901700000000
H           -0.90200200000000        1.16741300000000       -0.35103700000000
H            0.90366600000000        1.16894900000000       -0.35172000000000
H           -0.85706900000000       -0.70553200000000       -1.86752300000000
H            0.85322800000000       -0.71006900000000       -1.86779500000000
H            0.00165600000000        0.62088700000000       -2.49702600000000
O            2.89572700000000       -1.07609700000000        3.97944500000000
H            2.99290400000000       -0.22882400000000        4.48273000000000
H            2.15904400000000       -0.90229000000000        3.34092900000000
O            1.50668600000000       -3.74479900000000        0.46746600000000
H            2.40813700000000       -4.00459500000000        0.78448800000000
H            1.67646700000000       -3.07123200000000       -0.23829200000000
O            3.08880700000000       -1.28204500000000        0.87873500000000
H            2.83262400000000       -0.42615300000000        1.30585400000000
H            2.82989000000000       -1.97507600000000        1.53697700000000
O           -0.10845000000000        3.18879600000000        3.47210300000000
H            0.08310000000000        4.10714100000000        3.78921900000000
H           -0.13760400000000        2.64235400000000        4.29742900000000
O            2.78991500000000        0.04445700000000       -0.97305300000000
H            3.59320000000000        0.59633800000000       -1.14847200000000
H            3.04020900000000       -0.86286300000000       -1.28084700000000
O            0.27493900000000       -2.68783000000000        5.03174600000000
H            0.12993900000000       -2.91789500000000        5.98393100000000
H            1.21476100000000       -2.37841700000000        4.99160400000000
O            0.66436900000000       -0.54564600000000        6.23009700000000
H            0.11417300000000       -0.94240700000000        6.95153700000000
H            1.59521700000000       -0.78652200000000        6.46698100000000
34
 energy: -56.606948126045 gnorm: 0.101142588254 xtb: 6.7.1 (edcfbbe)
C           -0.01344978586015       -0.51957061562996        0.65443506932021
C           -0.01342838042007        0.08685768456962        2.04317808473311
O            0.03372132930706       -0.65411774985377        3.03570763518163
O            0.00697576642088        1.36990748899198        2.14532661755574
C           -0.01285904886001        0.53374812664243       -0.44569577542151
N           -0.00591629855050       -0.11194947555678       -1.76720100227915
H            0.87747404444653       -1.15341049962474        0.57570256734438
H           -0.89802571381586       -1.16468954438630        0.58806157502292
H           -0.89598711327739        1.17154762682066       -0.33886696653891
H            0.87830049680192        1.16198526219668       -0.33919865180678
H           -0.84310900506506       -0.70613596938313       -1.87602610051976
H            0.84712149663801       -0.68863361194181       -1.86041389800261
H            0.00044711713565        0.61062225997955       -2.50251797580005
O            2.89989617260756       -1.06167115385095        3.96112818697385
H            2.98901134238974       -0.24094136029242        4.47268023395529
H            2.11449781498710       -0.90983429867235        3.39805625754154
O            1.51274452236322       -3.75007053805966        0.45816805176631
H            2.39120045248859       -4.01404376387101        0.77751235200672
H            1.68697638892468       -3.08241790870957       -0.22709976405933
O            3.10062236514694       -1.31482718572424        0.92387499874135
H            2.85137839821491       -0.45618336847045        1.30522285010632
H            2.83795659000570       -1.97639440730012        1.58284483512815
O           -0.11646124840110        3.24927983508042        3.50406051861589
H            0.08503992573604        4.14191464577874        3.83636274941874
H           -0.13578456142327        2.66634722602416        4.28290600643970
O            2.77868049282992        0.07546786405015       -1.09632657732024
H            3.59940139061042        0.59900395580372       -1.15245606962574
H            3.07282406680526       -0.84299512460945       -1.27298958572589
O            0.29109408425546       -2.79113734420008        5.01629928125145
H            0.13945239995385       -2.92961172275059        5.97059686843284
H            1.18143997759075       -2.38288472305144        4.96724541113324
O            0.68793548461841       -0.46166725852996        6.29881193470180
H            0.12329672801708       -0.92271016709049        6.94835447695663
H            1.59158630737783       -0.78439018437881        6.48286180477232
34
 energy: -56.621835958852 gnorm: 0.038657772272 xtb: 6.7.1 (edcfbbe)
C           -0.02689207081442       -0.52642759249245        0.63093233172895
C            0.03296994556126        0.10006998088032        2.03552211205595
O            0.10313973940325       -0.67411480996671        3.02142210464674
O           -0.02362851236854        1.32755351082335        2.09355754998500
C           -0.03387714935491        0.53802045233685       -0.44474693054105
N           -0.01507550364425       -0.10209185855529       -1.77908552403569
H            0.85388597599618       -1.15612826444034        0.55322825546083
H           -0.90345635875722       -1.17212539247434        0.59814507545380
H           -0.90386061808494        1.17345197794155       -0.32806802539704
H            0.85201221341088        1.15346518746376       -0.32929578296895
H           -0.83043886297095       -0.70969516113085       -1.88708570607772
H            0.84673205359035       -0.65387168030286       -1.85193223765200
H           -0.00535492396232        0.61077129935627       -2.50943652162367
O            2.86906864330593       -1.05248892580473        3.94958105574394
H            2.99315298261858       -0.24811851769251        4.45471201269132
H            2.02299285075026       -0.91655199465379        3.47546609894282
O            1.51731444036635       -3.76444895030467        0.44219619145861
H            2.37201802114762       -4.03945644623651        0.77590148866956
H            1.70315731034193       -3.09269254962679       -0.21779183158132
O            3.11789497859791       -1.34386815193457        0.94975237434423
H            2.88568037632318       -0.47941339835780        1.29420054789032
H            2.85956931680533       -1.97324600700096        1.62227889888338
O           -0.13803603062243        3.31761550609570        3.53925454305729
H            0.09426153727314        4.18201316870595        3.88929747727392
H           -0.13556183425208        2.69095841572727        4.26869221967608
O            2.79300099552974        0.08185758966938       -1.16969455791640
H            3.58927260441587        0.60964405461944       -1.18598979120499
H            3.10588699963014       -0.82830872717231       -1.27311466789579
O            0.29741933523464       -2.84335867707810        5.02315086796929
H            0.15822753941059       -2.96673319619814        5.96372943337834
H            1.15349356190180       -2.40042668295109        4.93931180861829
O            0.71268432105856       -0.45583212131646        6.32666672484103
H            0.12985415308844       -0.87312238508799        6.95993514252520
H            1.59654596907046       -0.76650565284049        6.51991326160023
34
 energy: -56.630932773125 gnorm: 0.068725387640 xtb: 6.7.1 (edcfbbe)
C           -0.04123926772161       -0.54523133040705        0.61559964022934
C            0.02418782044595        0.11133667290422        2.02643569104368
O            0.23605298293573       -0.68062371215871        3.00268326004884
O           -0.01586329308933        1.33445908455247        2.06941631809385
C           -0.05706432171060        0.53253521192865       -0.44533305962436
N           -0.02006349772741       -0.09024605131721       -1.79202461868402
H            0.84420262858572       -1.16684282261840        0.53045064203024
H           -0.91626686172466       -1.19142566366750        0.59910225191954
H           -0.92994949091034        1.16474905891549       -0.32539908710642
H            0.82720322734035        1.15046803406881       -0.32015557142969
H           -0.81829466346416       -0.71917618002816       -1.90558981593985
H            0.86000949943600       -0.61602263500536       -1.85107102082317
H           -0.01535680661440        0.62529619789233       -2.51938976613311
O            2.81534721673111       -1.04911394975084        3.92701597961568
H            2.99524134253110       -0.25359105077482        4.43604372165300
H            1.89235661671640       -0.91996948099080        3.55699582063096
O            1.51289346150811       -3.79216406112523        0.41302882880736
H            2.34936445547864       -4.07942132505233        0.78659634351459
H            1.73003656636225       -3.09020597901562       -0.20936707631836
O            3.12095952854784       -1.37260032617441        0.95067238507340
H            2.92711676799327       -0.48860279926350        1.27323134463104
H            2.88879210993627       -1.96681170631457        1.67084070473371
O           -0.17466952944759        3.39493315413164        3.56666745211267
H            0.11519219999098        4.22780770542736        3.96397415069099
H           -0.13638327333729        2.70689479442478        4.24820732999479
O            2.78737022952378        0.08120166196776       -1.27647986242157
H            3.58617021727122        0.62803695791570       -1.19059756182206
H            3.16351541985432       -0.83668739223643       -1.25474946103504
O            0.31208574683810       -2.95552254168711        5.01908346327199
H            0.17711379943536       -2.98352578211422        5.97988793117722
H            1.11729478573585       -2.39569815028970        4.90031721234841
O            0.75071340922014       -0.38893600549900        6.38500019565640
H            0.12085601770336       -0.84242062773317        6.96003787078429
H            1.61512895562628       -0.78648496090503        6.55947436327655
34
 energy: -56.635642525092 gnorm: 0.071689237172 xtb: 6.7.1 (edcfbbe)
C           -0.04412726119872       -0.56464276842457        0.60453554180839
C            0.06990241953545        0.11309838214096        2.01781625045045
O            0.31885603830095       -0.68220641730237        2.98241648354623
O           -0.03365402578027        1.34694738945431        2.05526250937305
C           -0.07516399583647        0.52338694904460       -0.44852815830502
N           -0.02333614074411       -0.07785863871946       -1.80670263283255
H            0.83567054318186       -1.19341269373734        0.50195964487019
H           -0.93074626879273       -1.19672093168844        0.61118037445987
H           -0.95558557280106        1.15009475094861       -0.32225495210277
H            0.80494417972931        1.15088740322097       -0.31481779638895
H           -0.80358547336388       -0.73208414543064       -1.92698730842317
H            0.87773693793405       -0.57422856087216       -1.86062874655259
H           -0.03174713365832        0.64473131928928       -2.53044983363878
O            2.69853795256345       -1.07360121456736        3.96161161761590
H            2.98201619969497       -0.25542012116877        4.41313728255359
H            1.82709335846057       -0.90003042532345        3.57574131719250
O            1.50436377860270       -3.83220635583785        0.36916433448571
H            2.31857185984073       -4.12533211677813        0.80413087276193
H            1.76749394777864       -3.08063155199287       -0.19455738024575
O            3.14467075437222       -1.42358694138834        0.97309398978809
H            2.97620033150357       -0.51271678703407        1.25593618824701
H            2.91976737833487       -1.96954193592985        1.74632863986411
O           -0.21714272434615        3.48034243604137        3.59979097341478
H            0.14050671900881        4.27793638698892        4.04387295766703
H           -0.14062862545990        2.73823130373110        4.23352017984547
O            2.82643326552602        0.07489975951924       -1.29874553658952
H            3.58136847016832        0.65413874440289       -1.24984866852635
H            3.16358115049480       -0.80699346849427       -1.32605974181542
O            0.30915366218361       -2.99940959025148        5.02019311777399
H            0.18879947790037       -3.02633805874602        5.97730009252550
H            1.09963457095396       -2.46611073414169        4.85812897875064
O            0.79245865129361       -0.30878236005309        6.45372925412042
H            0.11679052586652       -0.80519420499622        6.96657060365477
H            1.63521904875344       -0.80125080190346        6.60476555065263
34
 energy: -56.639591052233 gnorm: 0.059644383909 xtb: 6.7.1 (edcfbbe)
C           -0.04125519612470       -0.57174816430931        0.59916993816120
C            0.12005485921496        0.10903335485719        2.00879442863619
O            0.27843822285169       -0.67591658474400        2.95960639740965
O           -0.04113515760811        1.35228826550067        2.06164600683215
C           -0.08304945195934        0.51581499424953       -0.45669587922485
N           -0.02129052964775       -0.07053171347506       -1.81930499123020
H            0.82493275408185       -1.22154750457723        0.48500633373725
H           -0.94529143371651       -1.18219642904629        0.62087360559923
H           -0.97579437958210        1.13100174596864       -0.32657097943881
H            0.78898373148322        1.15815835740917       -0.31676271210080
H           -0.78575723898405       -0.74763722524525       -1.94461457561914
H            0.89800184503297       -0.53972180249727       -1.87834011830552
H           -0.05138160829331        0.66002726944231       -2.53973763207155
O            2.70640915910618       -1.06786412531450        3.94070721243492
H            2.94320172276789       -0.27152436964104        4.42485288860406
H            1.77886016359653       -0.92084182742087        3.62715249711942
O            1.49720577082873       -3.86116165159439        0.34206713578740
H            2.29444352475574       -4.16262311596707        0.81095156322511
H            1.79226323817132       -3.08522763680039       -0.18316420529976
O            3.14668106108848       -1.44345514453092        0.96855867101639
H            3.00042547163148       -0.52688871494320        1.24639439402325
H            2.95345621058880       -1.96346406606533        1.77465301465333
O           -0.20550865148657        3.53457751585534        3.63031324536906
H            0.14070855281444        4.32175258019970        4.07657678632827
H           -0.15538058269006        2.80073314641956        4.24734396177026
O            2.82096420882887        0.06513199297717       -1.37913463958284
H            3.55738441010050        0.67863983830930       -1.28172090985944
H            3.21742580298992       -0.82485524290112       -1.29114248789585
O            0.31084865771708       -3.04537938472634        5.02680784847297
H            0.20847747733205       -3.06582260867950        5.98230064370657
H            1.07764714945306       -2.50121563361741        4.82874356131792
O            0.80243877630721       -0.34897620575106        6.44891316501508
H            0.14272215620660       -0.74544642402435        7.01274637785499
H            1.64792330314419       -0.73671948531629        6.64361545355576
34
 energy: -56.643117816244 gnorm: 0.048532491254 xtb: 6.7.1 (edcfbbe)
C           -0.05830617911283       -0.55907323525453        0.59619340031579
C            0.06175130821283        0.11024798302842        2.00718313738140
O            0.27525124068488       -0.67803811792823        2.95003913095592
O            0.02517549861451        1.33829347872077        2.08018960963510
C           -0.09397325238930        0.51772534870541       -0.46670478146619
N           -0.01586079098605       -0.06497777078340       -1.82928950266799
H            0.80304791867080       -1.21728763134855        0.49106091820824
H           -0.95862988746901       -1.16924924265406        0.61614669048994
H           -0.99723092603328        1.11557601118132       -0.34217732229872
H            0.76523085563850        1.17359702749224       -0.31797508757109
H           -0.76247337378198       -0.76058213881924       -1.95920587535126
H            0.91633013956002       -0.50822221140847       -1.89472476842333
H           -0.06851559633964        0.66796345453707       -2.54583598179514
O            2.69761488781699       -1.08018211927750        3.95455597308034
H            2.91466037979710       -0.28592039616644        4.43291555039780
H            1.78343520942494       -0.93410296805723        3.63686347755087
O            1.50072291303234       -3.86065602960079        0.35587337337442
H            2.28888163544122       -4.19405097406584        0.79174301687264
H            1.79444484759364       -3.12238066403347       -0.18515920462328
O            3.17602618408437       -1.45400146872490        0.98101470519057
H            3.00793483540904       -0.54978380660779        1.25147239133873
H            2.98002375990643       -1.96868276805387        1.77206205108939
O           -0.20864950264325        3.59028979701351        3.64918881425396
H            0.14412847595068        4.35828382449164        4.10932052783815
H           -0.15944503289002        2.84214359381721        4.24091714417126
O            2.83047743137768        0.04979669438967       -1.40286282415079
H            3.53357385683679        0.69253929579024       -1.32693103930510
H            3.23218704425552       -0.82528731895807       -1.30243575245690
O            0.31830272736930       -3.11426616383263        5.03664459819213
H            0.23827253414716       -3.08170819259484        6.00261385722565
H            1.04541390314512       -2.48599756708856        4.80199996358320
O            0.82966690059811       -0.35434210127292        6.45735189252661
H            0.14398172876874       -0.69632813630780        7.02273739504371
H            1.66060232530989       -0.74494148632772        6.68582052139604
34
 energy: -56.641544018637 gnorm: 0.097730172960 xtb: 6.7.1 (edcfbbe)
C           -0.07437886572609       -0.54341781157112        0.59435519073425
C            0.02777103826547        0.11085047167875        2.00766392784185
O            0.27963672854797       -0.68385011686404        2.94784521230932
O            0.04194297480385        1.33100423820812        2.09145141303587
C           -0.10766126611697        0.52339111930522       -0.47548448529627
N           -0.00691269650588       -0.05858968703880       -1.83614491976182
H            0.78300653313471       -1.20648415095223        0.49208526848602
H           -0.96990179055889       -1.15772883828382        0.61929818004416
H           -1.02168182115003        1.10220824725923       -0.36129124806483
H            0.73636873171637        1.19381336731563       -0.31805074037698
H           -0.72994089847730       -0.77615771959496       -1.97153170287236
H            0.94021928277114       -0.46908708148680       -1.90991487205347
H           -0.08903517184418        0.67440641153760       -2.54878150644282
O            2.69470893991907       -1.09420999115708        3.95032427968126
H            2.91774927697597       -0.30336498651669        4.43368283616306
H            1.76283452277993       -0.94367807242407        3.66226036836220
O            1.49680358505459       -3.89297832971797        0.32112058364450
H            2.25770213324132       -4.23851992370045        0.79605722233122
H            1.82933482794497       -3.12814442076984       -0.16758921702746
O            3.17965069036500       -1.47061209917400        0.97660264614973
H            3.02494085796628       -0.56196367101871        1.23300054258156
H            3.01301687925274       -1.96225956121999        1.78538998997987
O           -0.26526653559682        3.67911546025376        3.66284390493016
H            0.17197484268272        4.39902686050189        4.17692732006927
H           -0.14748259746556        2.85969884675182        4.19854463463345
O            2.81018558652354        0.02409695461064       -1.48186346757096
H            3.49758651722342        0.70373793309071       -1.34060480564459
H            3.28156684297880       -0.84365652571986       -1.28052655720157
O            0.31725729766831       -3.08404364190598        5.04217213805384
H            0.22951182922683       -3.11714879118581        5.98199671296927
H            1.06131605775787       -2.57894753137389        4.80786803573199
O            0.89127335407472       -0.28694702982472        6.50284564608392
H            0.12512942122571       -0.63374752995980        7.00488662310418
H            1.68482689134167       -0.81941839905188        6.75316684539477
34
 energy: -56.647480518277 gnorm: 0.054115492607 xtb: 6.7.1 (edcfbbe)
C           -0.07867120219719       -0.54263891528402        0.59209926002605
C            0.06373726825315        0.10188620279315        2.00668397329399
O            0.26036197785724       -0.69522841292455        2.94789733123640
O            0.00668688756344        1.33660834033946        2.08963736725218
C           -0.11533606905649        0.52842162904420       -0.47677232755102
N           -0.00083847289878       -0.05201569194950       -1.83644901085185
H            0.77628177509378       -1.20758412237326        0.48025855362385
H           -0.97932964813761       -1.15410536792714        0.62183521504786
H           -1.03427380020100        1.10203625360488       -0.37050254346073
H            0.72314663091399        1.20547340868516       -0.31476294528613
H           -0.71221065193703       -0.78045129520031       -1.97672898740475
H            0.95341026257415       -0.44738944746667       -1.91429889902640
H           -0.09670741747685        0.68092525082806       -2.54795836618204
O            2.69039187659662       -1.10714464908522        3.94595371906294
H            2.93394401261235       -0.31272981524176        4.43349006464163
H            1.74703284894753       -0.94991692443077        3.67310415929864
O            1.49186480445741       -3.91753812684696        0.28950865301906
H            2.23703174236595       -4.26433038834592        0.80873707323248
H            1.85847227712155       -3.11478617497895       -0.15320056361330
O            3.18038340982851       -1.49347022789850        0.98111144732390
H            3.03989881179626       -0.56434282723416        1.21268297586933
H            3.02603429553315       -1.96051453966539        1.82006155359358
O           -0.24433047072666        3.70397348682238        3.67371417634333
H            0.16160429371508        4.42491122183743        4.18363612998433
H           -0.15615120715338        2.89356242185359        4.20582785252198
O            2.82508333681045        0.01209193274043       -1.46430271787875
H            3.49857408439753        0.69585349101757       -1.36208356394047
H            3.25406636429797       -0.82755347529435       -1.33473027788973
O            0.32638815526294       -3.16929910788407        5.04232974364477
H            0.25206803277061       -3.10821550849546        6.00904812938422
H            1.03210432587322       -2.54950631815469        4.78558582504468
O            0.89822244852109       -0.28575073280211        6.50820339764255
H            0.13511537050134       -0.62269819456427        7.01686869451329
H            1.68999764612101       -0.81213937551729        6.77412090748705
34
 energy: -56.641948793463 gnorm: 0.120152539136 xtb: 6.7.1 (edcfbbe)
C           -0.08710226134232       -0.54682462071432        0.58930743518938
C            0.08737563374948        0.08924031863585        2.00599073144899
O            0.27091860266688       -0.71260572106305        2.94800892396715
O           -0.01638195420501        1.33758497975282        2.08990147260494
C           -0.13166118610202        0.53383509031374       -0.47473155489984
N            0.00717674264337       -0.04249791505125       -1.83475470734505
H            0.76916335020759       -1.20853865214470        0.46493794524552
H           -0.99107751607462       -1.15665082095385        0.62038031324614
H           -1.05851620795394        1.09964166725940       -0.38127949134799
H            0.69813940221155        1.22103237522516       -0.30283842374463
H           -0.68439868629009       -0.79013119938409       -1.98194822058378
H            0.97462334927249       -0.41246712409390       -1.91106642990152
H           -0.10684412617277        0.68870304694790       -2.54587362684339
O            2.59634988621048       -1.15094069360930        4.01091269058788
H            2.93047888291988       -0.31161715609673        4.41297139091263
H            1.80177477391021       -0.93143954572217        3.60060843680368
O            1.49629467853634       -3.88756067469577        0.33852951804119
H            2.24555070426286       -4.28693369814094        0.77664990788101
H            1.83437662015311       -3.17222586306769       -0.17450291826116
O            3.18361510300826       -1.49938783788185        0.97419124583157
H            3.04272955180521       -0.56928627258098        1.19852475756766
H            3.04748160328997       -1.95846036601986        1.81990203714756
O           -0.21131127346954        3.73393638659774        3.69228441444477
H            0.15269164852182        4.45685753129984        4.18373276207550
H           -0.17713925936459        2.95461885867361        4.22088768267521
O            2.81288377319306        0.00511836236311       -1.51109475358286
H            3.47331755136403        0.69051626297471       -1.41363660384951
H            3.27527727873224       -0.84424123624391       -1.27859779034835
O            0.33861045502471       -3.21838823883386        5.04598138412435
H            0.26835270019133       -3.13834943114742        6.01345276884296
H            1.02105295136100       -2.55267153947839        4.78159420477316
O            0.88489901089193       -0.32535631561665        6.51233885097991
H            0.20004675646945       -0.63735221216426        7.07646728518895
H            1.69530546037876       -0.71076374533783        6.78337436113150
34
 energy: -56.649052105159 gnorm: 0.057530348487 xtb: 6.7.1 (edcfbbe)
C           -0.09226697427031       -0.54055558025738        0.58798561048975
C            0.05316679594555        0.09205552189602        2.00228605613384
O            0.26323326509029       -0.70998581862216        2.94413911297101
O            0.00328198732643        1.33515152280408        2.09546853845493
C           -0.13745541534435        0.53869763732704       -0.47643036014793
N            0.01304891937425       -0.03760073979954       -1.83466394930492
H            0.76407401625627       -1.20313803676188        0.46406624908909
H           -0.99317819386403       -1.15275631526268        0.61505198143321
H           -1.07002045223303        1.09600288434674       -0.38903459284039
H            0.68479119602844        1.23301151370612       -0.29754855454785
H           -0.66746187685936       -0.79438103423547       -1.98323030091187
H            0.98564330673240       -0.39414708629414       -1.91124369142712
H           -0.11268296841443        0.69145896981626       -2.54575360002319
O            2.66965066431552       -1.13307915151176        3.94799787156251
H            2.91264644731653       -0.34753324595250        4.44251626653391
H            1.75423257190220       -0.94726622180008        3.64589933860002
O            1.49455424820136       -3.89739387403311        0.32305579734589
H            2.22888859094364       -4.31117923736279        0.77885425072256
H            1.85863209581991       -3.16869864526652       -0.16561651540414
O            3.20243054885704       -1.50348336947310        0.98916126096723
H            3.03809408591150       -0.57959998947591        1.20022043667740
H            3.05064166830971       -1.96144605562995        1.81797170727948
O           -0.23876717533313        3.77592830417964        3.69087814101117
H            0.17800588892752        4.47237615026954        4.22009305063848
H           -0.17857742819767        2.95535064659836        4.18953387950951
O            2.82505633096594       -0.00843655684760       -1.49431647435652
H            3.46674607984847        0.68589743086767       -1.43838505436140
H            3.25434043114319       -0.83487766513007       -1.31870750692487
O            0.33665912747149       -3.19185456829743        5.04948964755616
H            0.26458802066869       -3.16807440113730        5.99713269774895
H            1.02974884718443       -2.59350489866408        4.79112203344500
O            0.89626499135344       -0.32340679888665        6.51935556096048
H            0.20306687749423       -0.62408159744494        7.08403843871053
H            1.70297748112884       -0.70305569366307        6.80921867241304
34