34
 energy: -56.454334454708 gnorm: 0.216685023557 xtb: 6.7.1 (edcfbbe)
C            0.00071700000000       -0.52255800000000        0.67804400000000
C            0.00015500000000        0.09392700000000        2.05036800000000
O           -0.00019500000000       -0.63013100000000        3.03226200000000
O           -0.00079700000000        1.43155900000000        2.21643300000000
C            0.00098900000000        0.52531100000000       -0.44326000000000
N           -0.00030100000000       -0.11659100000000       -1.75665200000000
H            0.90259300000000       -1.16292800000000        0.57888800000000
H           -0.90264000000000       -1.16023800000000        0.57901700000000
H           -0.90200200000000        1.16741300000000       -0.35103700000000
H            0.90366600000000        1.16894900000000       -0.35172000000000
H           -0.85706900000000       -0.70553200000000       -1.86752300000000
H            0.85322800000000       -0.71006900000000       -1.86779500000000
H            0.00165600000000        0.62088700000000       -2.49702600000000
O            0.80797400000000       -2.62365400000000        4.77945600000000
H            0.06726100000000       -2.03296800000000        5.06763000000000
H            1.35477600000000       -2.05971900000000        4.17646400000000
O           -0.97121800000000        4.84668300000000        1.49356700000000
H           -1.23690900000000        3.91175700000000        1.68312800000000
H           -0.29592200000000        4.77149700000000        0.77319500000000
O            2.64028300000000        1.79658000000000        3.47290200000000
H            3.06532000000000        0.98501100000000        3.09699100000000
H            2.55497900000000        2.41185100000000        2.70168300000000
O           -0.40197200000000       -0.99491700000000       -5.40727500000000
H           -0.04151800000000       -1.91719200000000       -5.41693000000000
H           -1.26130800000000       -1.06947800000000       -4.92086500000000
O           -2.50797300000000       -2.05809500000000       -2.40499000000000
H           -2.30229700000000       -2.52892100000000       -1.55844900000000
H           -1.83345600000000       -2.39546100000000       -3.04672500000000
O            0.55645100000000       -3.05497300000000       -0.80700200000000
H            1.47518000000000       -3.42173600000000       -0.76192100000000
H           -0.03146500000000       -3.84612300000000       -0.71187700000000
O            3.38454100000000        0.16598100000000       -2.48093300000000
H            3.34704900000000        0.20039400000000       -3.46988300000000
H            3.46132900000000        1.11317100000000       -2.20245700000000
34
 energy: -56.492588007085 gnorm: 0.124946182195 xtb: 6.7.1 (edcfbbe)
C           -0.00016136839641       -0.51098630242262        0.67152098691565
C           -0.00482990921999        0.12165171989193        2.06848835907578
O            0.00392694107593       -0.62412712383914        3.04430998588884
O           -0.01580812180773        1.40390479377972        2.12852807603693
C           -0.00107096283175        0.53207954268599       -0.43278533715198
N           -0.00224278321544       -0.11534496569298       -1.76498075237738
H            0.88780482745926       -1.15036166435525        0.58570086515542
H           -0.88815614055802       -1.15165795745385        0.58567801977769
H           -0.88900036444433        1.16750287713859       -0.33763781160222
H            0.88824932476709        1.16605675956572       -0.33758652512221
H           -0.85181048913949       -0.70672617201037       -1.86598613543119
H            0.84045980897232       -0.71069328011692       -1.85890873198007
H            0.00259729218629        0.60033066586004       -2.50932639726559
O            0.82076253772481       -2.61645308722407        4.80711140333910
H            0.07182817394711       -2.04700166614121        5.04641937633421
H            1.31757499134884       -2.06558718234103        4.18031851487868
O           -1.00684081523146        4.83695524082351        1.44708585369542
H           -1.19702955789731        3.91550513088790        1.71262503316896
H           -0.29310898611619        4.75960041557388        0.79321568686974
O            2.72854817375554        1.82465826741531        3.48772173292547
H            3.03235277523725        0.98459295664044        3.09442349835919
H            2.50937377197803        2.38771902348844        2.71701987224516
O           -0.37983285448849       -0.99330046694390       -5.33850723788747
H           -0.05859823621722       -1.90811205717712       -5.43716763033112
H           -1.27280816280666       -1.07642223819428       -4.95371652417804
O           -2.41493251162151       -1.99061487646955       -2.38235196248656
H           -2.32487535458913       -2.53629768022038       -1.57127516112847
H           -1.84460289981676       -2.44332582713197       -3.04025192823813
O            0.55643901391579       -3.07875400858487       -0.90471051050889
H            1.46137499302848       -3.41077257099525       -0.73879965815501
H           -0.01347442015056       -3.84172567052713       -0.68323172687789
O            3.30862682413448        0.17798647522681       -2.48935314775430
H            3.37365664094050        0.20481212448400       -3.46193752480286
H            3.48671284807622        1.09459580437877       -2.20594456138702
34
 energy: -56.505638025641 gnorm: 0.078832373954 xtb: 6.7.1 (edcfbbe)
C           -0.00343037176232       -0.50527876567016        0.65371922382610
C           -0.01373762615810        0.17477169533696        2.09251480262622
O            0.01985990438917       -0.62293189790878        3.03420195960245
O           -0.01208409818951        1.37870057507160        2.05863296052296
C           -0.00539687119702        0.53787464536295       -0.42219085232305
N           -0.00766312401104       -0.11806409984112       -1.77859468739399
H            0.87638147025579       -1.13903156497956        0.58843440893032
H           -0.88107207333311       -1.14373399914916        0.58874642164223
H           -0.88156477711768        1.16567926752902       -0.32801752538226
H            0.87509671364594        1.16050579253784       -0.33103463687749
H           -0.85146075617007       -0.71510643356550       -1.86783044527779
H            0.82382815034585       -0.71494082461928       -1.84871652892203
H            0.00299351292548        0.57228519856797       -2.52800825152127
O            0.82732812342814       -2.61171897058051        4.82314134756597
H            0.07693069848444       -2.06382905394490        5.03290436938186
H            1.27889924587961       -2.06701516772274        4.18290949420260
O           -1.01067448391293        4.80865691487022        1.43092479433429
H           -1.17557602066980        3.91355988202409        1.72649466667354
H           -0.30044942185600        4.74799682844358        0.80601925610036
O            2.76186948656718        1.83332930474961        3.48138301860031
H            3.01586667257513        0.99513383530179        3.11142840264587
H            2.48295766553189        2.37502167733927        2.74500414056694
O           -0.38404409708388       -1.00466068709984       -5.29885908216652
H           -0.06180291537290       -1.89000271898663       -5.43509884728254
H           -1.27250192422404       -1.07287122339487       -4.96043615497546
O           -2.34811966054191       -1.99158099694366       -2.37839239993004
H           -2.30724245519379       -2.49382905512225       -1.56952500589293
H           -1.81651967013079       -2.45157437648599       -3.01671193040666
O            0.55688634008337       -3.09844237778319       -0.91497759718188
H            1.44466058533659       -3.39440042697115       -0.76847956207415
H            0.00274726276496       -3.83403207953534       -0.69600458808499
O            3.26987102881201        0.19244807407009       -2.50315701958292
H            3.36831793177604        0.20339329956204       -3.45037903230305
H            3.47995055412289        1.07337472953623       -2.20433711964318
34
 energy: -56.511438953893 gnorm: 0.126551795883 xtb: 6.7.1 (edcfbbe)
C           -0.00483137275572       -0.52097784690911        0.64526757519086
C           -0.00141329393784        0.21071222617975        2.09966660599351
O            0.02553958976247       -0.59013877030986        3.03067487332505
O           -0.01998446443322        1.41794697214211        2.02211177009509
C           -0.01032875240845        0.52802496701053       -0.42037995450695
N           -0.01423609918464       -0.12751392815342       -1.78639665464568
H            0.88110379161811       -1.14667686777315        0.59027727483775
H           -0.88854039501627       -1.15203422750824        0.59603378205773
H           -0.88772735240351        1.15937757696843       -0.32859971402387
H            0.87421871125894        1.15124108128555       -0.33588499688719
H           -0.85894589320825       -0.72799056985729       -1.87227203695582
H            0.81651268686030       -0.72617707732232       -1.84270833483852
H            0.00252729647397        0.55596083837312       -2.54267514361875
O            0.84392637873888       -2.60212624697138        4.86095744087541
H            0.04987434745185       -2.08406532638318        5.02689240756748
H            1.24774055231864       -2.07071585882435        4.16281816774858
O           -1.06028744035762        4.79453146218615        1.37748053461262
H           -1.13523219563152        3.89805855270232        1.76715817386551
H           -0.27360772412696        4.73752459241980        0.82251670246357
O            2.87361912145702        1.87787755445439        3.50689392932442
H            2.96244042529237        0.97088803171652        3.11331395460452
H            2.40998106930487        2.35564398446409        2.75385316108665
O           -0.34616045413756       -0.98773928846790       -5.19540436138794
H           -0.07610182997165       -1.88884580648607       -5.46669560534120
H           -1.30558336931345       -1.07804295942464       -4.99471760920423
O           -2.20435857924600       -1.87576852063311       -2.34539139476432
H           -2.33355913368056       -2.49024317387494       -1.56562486174980
H           -1.81201116183642       -2.52585027130952       -3.01792357886692
O            0.55125378673625       -3.12053437276632       -1.05383116844236
H            1.44958675891295       -3.36616943066639       -0.74346158913276
H            0.00672768867950       -3.83791644943223       -0.64807896416759
O            3.15747172397423        0.20042733093445       -2.50827942972519
H            3.40031247340353        0.20018277828239       -3.45802866131349
H            3.51117810940465        1.06081604395119       -2.19385429407653
34
 energy: -56.515928261720 gnorm: 0.087705369525 xtb: 6.7.1 (edcfbbe)
C           -0.00525527740290       -0.53022755582657        0.64577314629402
C            0.00989570298641        0.22770109763625        2.09933614866269
O            0.03396422411753       -0.54627864244727        3.04412584021529
O           -0.02824271484431        1.46584764648747        1.98736420154304
C           -0.01290613995076        0.51558792418923       -0.42689643083450
N           -0.01405601543716       -0.13621632568568       -1.79344980238747
H            0.88468993072499       -1.15270507657417        0.59524055220266
H           -0.89310009763396       -1.15870185839808        0.60664500563071
H           -0.89255232170608        1.15098060666796       -0.33587917744035
H            0.87364545251148        1.14303829621798       -0.34356648610804
H           -0.85941456001357       -0.73781285411616       -1.88127566075440
H            0.81761346720963       -0.73678905844292       -1.84415272234966
H            0.00650173467542        0.54527290967078       -2.55618516428468
O            0.84961355291685       -2.59549613045555        4.87729176873687
H            0.02851518497746       -2.10058924272508        5.02993080754135
H            1.22595868637458       -2.06849689791720        4.14818628730856
O           -1.08145156760123        4.77797549247407        1.35800789846997
H           -1.11839262102628        3.88262255161053        1.78345977874706
H           -0.25653905278010        4.72758392380178        0.83603569515538
O            2.80410502492599        1.85231009633034        3.49170000156023
H            2.98583366858481        0.98617084618709        3.13678240334979
H            2.44065450250786        2.37340284394257        2.77936399070690
O           -0.35080646374034       -0.98674989570162       -5.17684481337601
H           -0.07475636212635       -1.88074410650732       -5.45971473972933
H           -1.30823173512645       -1.07438159206903       -4.98464650200568
O           -2.24359942923404       -1.96625310663923       -2.36994072850808
H           -2.27902665074286       -2.43383417667838       -1.54208849833736
H           -1.74016024580099       -2.46928472607319       -2.98596029612960
O            0.54792172885303       -3.12893812520696       -1.08203960498310
H            1.45240478053127       -3.35287172884354       -0.76057954630593
H            0.00913955590478       -3.84351458331680       -0.66014008918289
O            3.13935958091531        0.20108372947714       -2.51372640423622
H            3.38530372968655        0.19774234333538       -3.45929835552773
H            3.49447574676254        1.05225237559291       -2.18715050364406
34
 energy: -56.508725355604 gnorm: 0.139289928165 xtb: 6.7.1 (edcfbbe)
C           -0.00932671838550       -0.52719600383852        0.64236780764370
C            0.00227043902602        0.24402332899886        2.10243529418070
O            0.05621123582833       -0.51541843952525        3.05202564270825
O           -0.01146318427041        1.49460546213869        1.98457534944187
C           -0.01839178220704        0.50560248092695       -0.44221699646437
N           -0.01715442072301       -0.14744954192630       -1.80602314265193
H            0.88315090673205       -1.14902448381518        0.59997576721948
H           -0.89716637177486       -1.15712081049553        0.61509741586108
H           -0.89913567374759        1.14290045114129       -0.34907488918507
H            0.86863751886211        1.13604316864360       -0.35885196202804
H           -0.86318763613030       -0.75143638674016       -1.89862343827467
H            0.81564671732178       -0.74851183752608       -1.85244915011905
H            0.00812848394981        0.53023884915452       -2.57516495544077
O            0.82762251752620       -2.59847285903201        4.82379033895773
H            0.04091375915280       -2.10792959567717        5.05485131831090
H            1.22870081710153       -2.04815587367005        4.15254014894876
O           -0.99705758254262        4.73462336777893        1.43880217114825
H           -1.16453255679528        3.87365193293617        1.73512512111997
H           -0.28832584014754        4.72110540712534        0.82044936780974
O            2.83606505797197        1.86543515425889        3.49462937440313
H            2.96414236474123        0.98114783496314        3.15252506124933
H            2.40824328603633        2.36563854165738        2.79728623913490
O           -0.40351113819976       -1.01237994246415       -5.22876895428886
H           -0.05787673035330       -1.86007681649775       -5.41258320069443
H           -1.28146796285020       -1.06043855937215       -4.93458707090422
O           -2.16553580419520       -1.92579251103234       -2.35720548223046
H           -2.27729774413223       -2.40580522856056       -1.53047808447705
H           -1.70600772646080       -2.50040597341904       -2.96724890236776
O            0.54770290854151       -3.12627155974558       -0.93508404881655
H            1.44093399096368       -3.35419503384527       -0.85257377741717
H            0.00631716216579       -3.83820701301699       -0.75686142224980
O            3.20581276124633        0.20521301064257       -2.52425788277714
H            3.32075722021630        0.19196909811413       -3.44716770853669
H            3.42728672553215        1.04177738171746       -2.18154734921394
34
 energy: -56.522325706625 gnorm: 0.057282427968 xtb: 6.7.1 (edcfbbe)
C           -0.01062248446134       -0.51316180535461        0.63900234206714
C            0.00022163519946        0.25877166507821        2.09572548474990
O            0.06727400041096       -0.51022085786952        3.04051022766414
O           -0.00090596522276        1.47960611768404        2.00174899850382
C           -0.01983845246508        0.50901685507888       -0.45083004178422
N           -0.01548838679787       -0.15256202488438       -1.81068989373294
H            0.87867162064899       -1.13928804185046        0.60176819266992
H           -0.89531123280743       -1.14725958781287        0.61866071436058
H           -0.90097258316084        1.14166283887269       -0.36098525060930
H            0.86491918908706        1.13820522614972       -0.36782837672674
H           -0.86186284537719       -0.75705688522984       -1.90583778741444
H            0.81690805997111       -0.75262900398506       -1.85473894533181
H            0.01122885030392        0.52227707520986       -2.57955391332029
O            0.82110112056472       -2.60046472166910        4.81039889703615
H            0.04064719123917       -2.11531670221427        5.06652387699343
H            1.21619780736258       -2.03444460852880        4.14902459673958
O           -1.03140420574724        4.73041093427807        1.40615436574748
H           -1.13069744043589        3.85025721842401        1.76651848176848
H           -0.27532125253764        4.71235078441234        0.82857878182778
O            2.85910192798519        1.87557833427896        3.50763583684207
H            2.94982811707909        0.97631436225648        3.15827269816007
H            2.38008817318516        2.35884228169129        2.80343789181659
O           -0.36577047715501       -0.99059789493559       -5.14768901659450
H           -0.06795627767196       -1.86377409124817       -5.43573870136295
H           -1.31463614210307       -1.06934359966605       -4.96202882316167
O           -2.14217298041905       -1.91799666857181       -2.35406812839135
H           -2.26532288074126       -2.38593060600150       -1.51986861501459
H           -1.68416540258154       -2.51517328205843       -2.95475613585114
O            0.53684765605539       -3.12631558392504       -0.98587351555108
H            1.44730604760132       -3.33287599768646       -0.86190008170832
H            0.00900085521456       -3.85965991932588       -0.73519653036810
O            3.11580956623959        0.20055331978533       -2.52277771322516
H            3.34685090691195        0.19544101156815       -3.45887349760292
H            3.45155128462491        1.03447085804672       -2.16901841919596
34
 energy: -56.503178629912 gnorm: 0.176845444476 xtb: 6.7.1 (edcfbbe)
C           -0.00852763665018       -0.50416136126184        0.63512107452041
C            0.02951707999746        0.28848751099564        2.08794162145364
O            0.08035135477879       -0.48034965979110        3.03462664402242
O           -0.00622636289935        1.48656475807590        1.98736665177761
C           -0.02068147891507        0.50733599446229       -0.46140914825047
N           -0.00869048062379       -0.16101076875752       -1.81906261142969
H            0.87591578656233       -1.13489105920121        0.60396041963624
H           -0.89414801185179       -1.13711419614304        0.63250996801331
H           -0.90371649660153        1.13538531382410       -0.38129151008351
H            0.86074478709676        1.13834266557225       -0.38294024284529
H           -0.85438482615136       -0.76947379086260       -1.92257254930223
H            0.82456541946955       -0.75703201195073       -1.85849867651025
H            0.02184188190257        0.50899056582593       -2.58861522799194
O            0.82868735119974       -2.59592123083148        4.82724854833511
H            0.01768207079056       -2.14215482806414        5.08131600305105
H            1.16904033051095       -2.01453151819995        4.12620653942425
O           -1.09710604961287        4.71249965318693        1.34763863781767
H           -1.07577866556087        3.81004702478584        1.80668895493876
H           -0.24112020201575        4.69804492766327        0.85782377137379
O            2.80039970176961        1.86260428268971        3.49492853756345
H            2.94511554520220        0.98636952090578        3.18714701156237
H            2.39967772431308        2.37083847703476        2.82673169202054
O           -0.39115530319046       -0.99590946866840       -5.15984363583650
H           -0.06093669299302       -1.85074242391457       -5.40736071288323
H           -1.30223361627555       -1.05656142223086       -4.91755988411593
O           -2.04466538199265       -1.84184168386352       -2.32510137198822
H           -2.27700710758170       -2.38441087004504       -1.51292825652728
H           -1.66956770029720       -2.56848614119773       -2.93803583706397
O            0.51272286034339       -3.14526880233496       -1.23092746703100
H            1.45754727760046       -3.27884538445083       -0.80819284596876
H            0.02496429176697       -3.89418108459354       -0.62205192942489
O            3.09989910130127        0.19438478471131       -2.52483674022267
H            3.32025089918632        0.18923492865797       -3.45827115744762
H            3.41812754942027        1.02344429796673       -2.16204827058772
34
 energy: -56.527710290180 gnorm: 0.056215173784 xtb: 6.7.1 (edcfbbe)
C           -0.00798172152561       -0.50651190168517        0.63489836102783
C            0.03339355694164        0.28723435071682        2.08991564700389
O            0.08828500226562       -0.47332303871365        3.04059342735866
O           -0.00639535712759        1.50834438625146        1.97493123423046
C           -0.02025140407603        0.50600559248189       -0.46413927293095
N           -0.00414659911779       -0.16063741328873       -1.82078175532298
H            0.87829677871549       -1.13522389163133        0.60289019771099
H           -0.89631018732333       -1.13578401432018        0.63416091892888
H           -0.90565335765758        1.13488040228634       -0.38698133150929
H            0.86089089394425        1.14089832259728       -0.38615019126978
H           -0.84908041887809       -0.77147215401018       -1.92569385957475
H            0.82938247248418       -0.75752749917506       -1.85945418748353
H            0.02615720876723        0.50839703033285       -2.59323996844830
O            0.83062391275737       -2.59284214547299        4.82412829427240
H            0.01466117127587       -2.14895791969107        5.08524202845963
H            1.15940265578153       -2.00756851446342        4.11947529415208
O           -1.06622113048237        4.69454433810185        1.37455859950444
H           -1.08820110310472        3.80997786722507        1.78952220795738
H           -0.25118125816550        4.69363216463989        0.85411542381063
O            2.86958990235263        1.89082211765799        3.51501861698858
H            2.91397941037151        0.96976537965377        3.18423303817985
H            2.34991591408928        2.35817108111022        2.82261548166570
O           -0.37418487109302       -0.98767862515234       -5.11741864959406
H           -0.06912488760799       -1.85013857975195       -5.41866181187824
H           -1.31379615563995       -1.06038854288765       -4.93082440184512
O           -2.08563043682383       -1.90675486425742       -2.33595442371260
H           -2.24580885900853       -2.36714928525760       -1.50694502117965
H           -1.64657847391230       -2.52564767995219       -2.92207212508714
O            0.51986568272611       -3.14059048419155       -1.11341257497519
H            1.44758683092997       -3.29359162360758       -0.86514023512789
H            0.02445453829353       -3.88277370294237       -0.70067272549489
O            3.06694906223664        0.19624173119078       -2.52609122040224
H            3.32573431719609        0.18871389797871       -3.45692862945535
H            3.42248191041492        1.01662021822330       -2.16002838595983
34
 energy: -56.496496192944 gnorm: 0.218342759365 xtb: 6.7.1 (edcfbbe)
C           -0.01015303586802       -0.49832503114843        0.62902408703398
C            0.01305832348334        0.29986466279253        2.08675780043465
O            0.12567467707451       -0.45983273504859        3.03686118361171
O            0.02489790794413        1.52412444043000        1.97178845118649
C           -0.02118392634065        0.50764130791641       -0.47555870369469
N            0.00388215650458       -0.16393126604641       -1.82866547661463
H            0.87901790896293       -1.12526692173309        0.60282403693344
H           -0.89716401728086       -1.12776777201508        0.63259907699855
H           -0.91029051770514        1.13275068526791       -0.40375199587675
H            0.85676007033027        1.14779501827130       -0.39575353953876
H           -0.83858656116026       -0.78053862160305       -1.93694463008198
H            0.83967900807983       -0.75840997296126       -1.86337076590193
H            0.03500040232953        0.50188721426127       -2.60455179703338
O            0.80232947023218       -2.59667218002963        4.77077991839260
H            0.02760954146131       -2.14807369172412        5.10336723524030
H            1.15517580814302       -1.98782892484758        4.12887507578726
O           -1.01473663390225        4.65286295955029        1.42356298279055
H           -1.10910378460201        3.79367655607459        1.76468348205529
H           -0.27257830789505        4.67818283383141        0.84917070882347
O            2.72649861013995        1.83539402445287        3.48263941955905
H            2.97322932638343        1.00894160654000        3.22178573404987
H            2.39798691493553        2.38036363672491        2.85550699590742
O           -0.31296986498898       -0.96378581605123       -4.97559041827330
H           -0.09289514798538       -1.85077438801599       -5.45013865276177
H           -1.35692360957762       -1.07417403912833       -4.98686203163338
O           -2.00662757056981       -1.85115288223839       -2.31955745036185
H           -2.27097740626167       -2.35865277315719       -1.50046905937274
H           -1.64092329076984       -2.59092875191436       -2.90883855739979
O            0.52743867022286       -3.14048756121730       -1.02442793463219
H            1.43005973121749       -3.31198905611980       -0.90149479480159
H            0.01954702637654       -3.85782910605608       -0.79312282251229
O            2.99066945398918        0.19781731177516       -2.52950674812656
H            3.32819486606618        0.18611613647853       -3.45467828223977
H            3.42950880103133        0.99869009668468       -2.15123452794771
34
 energy: -56.528320105553 gnorm: 0.050456617015 xtb: 6.7.1 (edcfbbe)
C           -0.00967404905207       -0.49339366869064        0.62987258554530
C            0.02578712617170        0.30207021852118        2.07978004531920
O            0.12681942521585       -0.45341281486582        3.03409393587637
O            0.02215650198813        1.52306036819438        1.97360649915273
C           -0.02035967743787        0.51002722044784       -0.47868077211041
N            0.00929770071591       -0.16275069107655       -1.82833336192386
H            0.87768821118747       -1.12291873343061        0.60182520516449
H           -0.89700170614496       -1.12367062716469        0.63365923181718
H           -0.91107522343012        1.13300594181723       -0.40923495449475
H            0.85617217182096        1.15139966141266       -0.39701760894900
H           -0.83178609309256       -0.78041659166957       -1.93878057638631
H            0.84571182423624       -0.75605712044076       -1.86410410691016
H            0.03957652427566        0.50219353666748       -2.60507678466422
O            0.80293998334290       -2.59818086461745        4.76796934363144
H            0.02613610009828       -2.15194507321444        5.10828705228894
H            1.14684936817647       -1.97912482330593        4.12206520717956
O           -1.04152859819394        4.65548987949648        1.40071170897235
H           -1.08600268481521        3.77568272525903        1.78444288498846
H           -0.25893875350093        4.67500162567617        0.85392030975346
O            2.79948307089186        1.86407714064816        3.51228232148554
H            2.94927625271213        0.98591683073930        3.21459152258855
H            2.34001203928832        2.36955717675887        2.84579097280772
O           -0.36708831405033       -0.98594338157778       -5.06508330063211
H           -0.07366413379395       -1.83791494550555       -5.39894126636183
H           -1.32482373178057       -1.05904685632978       -4.93349033064114
O           -2.04511757622699       -1.89920773638056       -2.32844058554374
H           -2.24863678524420       -2.34782467246516       -1.49451798412857
H           -1.62548347291631       -2.56332586811532       -2.89811632124930
O            0.51991264728718       -3.13608100114554       -1.08363765423118
H            1.43854740684440       -3.30162417478043       -0.88526526612539
H            0.01641684867822       -3.87289951658742       -0.76598172340801
O            3.01145593574649        0.19501199609848       -2.52935769986512
H            3.30876377728817        0.18512742705638       -3.45235202704458
H            3.40928288371395        0.99780441256614       -2.15077850190197
34