37
 energy: -59.766263184140 gnorm: 0.173486677754 xtb: 6.7.1 (edcfbbe)
N           -0.44376700000000       -0.47181200000000        1.74520500000000
C            0.69351000000000        0.10436000000000        1.02689900000000
C            0.25232500000000        0.99958500000000       -0.14624500000000
C           -0.57382300000000        0.30680200000000       -1.24485700000000
C            0.17276200000000       -0.78812900000000       -1.95771100000000
O            0.40822200000000       -0.68794500000000       -3.15102700000000
O            0.54634400000000       -1.90328400000000       -1.30373900000000
H           -0.08747200000000       -1.00411400000000        2.57127000000000
H           -1.08118400000000        0.28586300000000        2.08138600000000
H            1.28097900000000        0.73286000000000        1.73117400000000
H            1.36804500000000       -0.70373400000000        0.67713900000000
H            1.15866700000000        1.44313000000000       -0.61117500000000
H           -0.35578800000000        1.83434200000000        0.26527400000000
H           -1.51736400000000       -0.10080200000000       -0.82923500000000
H           -0.85273400000000        1.08677100000000       -1.98587200000000
H           -0.96872000000000       -1.13389300000000        1.13151600000000
O            2.26469900000000        0.09744000000000       -5.00064900000000
H            1.95315600000000        1.03721500000000       -5.02000000000000
H            2.03323500000000       -0.25913500000000       -5.89501600000000
O            3.53776100000000        2.60861600000000       -1.56266400000000
H            3.67346600000000        1.83068100000000       -0.96515900000000
H            2.82837500000000        3.13992900000000       -1.12097400000000
O            1.83177700000000        3.10116800000000       -3.82619600000000
H            2.73132100000000        2.68805900000000       -3.79840700000000
H            1.50900700000000        3.05595400000000       -2.89110900000000
O            2.15330700000000       -3.10557700000000       -3.51757500000000
H            2.40126700000000       -2.33455200000000       -4.08735200000000
H            1.20974500000000       -3.29385400000000       -3.75178900000000
O           -2.31682600000000       -3.37939400000000        2.39561800000000
H           -1.67946600000000       -3.94127900000000        1.88702400000000
H           -1.92165200000000       -3.31360800000000        3.30122500000000
O            0.42809100000000       -2.71865800000000       -5.74077900000000
H            0.62230100000000       -1.85529700000000       -5.29636900000000
H           -0.04846000000000       -2.46820400000000       -6.57191300000000
O           -0.97439400000000        0.08255000000000       -6.65378200000000
H           -0.02898200000000        0.37337800000000       -6.60658000000000
H           -1.06193300000000       -0.59412600000000       -5.93610600000000
37
 energy: -59.788820506687 gnorm: 0.087582816706 xtb: 6.7.1 (edcfbbe)
N           -0.43949371893999       -0.47142259793868        1.74692341272382
C            0.70251301427593        0.11215868919513        1.02577410553933
C            0.25161876576536        1.00443008920340       -0.13286502331195
C           -0.57101153007948        0.31033450868801       -1.22723660677783
C            0.16050051000672       -0.80541433953907       -1.95620366994494
O            0.37608033557372       -0.71043395919564       -3.17156722360763
O            0.50387424358549       -1.84566899363213       -1.26832793507028
H           -0.09722840145672       -1.00345456101673        2.56113842987609
H           -1.07967261082255        0.26982886766960        2.07518844254200
H            1.28516898685905        0.72606398345980        1.72463639111834
H            1.34335815317613       -0.69574625786261        0.64932360438680
H            1.14668720052472        1.42737573918730       -0.60358961120853
H           -0.34587639976151        1.83619863525682        0.26358106342162
H           -1.50435045564434       -0.09923138167342       -0.82110113209035
H           -0.84684902313882        1.05895421096345       -1.98320470946535
H           -0.95503551900333       -1.12292264139328        1.13388277161054
O            2.28164547334863        0.10573540817249       -5.03165402439336
H            1.93687602230048        1.01780732903259       -5.01247847175667
H            2.04988001139112       -0.23986470659229       -5.90917618600325
O            3.51905010232405        2.59907295134827       -1.55948044196108
H            3.68628509126440        1.84123448747252       -0.97503094274481
H            2.86475438092425        3.14822056880475       -1.09191972922108
O            1.83112506727850        3.06673670327485       -3.84321184044143
H            2.73468928371171        2.70833039737249       -3.77587938375933
H            1.50360827517682        3.05592368206158       -2.92857827909626
O            2.18902660519015       -3.15372159833307       -3.55890249073251
H            2.39744689135904       -2.32813622103506       -4.04042883136680
H            1.23767810203883       -3.28444465705560       -3.72995760859091
O           -2.27164045567020       -3.33034893672593        2.38208876382844
H           -1.69833305552500       -3.95335548641504        1.89837688640642
H           -1.93583399855876       -3.34606954541025        3.29950387717114
O            0.42213332772836       -2.69956749955137       -5.75741219554959
H            0.59447296313241       -1.86574113673049       -5.27944966846934
H           -0.04445264074437       -2.44984542321171       -6.57317496248654
O           -0.96204962374638        0.04217230492093       -6.67663374774273
H           -0.05492982321907        0.38720785720733       -6.59468964742960
H           -1.06591855062546       -0.56109046997879       -5.91681338540207
37
 energy: -59.797351827372 gnorm: 0.028318375825 xtb: 6.7.1 (edcfbbe)
N           -0.43492565381030       -0.47374354159414        1.74650604827988
C            0.71090212434316        0.11650028942101        1.01821820180288
C            0.25491403688244        1.01293341877257       -0.12737876358385
C           -0.57433351583283        0.31963118708346       -1.21293292325897
C            0.15197520459240       -0.83255167853580       -1.94186776187031
O            0.30045809621249       -0.74132005138862       -3.18307940389038
O            0.46737222283320       -1.81193245811545       -1.24777579031188
H           -0.10258777077421       -1.00553586110397        2.55278044581236
H           -1.08073422445534        0.25501057272845        2.06455590043072
H            1.29459765143062        0.71166294990133        1.71696442354248
H            1.31971378002599       -0.69433768947114        0.61723872462287
H            1.14363763321533        1.42116982807156       -0.60258026175517
H           -0.33528833625444        1.84070360426528        0.26392217320586
H           -1.49463499115565       -0.09980390768728       -0.80690931389673
H           -0.85157237350533        1.05130160538700       -1.97342047322127
H           -0.93894453532251       -1.11909880363249        1.13010344006778
O            2.28399973682838        0.10769563864880       -5.06098846587850
H            1.92782495009633        1.00233174747352       -4.99993605250037
H            2.07994563782204       -0.21607782612220       -5.93992766272005
O            3.50610581212109        2.59730869383752       -1.55162907740427
H            3.71212096370058        1.84661453744159       -0.99059826669654
H            2.91281565332290        3.16730483509878       -1.04578608388599
O            1.83427758789494        3.02103396916242       -3.87085594155203
H            2.74894237831852        2.72469749431819       -3.75427425550387
H            1.48514334485851        3.04777775895819       -2.97641872829248
O            2.21145972230843       -3.16019649424106       -3.54649393728741
H            2.41235109926195       -2.34062557699317       -4.00527536978560
H            1.28102386862875       -3.30531969946359       -3.71943673237102
O           -2.23331481718432       -3.29839746046601        2.37599893145254
H           -1.70755532600010       -3.94462187414486        1.89496579740048
H           -1.94479878575728       -3.36575148595002        3.29671852437847
O            0.40569824359226       -2.67414285775126       -5.77123095141269
H            0.55629350331844       -1.87321723852602       -5.24865397717450
H           -0.04195514089702       -2.41618231670132       -6.58033459893826
O           -0.95882854277731        0.01350209977246       -6.68542848624397
H           -0.08197586702039        0.39925708264564       -6.59669891940414
H           -1.07432637086206       -0.53227449109878       -5.89661041215551
37
 energy: -59.798396992468 gnorm: 0.092799161001 xtb: 6.7.1 (edcfbbe)
N           -0.43226020993803       -0.47666619334530        1.74004743219920
C            0.71430424675159        0.11483762628060        1.00596136518862
C            0.25496092615558        1.01896475047170       -0.13247392212471
C           -0.58981239898838        0.33120510695810       -1.21104868487859
C            0.10428997092616       -0.87001760688476       -1.93164176934021
O            0.23700880191075       -0.78105990765035       -3.17716757974431
O            0.46665261699055       -1.80161884859992       -1.20255492249853
H           -0.10158352451645       -1.00906017804480        2.54609405026507
H           -1.08342288057776        0.24889590406286        2.05261846891463
H            1.30840289465962        0.69618153366219        1.70693619436016
H            1.30594486766740       -0.70001152129241        0.58991135682949
H            1.14552288631504        1.41738513123058       -0.61309821464122
H           -0.32321068954132        1.85248540903634        0.26543243515469
H           -1.50717569569259       -0.08098133630825       -0.79289855912846
H           -0.86220143517427        1.05695371408907       -1.97630786439707
H           -0.92970914297261       -1.12248864484034        1.11914302550323
O            2.29742394413405        0.10403477910313       -5.09082522302146
H            1.90729915846307        0.98473830726763       -4.97030550815799
H            2.10960175309667       -0.18379781527885       -5.98749685068141
O            3.47166197029078        2.58820649134517       -1.56649625466294
H            3.75862905580886        1.85521947728719       -1.00514799187036
H            2.97196779112707        3.19859812685698       -0.97602738460721
O            1.83907979964659        2.95591182022720       -3.91321013210106
H            2.77916489853849        2.73804644876791       -3.72439706702022
H            1.45293195530571        3.04915781761835       -3.03074018383121
O            2.27184035513912       -3.23248210948491       -3.59750783271621
H            2.41853412391555       -2.30655281263182       -3.92925651321428
H            1.30571181286055       -3.31188252357644       -3.67871986438066
O           -2.15597689299455       -3.19611872608832        2.34850275736495
H           -1.73465275532300       -3.97213109694924        1.89278590447949
H           -1.96291859206015       -3.41752115935855        3.31099040791986
O            0.40515911455451       -2.65205337718325       -5.78740773235008
H            0.50260097543021       -1.88035920716024       -5.19590952822459
H           -0.04427795112371       -2.36494071933564       -6.58595562830687
O           -0.94892052644710       -0.05999296397808       -6.73361709839667
H           -0.11684571155652        0.44396629509874       -6.58288763402707
H           -1.08992851278210       -0.48374599137107       -5.84387345385486
37
 energy: -59.802277944096 gnorm: 0.055589439223 xtb: 6.7.1 (edcfbbe)
N           -0.42976956678384       -0.48010408029007        1.73374827913333
C            0.71640255396316        0.11191033709741        0.99694895760885
C            0.25404414331502        1.02273902080862       -0.13640635664646
C           -0.60149287020215        0.34001003283895       -1.21144171366902
C            0.07271629661110       -0.89015265996974       -1.92514952103718
O            0.18927581557109       -0.81495536880972       -3.17269967607788
O            0.46125637483425       -1.80238959964000       -1.16617482829897
H           -0.09902087870767       -1.01284817566749        2.54156930500821
H           -1.08550644418991        0.24433337816987        2.04335648099230
H            1.32005952940011        0.68474003209497        1.69933462779428
H            1.29923410459798       -0.70486137397312        0.57112283848380
H            1.14672639190614        1.41561887347965       -0.62178169788976
H           -0.31438742649420        1.86262256354949        0.26796167523939
H           -1.52021427834549       -0.06296071540133       -0.78403944970222
H           -0.86886046248334        1.06097373554604       -1.98231114789666
H           -0.92305648747799       -1.12914050189344        1.11070817251472
O            2.30245395983827        0.09885409094167       -5.10755885949548
H            1.89922417229432        0.97310055057934       -4.95089494507683
H            2.13171556574148       -0.15796313238846       -6.02254364605093
O            3.47559440659665        2.60129192090636       -1.55435469347960
H            3.79055088990206        1.86001670178827       -1.01406168296205
H            2.99844986996289        3.20381395665750       -0.94306917181186
O            1.85490460157943        2.93008121241431       -3.93500213830180
H            2.78782205900493        2.72277361055131       -3.71162105829445
H            1.43163823770899        3.03909837291182       -3.06703407282278
O            2.29135343746161       -3.23295272631674       -3.58043265718194
H            2.44157710150900       -2.32289924383695       -3.91875602854817
H            1.32860360713776       -3.32942521527545       -3.66165370781430
O           -2.19296865530109       -3.27081259568117        2.37710224356954
H           -1.71749726323848       -3.91999178306711        1.87117737597279
H           -1.93609684880120       -3.35739647708096        3.28427458494138
O            0.40055789201965       -2.63745819002946       -5.79106835828415
H            0.47266564296345       -1.88524289628091       -5.16293710111559
H           -0.04786954122669       -2.32490603238035       -6.58508628563825
O           -0.96690772078332       -0.02630396404125       -6.68992507501971
H           -0.12815670470408        0.43801782296065       -6.60134387151237
H           -1.08922450518064       -0.49592548127034       -5.85850679662910
37
 energy: -59.800643890474 gnorm: 0.085969306064 xtb: 6.7.1 (edcfbbe)
N           -0.42534639455402       -0.48249888039322        1.72681339471126
C            0.71958142364518        0.10935468188313        0.99132562098048
C            0.25482610852714        1.02533227184053       -0.13801896632583
C           -0.60591335150036        0.34250981105487       -1.20792253831068
C            0.09268268166955       -0.87689113732223       -1.90946130273875
O            0.13672035791580       -0.84862060655384       -3.16813235372980
O            0.40566666249103       -1.83297988796904       -1.16639082626688
H           -0.09299879039311       -1.01342142350043        2.53833075454745
H           -1.08521238820013        0.24210192320752        2.03430845753901
H            1.33010771471368        0.67901191250212        1.69317508438118
H            1.30169976872133       -0.70668732553076        0.56153308830425
H            1.14699714586133        1.41906642138308       -0.62890999976508
H           -0.30977085836014        1.86876085304254        0.27009586662379
H           -1.53229130359319       -0.05025140615268       -0.78023367692681
H           -0.86881946844314        1.05909899873002       -1.98572234084545
H           -0.91455043700870       -1.13736224185080        1.10320442649564
O            2.27431562743729        0.09116198488724       -5.09950244234517
H            1.91981686012765        0.97389094546061       -4.95561011953643
H            2.14547528323521       -0.13617102602773       -6.03632489282622
O            3.53769986428522        2.65039836888904       -1.50221285161658
H            3.79911812199351        1.86409899144944       -1.02055704198858
H            2.98851105635949        3.17996806346564       -0.96413386423951
O            1.88234411251445        2.95428521468519       -3.93612357592190
H            2.76395815417317        2.67381598042116       -3.73481900005118
H            1.42613358187837        3.00147813542779       -3.09110728974845
O            2.26267283507174       -3.14428401338425       -3.47760084073558
H            2.48562059809279       -2.40002073268904       -3.97802649538513
H            1.35981827789000       -3.36854291727625       -3.67681534428559
O           -2.14071624281066       -3.20002535014051        2.35821521888527
H           -1.73090467762620       -3.92554590472838        1.86189095581431
H           -1.94911839950835       -3.39105122930213        3.29639233108456
O            0.36418479069107       -2.62416838342769       -5.75956253066880
H            0.48028122350719       -1.87969149586318       -5.16453403246262
H           -0.05753583664558       -2.29642158380798       -6.56733871228464
O           -0.97914977640000       -0.01863908910777       -6.67081484573053
H           -0.14529414349964        0.44045329155964       -6.61851282964488
H           -1.09481318225991       -0.49020721485918       -5.85544648498492
37
 energy: -59.804680236486 gnorm: 0.066365967405 xtb: 6.7.1 (edcfbbe)
N           -0.42099881926777       -0.48612951055363        1.72175365209395
C            0.72273075111697        0.10604421884973        0.98640546277374
C            0.25666920613330        1.02338637279360       -0.14024851111946
C           -0.61411467744616        0.34210115528971       -1.20280894413607
C            0.05892921828362       -0.88867754562348       -1.90668672947885
O            0.12149403474266       -0.85381989299504       -3.15616682673355
O            0.38477983511770       -1.83634436391129       -1.16693961472879
H           -0.08874741467912       -1.01407118264771        2.53448646457111
H           -1.08261751404880        0.23721974174509        2.02703806735728
H            1.33499737446589        0.67440156001412        1.68667855119531
H            1.30373789394302       -0.70922646994308        0.55433493747483
H            1.14687462471640        1.41574627918287       -0.63497334366414
H           -0.30266248076678        1.86859860208204        0.27046067449001
H           -1.54653372833783       -0.03416967787763       -0.77466466248065
H           -0.86781185443773        1.05892635530131       -1.98349360562049
H           -0.90734483453219       -1.14438723457208        1.09982919199566
O            2.26808491218075        0.08966896070974       -5.10601949043079
H            1.92514651597928        0.97499380320516       -4.95621448277150
H            2.14547913173398       -0.12050441298000       -6.04517476849287
O            3.49979697666132        2.62932872038079       -1.53595797618296
H            3.83430636697405        1.87319369815118       -1.03439191597971
H            3.04004805510903        3.21048902303856       -0.90215518871024
O            1.87742192602475        2.89269221246123       -3.96454490450866
H            2.79374134931603        2.68658149639290       -3.70377206053975
H            1.40613962104553        2.99822752658592       -3.12465826200503
O            2.27240956424974       -3.14615518209773       -3.45691850268597
H            2.49935513418027       -2.40457985942113       -3.98007525348268
H            1.37522611253817       -3.38844677312669       -3.67178975268418
O           -2.14062339775453       -3.20768664948900        2.36114857854934
H           -1.72167345120605       -3.90246791814067        1.84996789775166
H           -1.93693046843611       -3.37269185272004        3.28691988669242
O            0.36903346160448       -2.61518684356229       -5.76310539771007
H            0.45784099251925       -1.88477214604476       -5.13208523859645
H           -0.06758123036722       -2.26518897795735       -6.55315415132153
O           -0.97311397379589       -0.08497874895309       -6.72372962823347
H           -0.17130051641938        0.47387528954890       -6.61689663124505
H           -1.10639169714178       -0.44468377311262       -5.80094752140109
37
 energy: -59.798004192460 gnorm: 0.123792748475 xtb: 6.7.1 (edcfbbe)
N           -0.41706485820435       -0.49171528693189        1.71350555230033
C            0.72517386524296        0.10128848296793        0.97904087529434
C            0.25867022001616        1.01942826045105       -0.14489333583038
C           -0.62633394821272        0.34180149407303       -1.19814641173395
C           -0.02011401386670       -0.91858328136871       -1.91229443559344
O            0.10812224987871       -0.85235704109223       -3.13967397734285
O            0.37946103413577       -1.82570961288192       -1.16228676805541
H           -0.08640437205959       -1.01489201458804        2.52774383846496
H           -1.08076975119883        0.22921245240148        2.01514244386520
H            1.33720827698905        0.66810146566700        1.67811448733686
H            1.30529893570871       -0.71274987958600        0.54502294502990
H            1.14555585010376        1.40977934184017       -0.64360389798869
H           -0.29359230951454        1.86574598264654        0.26986759844654
H           -1.56527981930344       -0.00933808235162       -0.76724845597788
H           -0.86700526764717        1.06067291344869       -1.98107753472125
H           -0.89901198704124       -1.15406835777244        1.09409602632277
O            2.28040228188002        0.08761122077110       -5.12563196785151
H            1.92689663265617        0.97408161141531       -4.94403678235616
H            2.14010284707678       -0.09749093781626       -6.05698527436267
O            3.46843754495938        2.60758553843422       -1.56839384075486
H            3.86699849343282        1.88574223817532       -1.04197018361589
H            3.08914638373478        3.24128905361824       -0.84815196643370
O            1.86797166556801        2.82414218732000       -3.99666164267150
H            2.82588047487846        2.70398700967455       -3.67653460851086
H            1.39123778902896        2.99147278773336       -3.16076650269492
O            2.31840078256501       -3.21437400065509       -3.48930724342191
H            2.50063763972663       -2.35623838880307       -3.94470014103350
H            1.38632479872749       -3.39885904110120       -3.65123492352501
O           -2.08714615697508       -3.13079533661862        2.33943831342409
H           -1.73672259420734       -3.91450730069654        1.84750643016118
H           -1.94460644397757       -3.40150021873509        3.29298662788762
O            0.39479890584382       -2.60667483978136       -5.77651914310395
H            0.42101927426218       -1.89644931000345       -5.07613954925869
H           -0.07956792912303       -2.22586002037388       -6.52937303128863
O           -1.01362854739983        0.01722297125503       -6.62855341976250
H           -0.17017445091184        0.43984440155127       -6.64151277370717
H           -1.10452649677365       -0.49554046228355       -5.85531732693493
37
 energy: -59.806416024397 gnorm: 0.059849551465 xtb: 6.7.1 (edcfbbe)
N           -0.41495792147962       -0.49487757300185        1.70971814965480
C            0.72675574760313        0.09925953426912        0.97571368221371
C            0.25857692169742        1.01965150046829       -0.14641883797893
C           -0.62906565156403        0.34565850680383       -1.19888246620037
C           -0.01381688918762       -0.91254776919408       -1.90630549319062
O            0.07424063777412       -0.86890586414816       -3.14489455759239
O            0.35681500647096       -1.83376239332432       -1.15668232090378
H           -0.08487325923576       -1.01660639766849        2.52569292779150
H           -1.08091907727482        0.22526593641481        2.00923948595399
H            1.33962247910399        0.66459378564129        1.67592294420137
H            1.30650315463840       -0.71430340492004        0.53985992997100
H            1.14493694909106        1.40869834267521       -0.64803983340816
H           -0.29193086343130        1.86632010815594        0.27068028209785
H           -1.56837257546804       -0.00224028760771       -0.76425611535427
H           -0.86978665375904        1.06279301579856       -1.98360202161804
H           -0.89447287420354       -1.15989879643237        1.09049410556725
O            2.27701622122997        0.08294305584927       -5.12987450473192
H            1.93244737572116        0.97326375957202       -4.93550217884468
H            2.14442705607390       -0.08290844165975       -6.06838790087291
O            3.55117991471533        2.66089685851155       -1.50269034626153
H            3.85107418117217        1.88342753927778       -1.03831797376796
H            3.04753159322020        3.20224587196642       -0.91053762196537
O            1.89329679743974        2.87066525114757       -3.98084036922421
H            2.79419155882862        2.65717862121830       -3.70942947623613
H            1.40127083590712        2.96096101922594       -3.16182241929218
O            2.34222114340334       -3.24559007628292       -3.51194835971165
H            2.49970817432044       -2.34184974853857       -3.92529127303257
H            1.39000101853332       -3.39441024813761       -3.63808774489721
O           -2.10090169150506       -3.16546938974452        2.35060273528658
H           -1.72465063459325       -3.89072800233790        1.84017668755605
H           -1.93189039691659       -3.36919169738496        3.27688521137148
O            0.37393247329159       -2.59882469610162       -5.75047571246909
H            0.43103910673143       -1.89066778002518       -5.07918095391676
H           -0.07909902070222       -2.22072476436804       -6.51501852665129
O           -1.01305581285342       -0.01407887492973       -6.65005391668547
H           -0.18539282928922        0.45915619178334       -6.64147706115653
H           -1.10780519550541       -0.47408669296745       -5.82551815570007
37
 energy: -59.801095552791 gnorm: 0.112932028992 xtb: 6.7.1 (edcfbbe)
N           -0.41013001856709       -0.49891188571373        1.70620320648432
C            0.73132029530469        0.09739921550658        0.97136708315081
C            0.25710605455996        1.02304568651992       -0.14689096636179
C           -0.63237514199603        0.35584567270128       -1.20113868141070
C            0.06044761039785       -0.87602544892102       -1.88225948764641
O            0.00058245798085       -0.91324027063947       -3.16367964015708
O            0.30175935381634       -1.86000768054583       -1.14199857574844
H           -0.07944055163261       -1.02038508621990        2.52525611229154
H           -1.08103657827102        0.22069894562043        2.00260303744639
H            1.34870950961716        0.65957971721415        1.67360799875983
H            1.30844577714249       -0.71626275638263        0.53097565472921
H            1.14523201756820        1.40806983034929       -0.65395849937104
H           -0.28990104121652        1.87272612938906        0.27328871785838
H           -1.57030449396308        0.00193096965160       -0.76014838311075
H           -0.87862658368618        1.06606309098248       -1.99017874494040
H           -0.88611794226903       -1.16784025595339        1.08538265753703
O            2.24085686732773        0.07927169004652       -5.11479636296156
H            1.94596132942182        0.97473684110316       -4.94047088709889
H            2.16537055451009       -0.06573891186164       -6.08252353369460
O            3.49524522626836        2.64303127996810       -1.53313350557101
H            3.89936688095121        1.89669108091995       -1.05504126144532
H            3.10004398813028        3.21940710432513       -0.85850381062947
O            1.90520122061365        2.82631017966242       -3.99379098388796
H            2.79818125393105        2.65405010062297       -3.69402882699918
H            1.38764263210195        2.95934028494563       -3.18657355059103
O            2.30649221178918       -3.14558290030748       -3.42436533846678
H            2.53792776107940       -2.45239079351155       -3.98884379341113
H            1.41384066381785       -3.40221706940932       -3.64826817769720
O           -2.08751044968824       -3.16503371427851        2.35143350527200
H           -1.71889704273167       -3.86756880894499        1.82906958864868
H           -1.93256067516348       -3.35874367111704        3.26884754653171
O            0.34513123899106       -2.58474261057594       -5.71683152649931
H            0.43320953753477       -1.88736567355644       -5.08275304557242
H           -0.07781511873853       -2.20797179812643       -6.50288323144541
O           -1.00671336217964       -0.09008319010300       -6.70797716868570
H           -0.21555539608331        0.49637865813701       -6.64227390200978
H           -1.11529304667122       -0.42315795149226       -5.76327322329497
37
 energy: -59.810301689978 gnorm: 0.037212780903 xtb: 6.7.1 (edcfbbe)
N           -0.40701973337854       -0.50285517263224        1.70185072064725
C            0.73298524557601        0.09465463361560        0.96729938524154
C            0.25934438412394        1.01980897810908       -0.15013653860567
C           -0.64000952692363        0.35375530861916       -1.19925077783927