34
 energy: -56.719607241867 gnorm: 0.000484172890 xtb: 6.7.1 (edcfbbe)
C            1.55620597463022       -0.50061084894793        1.30687858441677
C            1.49971109136672        0.25473594657530        2.64184027110459
O            1.14185495212903       -0.37893405686601        3.65909822354178
O            1.78609668517231        1.47683373509404        2.63822547952721
C            0.36201551601197       -0.10797835944025        0.44110968134585
N            0.21915764375560       -1.05223264107394       -0.68319353761546
H            2.48957572140605       -0.25193242593819        0.80331216882974
H            1.53018297246496       -1.56726397030007        1.52313988151464
H           -0.54493494676917       -0.13185304086449        1.04874991785753
H            0.50724328901996        0.90428938944063        0.06218928912605
H            0.02789693210848       -2.00892225736120       -0.30292852597789
H            1.10463855210578       -1.08935810330795       -1.25256603113751
H           -0.55273463152525       -0.77618021749271       -1.29058008600748
O           -0.44578892006625       -3.40528579367554        0.57105966846888
H           -1.31033934708446       -3.81778997484582        0.48751832849877
H           -0.30132348883112       -3.25612268678227        1.52204288901196
O            1.11379365043717        0.69922591194521        6.27325257333528
H            1.11775246968972        0.23262596682639        5.41715308162555
H            1.29320671121586        1.62532426529495        6.03750456290280
O           -0.04330941583153       -2.82280702428123        3.25355432619322
H            0.20022823931868       -3.39357427942373        3.98710414316327
H            0.34833271571934       -1.94778891638820        3.44953796743899
O            3.95975293613245        0.86630938889939       -0.89145292978039
H            3.36567262243020        1.56821030688832       -0.55911173551211
H            4.85934319068485        1.16285591105970       -0.73619993664282
O            1.48216558401510        3.10640421191618        4.83044253748823
H            1.64358782687292        2.52210693676450        4.05888260831222
H            0.71102560416591        3.63644107247132        4.60269500887636
O            2.27818497767794        2.70169367918928        0.26349023794046
H            2.12517841679495        2.29394829957497        1.14325539442140
H            2.48287047127397        3.62672409560556        0.42511064394712
O            2.47484258493266       -1.04113635272215       -2.20880585146983
H            3.09752735025852       -0.44877154459836       -1.75356342122788
H            2.41299606832577       -0.72666362328180       -3.11561841343670
