[Molden Format]
[Title]
 Molden file created by orca_2mkl for BaseName=input

[Atoms] AU
N    1   7         -1.1456315138        -0.1330134524         4.9469068254 
C    2   6         -2.1233691844        -0.8786125060         2.4598028506 
C    3   6         -0.8714499212         0.6456005774         0.3624898849 
C    4   6         -1.5904055235        -0.4105160108        -2.2169544580 
C    5   6         -0.1803634000         0.7720237626        -4.4057464173 
O    6   8          1.6048012806         2.2823004691        -4.0023561130 
O    7   8         -0.8821724647         0.2181519966        -6.6153736619 
H    8   1          0.7984759481        -0.4045498870         4.9339464854 
H    9   1         -1.5438745585         1.7378338367         5.3464796544 
H   10   1         -4.1631552236        -0.6233306687         2.3864261682 
H   11   1         -1.6902271608        -2.8652150624         2.1719127855 
H   12   1          1.1729659254         0.5327218227         0.5562561892 
H   13   1         -1.4345037784         2.6213828947         0.4833418071 
H   14   1         -3.6043959330        -0.2060135600        -2.5873444485 
H   15   1         -1.1773074919        -2.4283279560        -2.3035367332 
H   16   1         -1.8722221752        -1.2931534365         6.3558573786 
[GTO]
  1 0
s   6 1.0 
    19730.8006470000         0.6956035199
     2957.8958745000         1.2986099328
      673.2213359500         2.2190880635
      190.6824949400         3.4636607549
       62.2954418980         4.6967555531
       22.6541611820         4.9522510945
s   2 1.0 
        8.9791477428         2.3880677979
        3.6863002370         0.7337878750
s   1 1.0 
        0.8466007680         0.6290267082
s   1 1.0 
        0.3364713377         0.3148626514
s   1 1.0 
        0.1364765367         0.1600308040
p   4 1.0 
       49.2003805100         2.1264813968
       11.3467905370         2.3279367185
        3.4273972411         2.0485729192
        1.1785525134         1.2607319854
p   1 1.0 
        0.4164220497         0.4768230427
p   1 1.0 
        0.1426082601         0.1249168256
d   1 1.0 
        1.6540000000         6.8771297418
d   1 1.0 
        0.4690000000         0.7577440909
f   1 1.0 
        1.0930000000         6.9645882147

  2 0
s   6 1.0 
    13575.3496820000         0.5435905310
     2035.2333680000         1.0145543947
      463.2256235900         1.7315731970
      131.2001959800         2.6910376290
       42.8530158910         3.6044547126
       15.5841857660         3.7025556986
s   2 1.0 
        6.2067138508         1.8383540830
        2.5764896527         0.5447575605
s   1 1.0 
        0.5769633942         0.4718145038
s   1 1.0 
        0.2297283136         0.2364944676
s   1 1.0 
        0.0951644400         0.1221141848
p   4 1.0 
       34.6972322440         1.3596651507
        7.9582622826         1.4512589486
        2.3780826883         1.2709231419
        0.8143320818         0.8025721189
p   1 1.0 
        0.2888754725         0.3018758868
p   1 1.0 
        0.1005682367         0.0807265016
d   1 1.0 
        1.0970000000         3.3522135855
d   1 1.0 
        0.3180000000         0.3838994974
f   1 1.0 
        0.7610000000         3.0840084332

  3 0
s   6 1.0 
    13575.3496820000         0.5435905310
     2035.2333680000         1.0145543947
      463.2256235900         1.7315731970
      131.2001959800         2.6910376290
       42.8530158910         3.6044547126
       15.5841857660         3.7025556986
s   2 1.0 
        6.2067138508         1.8383540830
        2.5764896527         0.5447575605
s   1 1.0 
        0.5769633942         0.4718145038
s   1 1.0 
        0.2297283136         0.2364944676
s   1 1.0 
        0.0951644400         0.1221141848
p   4 1.0 
       34.6972322440         1.3596651507
        7.9582622826         1.4512589486
        2.3780826883         1.2709231419
        0.8143320818         0.8025721189
p   1 1.0 
        0.2888754725         0.3018758868
p   1 1.0 
        0.1005682367         0.0807265016
d   1 1.0 
        1.0970000000         3.3522135855
d   1 1.0 
        0.3180000000         0.3838994974
f   1 1.0 
        0.7610000000         3.0840084332

  4 0
s   6 1.0 
    13575.3496820000         0.5435905310
     2035.2333680000         1.0145543947
      463.2256235900         1.7315731970
      131.2001959800         2.6910376290
       42.8530158910         3.6044547126
       15.5841857660         3.7025556986
s   2 1.0 
        6.2067138508         1.8383540830
        2.5764896527         0.5447575605
s   1 1.0 
        0.5769633942         0.4718145038
s   1 1.0 
        0.2297283136         0.2364944676
s   1 1.0 
        0.0951644400         0.1221141848
p   4 1.0 
       34.6972322440         1.3596651507
        7.9582622826         1.4512589486
        2.3780826883         1.2709231419
        0.8143320818         0.8025721189
p   1 1.0 
        0.2888754725         0.3018758868
p   1 1.0 
        0.1005682367         0.0807265016
d   1 1.0 
        1.0970000000         3.3522135855
d   1 1.0 
        0.3180000000         0.3838994974
f   1 1.0 
        0.7610000000         3.0840084332

  5 0
s   6 1.0 
    13575.3496820000         0.5435905310
     2035.2333680000         1.0145543947
      463.2256235900         1.7315731970
      131.2001959800         2.6910376290
       42.8530158910         3.6044547126
       15.5841857660         3.7025556986
s   2 1.0 
        6.2067138508         1.8383540830
        2.5764896527         0.5447575605
s   1 1.0 
        0.5769633942         0.4718145038
s   1 1.0 
        0.2297283136         0.2364944676
s   1 1.0 
        0.0951644400         0.1221141848
p   4 1.0 
       34.6972322440         1.3596651507
        7.9582622826         1.4512589486
        2.3780826883         1.2709231419
        0.8143320818         0.8025721189
p   1 1.0 
        0.2888754725         0.3018758868
p   1 1.0 
        0.1005682367         0.0807265016
d   1 1.0 
        1.0970000000         3.3522135855
d   1 1.0 
        0.3180000000         0.3838994974
f   1 1.0 
        0.7610000000         3.0840084332

  6 0
s   6 1.0 
    27032.3826310000         0.8598581479
     4052.3871392000         1.6055305368
      922.3272271000         2.7458778516
      261.2407098900         4.2987674426
       85.3546413510         5.8797663284
       31.0350352450         6.3163983216
s   2 1.0 
       12.2608607280         2.9812147522
        4.9987076005         0.9419559635
s   1 1.0 
        1.1703108158         0.8019291610
s   1 1.0 
        0.4647474099         0.4011648062
s   1 1.0 
        0.1850453636         0.2010799406
p   4 1.0 
       63.2749548010         3.0572017144
       14.6270493790         3.3844839414
        4.4501223456         2.9474262132
        1.5275799647         1.7118271494
p   1 1.0 
        0.5293511794         0.6436057926
p   1 1.0 
        0.1747842127         0.1610897254
d   1 1.0 
        2.3140000000        12.3767310624
d   1 1.0 
        0.6450000000         1.3234257612
f   1 1.0 
        1.4280000000        12.7097950062

  7 0
s   6 1.0 
    27032.3826310000         0.8598581479
     4052.3871392000         1.6055305368
      922.3272271000         2.7458778516
      261.2407098900         4.2987674426
       85.3546413510         5.8797663284
       31.0350352450         6.3163983216
s   2 1.0 
       12.2608607280         2.9812147522
        4.9987076005         0.9419559635
s   1 1.0 
        1.1703108158         0.8019291610
s   1 1.0 
        0.4647474099         0.4011648062
s   1 1.0 
        0.1850453636         0.2010799406
p   4 1.0 
       63.2749548010         3.0572017144
       14.6270493790         3.3844839414
        4.4501223456         2.9474262132
        1.5275799647         1.7118271494
p   1 1.0 
        0.5293511794         0.6436057926
p   1 1.0 
        0.1747842127         0.1610897254
d   1 1.0 
        2.3140000000        12.3767310624
d   1 1.0 
        0.6450000000         1.3234257612
f   1 1.0 
        1.4280000000        12.7097950062

  8 0
s   3 1.0 
       34.0613410000         0.2556299169
        5.1235746000         0.4613599649
        1.1646626000         0.6811214941
s   1 1.0 
        0.3272304100         0.3083545312
s   1 1.0 
        0.1030724100         0.1296483265
p   1 1.0 
        0.8000000000         1.0784563492

  9 0
s   3 1.0 
       34.0613410000         0.2556299169
        5.1235746000         0.4613599649
        1.1646626000         0.6811214941
s   1 1.0 
        0.3272304100         0.3083545312
s   1 1.0 
        0.1030724100         0.1296483265
p   1 1.0 
        0.8000000000         1.0784563492

 10 0
s   3 1.0 
       34.0613410000         0.2556299169
        5.1235746000         0.4613599649
        1.1646626000         0.6811214941
s   1 1.0 
        0.3272304100         0.3083545312
s   1 1.0 
        0.1030724100         0.1296483265
p   1 1.0 
        0.8000000000         1.0784563492

 11 0
s   3 1.0 
       34.0613410000         0.2556299169
        5.1235746000         0.4613599649
        1.1646626000         0.6811214941
s   1 1.0 
        0.3272304100         0.3083545312
s   1 1.0 
        0.1030724100         0.1296483265
p   1 1.0 
        0.8000000000         1.0784563492

 12 0
s   3 1.0 
       34.0613410000         0.2556299169
        5.1235746000         0.4613599649
        1.1646626000         0.6811214941
s   1 1.0 
        0.3272304100         0.3083545312
s   1 1.0 
        0.1030724100         0.1296483265
p   1 1.0 
        0.8000000000         1.0784563492

 13 0
s   3 1.0 
       34.0613410000         0.2556299169
        5.1235746000         0.4613599649
        1.1646626000         0.6811214941
s   1 1.0 
        0.3272304100         0.3083545312
s   1 1.0 
        0.1030724100         0.1296483265
p   1 1.0 
        0.8000000000         1.0784563492

 14 0
s   3 1.0 
       34.0613410000         0.2556299169
        5.1235746000         0.4613599649
        1.1646626000         0.6811214941
s   1 1.0 
        0.3272304100         0.3083545312
s   1 1.0 
        0.1030724100         0.1296483265
p   1 1.0 
        0.8000000000         1.0784563492

 15 0
s   3 1.0 
       34.0613410000         0.2556299169
        5.1235746000         0.4613599649
        1.1646626000         0.6811214941
s   1 1.0 
        0.3272304100         0.3083545312
s   1 1.0 
        0.1030724100         0.1296483265
p   1 1.0 
        0.8000000000         1.0784563492

 16 0
s   3 1.0 
       34.0613410000         0.2556299169
        5.1235746000         0.4613599649
        1.1646626000         0.6811214941
s   1 1.0 
        0.3272304100         0.3083545312
s   1 1.0 
        0.1030724100         0.1296483265
p   1 1.0 
        0.8000000000         1.0784563492

[5D]
[7F]
[9G]
[MO]
 Sym=     1a
 Ene= -1.90474296099024E+01
 Spin= Alpha
 Occup= 2.000000
  1      -0.000000511509
  2       0.000003073117
  3      -0.000030647273
  4      -0.000084381523
  5       0.000862176390
  6      -0.000012860001
  7      -0.000011939097
  8       0.000012376723
  9       0.000110660811
 10       0.000112138676
 11      -0.000000298776
 12      -0.000198598178
 13      -0.000270644390
 14      -0.000348017871
 15      -0.000015233169
 16      -0.000003595253
 17      -0.000004538542
 18       0.000006422470
 19       0.000005253622
 20       0.000065664308
 21      -0.000016430117
 22       0.000017733285
 23      -0.000044280102
 24      -0.000041858905
 25      -0.000012354950
 26       0.000001954399
 27      -0.000004273343
 28       0.000002374666
 29       0.000001460311
 30      -0.000004794584
 31       0.000003848849
 32       0.000000590052
 33      -0.000003148379
 34       0.000269328769
 35      -0.001838174043
 36      -0.001910168342
 37       0.000011008036
 38       0.000045799558
 39      -0.000005246326
 40      -0.000433194031
 41      -0.000711329384
 42       0.000528973037
 43      -0.000892833362
 44      -0.000421535232
 45      -0.000506503181
 46      -0.000041803718
 47       0.000021956251
 48       0.000003822250
 49      -0.000000700843
 50      -0.000010132308
 51       0.000299761929
 52       0.000110616459
 53       0.000311126878
 54       0.000028682312
 55      -0.000185125262
 56      -0.000043674662
 57       0.000001106887
 58      -0.000001804479
 59      -0.000024214403
 60       0.000038455733
 61      -0.000034012111
 62       0.000019207296
 63      -0.000001939596
 64       0.000007531340
 65       0.000248471395
 66      -0.002787764014
 67       0.010434008875
 68      -0.000028874288
 69      -0.000025653358
 70      -0.000058348600
 71       0.000329353942
 72       0.000668479990
 73       0.002524794245
 74      -0.000330562615
 75      -0.000951775084
 76      -0.000801900591
 77      -0.000104200920
 78       0.000053830198
 79       0.000027913894
 80      -0.000024718047
 81       0.000003115039
 82      -0.000107968194
 83      -0.000749578419
 84      -0.001010177517
 85       0.000207154002
 86      -0.000199536680
 87       0.000064804136
 88      -0.000012417307
 89       0.000036153700
 90      -0.000028825022
 91       0.000107815269
 92       0.000009742893
 93       0.000000779939
 94      -0.000021952826
 95       0.000107047043
 96      -0.000651733809
 97      -0.000059285340
 98      -0.003509958614
 99      -0.000082855878
100      -0.000118641788
101      -0.000071282645
102      -0.000985565917
103      -0.000073347232
104       0.003530099707
105      -0.000722044260
106      -0.000518370076
107      -0.004632183406
108      -0.000074140749
109       0.000057811609
110       0.000066306572
111      -0.000025954995
112      -0.000103138670
113       0.001257008194
114       0.001040971015
115       0.000922345234
116       0.000170242577
117       0.000254407869
118      -0.000015628460
119      -0.000037518487
120      -0.000042227107
121      -0.000008130970
122       0.000028536494
123      -0.000004927365
124      -0.000017723843
125      -0.000049015279
126       0.000282606022
127      -0.000456926821
128      -0.003523967982
129       0.001622586972
130      -0.000381707512
131      -0.000304281231
132      -0.000161955997
133      -0.006282565560
134      -0.005367039510
135      -0.000013602156
136       0.005098427730
137       0.004271119089
138       0.001981791265
139       0.000192723297
140      -0.000068105013
141      -0.000034412115
142      -0.000069489129
143      -0.000477184664
144       0.003022039640
145      -0.001729168515
146      -0.001575663207
147      -0.000588520642
148      -0.003190299081
149      -0.000076865451
150      -0.000102675034
151      -0.000077950076
152      -0.000015677656
153      -0.000013962277
154      -0.000191870463
155       0.000302394906
156      -0.435087703883
157      -0.639519832705
158      -0.036370091504
159       0.030310924950
160      -0.012972977420
161       0.001479461190
162       0.001253509183
163       0.000291289724
164      -0.004704542461
165      -0.003957479581
166      -0.000897830570
167       0.000882208669
168       0.000668442889
169      -0.000149838399
170       0.000179120355
171      -0.000072093994
172      -0.000057471856
173      -0.000032550480
174      -0.000211467845
175      -0.000860677609
176       0.000363008656
177       0.000300527288
178       0.000201646513
179       0.001244497635
180       0.000052372438
181       0.000086238635
182       0.000069683521
183      -0.000011240824
184      -0.000069160277
185      -0.000081048574
186       0.000139985246
187       0.000594709027
188       0.000861365585
189       0.000288047358
190      -0.001872944112
191       0.002744290263
192      -0.000025748593
193      -0.000018981977
194      -0.000100813959
195      -0.000250992718
196      -0.000219158101
197      -0.000028704696
198      -0.000709448648
199      -0.000641798226
200       0.000494523398
201      -0.000062252187
202       0.000012123449
203       0.000017119102
204      -0.000011367301
205      -0.000068621253
206       0.000208890770
207      -0.000154263527
208      -0.000156929107
209       0.000038554655
210       0.000226627942
211       0.000009627290
212      -0.000022198971
213      -0.000021267167
214       0.000015049431
215       0.000081397808
216       0.000026271813
217      -0.000048771644
218       0.000010559177
219      -0.000043293538
220       0.000189721345
221       0.000009412681
222       0.000006909252
223       0.000010252426
224      -0.000005496582
225      -0.000080927579
226       0.000248147896
227      -0.000002765656
228       0.000026263477
229       0.000008223814
230       0.000038930228
231       0.000067128473
232      -0.000327656801
233       0.000036758097
234       0.000002335309
235       0.000007208538
236       0.000004260895
237       0.000044048496
238       0.000186031348
239       0.000011112661
240       0.000016954307
241       0.000032120336
242       0.000022579633
243      -0.000469728525
244      -0.001550518322
245       0.000022821808
246       0.000012368204
247       0.000044170299
248       0.000073482338
249      -0.000377013372
250      -0.001452181058
251      -0.000011536542
252       0.000041442576
253       0.000087812196
254      -0.000013116676
255       0.000248064240
256       0.000086377761
257       0.000044650573
258       0.000139231541
259       0.000054136490
260       0.000059723328
261       0.001015693632
262       0.000104592559
263       0.000070558868
264       0.000167667679
265      -0.000005099736
266       0.000015911575
267      -0.000042057375
268       0.000006031768
269      -0.000006146399
270       0.000004844859
271      -0.000009988473
 Sym=     1a
 Ene= -1.90436192272662E+01
 Spin= Alpha
 Occup= 2.000000
  1      -0.000000125282
  2       0.000000930376
  3      -0.000032140881
  4       0.000086573481
  5       0.000514154980
  6       0.000015591580
  7       0.000000780325
  8       0.000024419920
  9      -0.000109209315
 10      -0.000016210264
 11      -0.000264237348
 12       0.000326072374
 13       0.000170024378
 14      -0.000515169023
 15      -0.000018499087
 16       0.000002479498
 17       0.000003510353
 18       0.000001617549
 19       0.000008293538
 20       0.000156269073
 21       0.000044934925
 22       0.000023500959
 23      -0.000006131210
 24      -0.000019662098
 25      -0.000012701784
 26      -0.000001404779
 27       0.000003263381
 28       0.000002158258
 29      -0.000007135724
 30       0.000002476944
 31       0.000000144367
 32      -0.000000685430
 33       0.000002840104
 34       0.000152976276
 35      -0.000905099225
 36       0.000453533763
 37       0.000016647463
 38       0.000040786847
 39       0.000015375425
 40      -0.000536123846
 41      -0.000845112097
 42       0.000087331778
 43      -0.000086493577
 44       0.000752278416
 45       0.000190757474
 46      -0.000008074603
 47       0.000013639101
 48       0.000028524280
 49      -0.000000997065
 50      -0.000011397794
 51      -0.000132756052
 52      -0.000016372975
 53       0.000099587587
 54       0.000012526750
 55      -0.000324245300
 56      -0.000036916071
 57      -0.000011013983
 58      -0.000010842495
 59      -0.000013791193
 60       0.000021863778
 61      -0.000012479785
 62       0.000000864229
 63      -0.000009353333
 64       0.000046537416
 65      -0.000340086865
 66      -0.000494685869
 67      -0.000175824414
 68      -0.000000253355
 69      -0.000014532952
 70       0.000014180632
 71       0.000069337774
 72       0.000159994038
 73       0.001462378027
 74       0.000744419490
 75       0.000596697089
 76      -0.002476962773
 77      -0.000130386570
 78       0.000039473888
 79       0.000011853328
 80      -0.000014429168
 81       0.000016224184
 82       0.000429827968
 83      -0.000403549606
 84      -0.000556487429
 85       0.000212670567
 86       0.000048806037
 87       0.000011308558
 88      -0.000047027284
 89      -0.000005528018
 90      -0.000010751755
 91       0.000024630020
 92      -0.000016848760
 93       0.000000409346
 94      -0.000016419568
 95       0.000078648904
 96      -0.000066328850
 97      -0.003250063895
 98       0.001348492230
 99      -0.000040787810
100      -0.000092643157
101       0.000032852823
102      -0.000978358361
103      -0.000346225328
104       0.002628109781
105       0.000214572001
106      -0.000849030666
107       0.002099134137
108      -0.000149398672
109       0.000006149588
110       0.000007631078
111      -0.000019820711
112      -0.000070413228
113       0.000537288114
114       0.001070823173
115       0.000858046001
116       0.000184087138
117       0.000095454983
118      -0.000115166006
119      -0.000067498678
120      -0.000076051447
121      -0.000000279210
122       0.000092049474
123      -0.000028557468
124       0.000005343694
125      -0.000050130247
126       0.000287592730
127      -0.000588811714
128      -0.002542997280
129       0.004026757253
130       0.000188435942
131       0.000141409165
132       0.000395562360
133       0.001710470753
134       0.001389538002
135       0.008939587413
136      -0.003420291775
137      -0.002724776354
138      -0.005612941157
139      -0.000448549268
140      -0.000222227875
141      -0.000163098812
142      -0.000017378096
143      -0.000089049057
144      -0.003123761556
145      -0.002944723580
146      -0.002397178951
147       0.000028792464
148       0.000418413122
149       0.000293812644
150      -0.000025818531
151      -0.000026681614
152       0.000055775297
153       0.000303989525
154       0.000092679743
155      -0.000178275471
156      -0.000592754455
157      -0.000885316836
158       0.000240825115
159      -0.002099661356
160       0.002597069443
161       0.000070826871
162       0.000052097087
163      -0.000012322922
164       0.000244663816
165       0.000237895352
166       0.000431267927
167      -0.000043292172
168      -0.000136587517
169       0.000688838828
170      -0.000034975174
171       0.000002378150
172       0.000008681967
173      -0.000008913532
174      -0.000075315527
175       0.000200155204
176      -0.000115073888
177      -0.000120319734
178       0.000019107456
179       0.000170901095
180      -0.000026792814
181      -0.000059791463
182      -0.000051215380
183      -0.000007250051
184      -0.000019634990
185      -0.000029577535
186       0.000051716147
187      -0.435087604772
188      -0.639521965551
189      -0.036390509723
190       0.030356220210
191      -0.012865054811
192      -0.000556682729
193      -0.000421035762
194      -0.001829107511
195       0.001798193028
196       0.001380754967
197       0.005905176728
198      -0.000078588904
199      -0.000027034806
200      -0.000939622007
201      -0.000224820897
202      -0.000147627125
203      -0.000115852244
204      -0.000003265856
205       0.000005147662
206       0.001291078245
207       0.000811505126
208       0.000632576400
209       0.000037924938
210       0.000090562825
211       0.000125313987
212       0.000134628642
213       0.000103944630
214       0.000017227077
215       0.000063073589
216       0.000003494255
217      -0.000009500202
218       0.000024010995
219      -0.000064854691
220      -0.000113019317
221      -0.000025923145
222      -0.000007734406
223      -0.000004743596
224       0.000010716076
225      -0.000064159425
226       0.000016587947
227      -0.000004836205
228      -0.000015173731
229       0.000004002324
230       0.000000017622
231      -0.000149348831
232      -0.000074742648
233      -0.000031521652
234      -0.000011460192
235      -0.000019981420
236      -0.000009371245
237      -0.000287870220
238       0.000632011531
239       0.000001765983
240      -0.000073286897
241      -0.000001964448
242       0.000007342045
243      -0.000217501583
244       0.000238126497
245       0.000027107960
246      -0.000024453800
247       0.000029713750
248       0.000025388149
249       0.000132747425
250       0.000057558715
251       0.000016112408
252      -0.000032030617
253       0.000035349384
254       0.000007960315
255       0.000021202148
256      -0.000630365889
257       0.000012017827
258       0.000077726645
259       0.000097176816
260       0.000119179924
261       0.000413751669
262      -0.001674166278
263       0.000016071679
264       0.000107222446
265       0.000027500315
266      -0.000014727138
267       0.000186199678
268       0.000117944971
269      -0.000001610155
270       0.000021040506
271      -0.000028752288
 Sym=     1a
 Ene= -1.44313870744568E+01
 Spin= Alpha
 Occup= 2.000000
  1      -0.448318179664
  2      -0.626803570122
  3      -0.037249122407
  4       0.031166216715
  5      -0.023510582162
  6       0.000203854839
  7       0.000175217963
  8       0.000684586758
  9      -0.001782929373
 10      -0.001292315296
 11      -0.005224491440
 12       0.000317008467
 13       0.000455711685
 14       0.001994593756
 15      -0.000080151131
 16      -0.000044291966
 17      -0.000036017348
 18       0.000015900718
 19      -0.000001724037
 20       0.001612020759
 21       0.001058718060
 22       0.000766468839
 23       0.000074428534
 24       0.000267253179
 25      -0.000121270520
 26      -0.000093088093
 27      -0.000031348750
 28       0.000038523978
 29      -0.000119775514
 30       0.000118074079
 31      -0.000066143287
 32      -0.000010078337
 33       0.000053177900
 34       0.001491136919
 35      -0.007366072116
 36       0.018266467293
 37       0.000094915786
 38       0.000090945835
 39       0.000049245361
 40      -0.002648604745
 41      -0.002077692459
 42      -0.005446584862
 43       0.002600788578
 44       0.001568995124
 45       0.001570675452
 46      -0.000242427585
 47      -0.000125819272
 48      -0.000091191802
 49      -0.000018734793
 50       0.000035376200
 51      -0.001422703134
 52      -0.001694794456
 53      -0.001266349623
 54       0.000019488489
 55      -0.001182652443
 56      -0.000137523546
 57      -0.000095684370
 58      -0.000076279012
 59      -0.000029633936
 60      -0.000046072717
 61      -0.000061877624
 62       0.000068197044
 63      -0.000006262443
 64       0.000034953773
 65      -0.000249174229
 66      -0.000460335374
 67      -0.009499623021
 68      -0.000045294863
 69      -0.000021941609
 70      -0.000130724205
 71       0.000281873914
 72       0.000339833139
 73       0.000959798333
 74       0.001863145890
 75       0.003434008975
 76      -0.000621046748
 77      -0.000103588697
 78      -0.000043431184
 79      -0.000046271949
 80      -0.000023874446
 81       0.000030317253
 82       0.001310618928
 83       0.000120210044
 84      -0.000015461883
 85       0.000106139187
 86      -0.000228906579
 87       0.000186944281
 88      -0.000017107521
 89      -0.000051261544
 90      -0.000015167203
 91      -0.000052065033
 92       0.000064920745
 93      -0.000005859147
 94      -0.000003143240
 95       0.000018937365
 96      -0.000393299527
 97       0.000447030119
 98       0.005670290361
 99       0.000000447942
100      -0.000000073054
101      -0.000088283650
102      -0.000299241747
103      -0.000286453467
104       0.000149831221
105       0.000488750815
106       0.000466905073
107       0.002587550498
108      -0.000095681773
109       0.000006209073
110      -0.000022433111
111      -0.000017532151
112       0.000021037243
113       0.000595748965
114       0.000006904950
115      -0.000001876699
116       0.000219208678
117      -0.000228589823
118       0.000036898652
119       0.000063004980
120       0.000031021673
121      -0.000009413682
122       0.000007555620
123       0.000031620979
124      -0.000010261363
125       0.000001708777
126      -0.000009671460
127       0.000201300948
128      -0.000695023939
129      -0.000478215682
130      -0.000007473271
131      -0.000015530826
132       0.000011163880
133       0.000119644451
134       0.000202056420
135       0.000056854398
136      -0.000000742188
137      -0.000102094280
138      -0.000401008638
139      -0.000009412112
140       0.000000706675
141       0.000010164704
142       0.000002787423
143      -0.000008633441
144       0.000181446215
145      -0.000072374888
146      -0.000027115143
147      -0.000029337254
148      -0.000219548130
149       0.000029477191
150       0.000001777705
151       0.000017615201
152       0.000010496814
153      -0.000011041407
154       0.000006774518
155      -0.000002729273
156      -0.000000200793
157       0.000002238372
158      -0.000036557696
159       0.000232550206
160       0.000011349182
161       0.000004590782
162       0.000003105737
163       0.000004793480
164      -0.000076284267
165      -0.000059274879
166      -0.000028534028
167       0.000053529015
168      -0.000004479179
169      -0.000054399731
170       0.000005360281
171      -0.000004937443
172       0.000002845346
173       0.000004029392
174       0.000004519641
175      -0.000028773196
176       0.000017880219
177      -0.000006870242
178      -0.000013019544
179      -0.000004239544
180      -0.000001359554
181       0.000004519299
182       0.000001782750
183       0.000000944654
184       0.000003611246
185       0.000000960906
186      -0.000003240746
187       0.000000043187
188      -0.000000663047
189      -0.000007074399
190       0.000009453726
191       0.000292309739
192      -0.000000941068
193       0.000003565768
194      -0.000010853038
195      -0.000001741513
196      -0.000019150366
197       0.000097260844
198      -0.000115573649
199      -0.000068927119
200       0.000196157658
201      -0.000008839117
202       0.000006631339
203       0.000007554870
204       0.000001960945
205       0.000001642204
206       0.000061910736
207      -0.000024564036
208      -0.000030135862
209      -0.000005087569
210      -0.000006397911
211       0.000002461589
212      -0.000000269667
213      -0.000001551317
214       0.000001006396
215      -0.000000838726
216       0.000000178857