
                                 *****************
                                 * O   R   C   A *
                                 *****************

                                            #,                                       
                                            ###                                      
                                            ####                                     
                                            #####                                    
                                            ######                                   
                                           ########,                                 
                                     ,,################,,,,,                         
                               ,,#################################,,                 
                          ,,##########################################,,             
                       ,#########################################, ''#####,          
                    ,#############################################,,   '####,        
                  ,##################################################,,,,####,       
                ,###########''''           ''''###############################       
              ,#####''   ,,,,##########,,,,          '''####'''          '####       
            ,##' ,,,,###########################,,,                        '##       
           ' ,,###''''                  '''############,,,                           
         ,,##''                                '''############,,,,        ,,,,,,###''
      ,#''                                            '''#######################'''  
     '                                                          ''''####''''         
             ,#######,   #######,   ,#######,      ##                                
            ,#'     '#,  ##    ##  ,#'     '#,    #''#        ,####,   ,####,        
            ##       ##  ##   ,#'  ##            #'  '#       #'       #'  '#        
            ##       ##  #######   ##           ,######,      #####,   #    #        
            '#,     ,#'  ##    ##  '#,     ,#' ,#      #,     #,   #   #,  ,#        
             '#######'   ##     ##  '#######'  #'      '#     '####' # '####'        



                #########################################################
                #                        -***-                          #
                #          Department of theory and spectroscopy        #
                #                                                       #
                #                      Frank Neese                      #
                #                                                       #
                #     Directorship, Architecture, Infrastructure        #
                #                    SHARK, DRIVERS                     #
                #        Core code/Algorithms in most modules           #
                #                                                       #
                #        Max Planck Institute fuer Kohlenforschung      #
                #                Kaiser Wilhelm Platz 1                 #
                #                 D-45470 Muelheim/Ruhr                 #
                #                      Germany                          #
                #                                                       #
                #                  All rights reserved                  #
                #                        -***-                          #
                #########################################################


                         Program Version 6.0.1  -  RELEASE   -


 With contributions from (in alphabetic order):
[Max-Planck-Institut fuer Kohlenforschung]                               
  Daniel Aravena         : Magnetic Suceptibility                        
  Michael Atanasov       : Ab Initio Ligand Field Theory (pilot matlab implementation)
  Alexander A. Auer      : GIAO ZORA, VPT2 properties, NMR spectrum      
  Ute Becker             : All parallelization in ORCA, NUMFREQ, NUMCALC 
  Giovanni Bistoni       : ED, misc. LED, open-shell LED, HFLD           
  Martin Brehm           : Molecular dynamics                            
  Dmytro Bykov           : pre 5.0 version of the SCF Hessian            
  Marcos Casanova-Páez   : Triplet and SCS-CIS(D). UHF-(DLPNO)-IP/EA/STEOM-CCSD. UHF-CVS-IP/STEOM-CCSD   
  Vijay G. Chilkuri      : MRCI spin determinant printing, contributions to CSF-ICE 
  Pauline Colinet        : FMM embedding                                 
  Dipayan Datta          : RHF DLPNO-CCSD density                        
  Achintya Kumar Dutta   : EOM-CC, STEOM-CC                              
  Nicolas Foglia         : Exact transition moments, OPA infrastructure, MCD improvements    
  Dmitry Ganyushin       : Spin-Orbit,Spin-Spin,Magnetic field MRCI      
  Miquel Garcia-Rates    : C-PCM and meta-GGA Hessian, CCSD/C-PCM, Gaussian charge scheme 
  Tiago L. C. Gouveia    : GS-ROHF, GS-ROCIS                             
  Yang Guo               : DLPNO-NEVPT2, F12-NEVPT2, CIM, IAO-localization        
  Andreas Hansen         : Spin unrestricted coupled pair/coupled cluster methods 
  Ingolf Harden          : AUTO-CI MPn and infrastructure                
  Benjamin Helmich-Paris : MC-RPA, TRAH-(SCF,CASSCF), AVAS, COSX integrals, SCF dyn. polar. 
  Lee Huntington         : MR-EOM, pCC                                   
  Robert Izsak           : Overlap fitted RIJCOSX, COSX-SCS-MP3, EOM     
  Riya Kayal             : Wick's Theorem for AUTO-CI, AUTO-CI UHF-CCSDT 
  Emily Kempfer          : AUTO-CI, RHF CISDT and CCSDT                  
  Christian Kollmar      : KDIIS, OOCD, Brueckner-CCSD(T), CCSD density, CASPT2, CASPT2-K, improved NEVPT2 
  Axel Koslowski         : Symmetry handling                             
  Simone Kossmann        : meta-GGA functionals, TD-DFT gradient, OOMP2, (MP2 Hessian; deprecated post 5.0) 
  Lucas Lang             : DCDCAS                                        
  Marvin Lechner         : AUTO-CI (C++ implementation), FIC-MRCC        
  Spencer Leger          : CASSCF response                               
  Dagmar Lenk            : GEPOL surface, SMD, ORCA-2-JSON               
  Dimitrios Liakos       : Extrapolation schemes; Compound Job, initial MDCI parallelization 
  Dimitrios Manganas     : Further ROCIS development; embedding schemes. LFT, Crystal Embedding 
  Dimitrios Pantazis     : SARC Basis sets                               
  Anastasios Papadopoulos: AUTO-CI, single reference methods and gradients 
  Taras Petrenko         : pre 6.0 DFT Hessian and TD-DFT gradient, (ASA, deprecated), ECA, 1-Electron XAS/XES, NRVS 
  Peter Pinski           : DLPNO-MP2, DLPNO-MP2 Gradient                 
  Christoph Reimann      : Effective Core Potentials                     
  Marius Retegan         : Local ZFS, SOC                                
  Christoph Riplinger    : Optimizer, TS searches, QM/MM, DLPNO-CCSD(T), (RO)-DLPNO pert. Triples 
  Michael Roemelt        : Original ROCIS implementation                 
  Masaaki Saitow         : Open-shell DLPNO-CCSD energy and density      
  Barbara Sandhoefer     : DKH picture change effects                    
  Kantharuban Sivalingam : CASSCF convergence/infrastructure, NEVPT2 and variants, FIC-MRCI 
  Bernardo de Souza      : ESD, SOC TD-DFT                               
  Georgi L. Stoychev     : AutoAux, RI-MP2 NMR, DLPNO-MP2 response, X2C  
  Van Anh Tran           : RI-MP2 g-tensors                              
  Willem Van den Heuvel  : Paramagnetic NMR                              
  Zikuan Wang            : NOTCH, Electric field optimization            
  Frank Wennmohs         : Technical directorship and infrastructure     
  Hang Xu                : AUTO-CI-Response properties                   
                                                                         
[FACCTs GmbH]                                                            
  Markus Bursch, Miquel Garcia-Rates, Christoph Riplinger, Bernardo de Souza, Georgi L. Stoychev 
                                                                 
  APM, Basis sets (HGBS, AHGBS, def-TZVP (Ac-Lr), def2-XVPD (La-Lu)), CI-OPT, improved COSX, DLPNO-Multilevel,           
  DOCKER, DRACO, updates on ESD, GOAT, IRC, LR-CPCM, MBIS, meta-GGA TD-DFT gradient, ML-optimized integration grids, 
  MM, NACMEs, nearIR, NEB, NEB-TS, NL-DFT gradient (VV10), 2- and 3-layer-ONIOM, interface openCOSMO-RS, QMMM,   
  Crystal-QMMM, SF, symmetry and pop. for TD-DFT, r2SCAN hybrids, SOLVATOR                                   
                                                                         
[Other institutions]                                                     
  V. Asgeirsson          : NEB                                           
  Christoph Bannwarth    : sTDA-DFT, sTD-DFT, PBEh-3c, B97-3c, D3        
  Sebastian Ehlert       : rSCAN, r2SCAN, r2SCAN-3c, D4, dhf basis sets  
  Marvin Friede          : D4 for Fr, Ra, Ac-Lr                          
  Lars Goerigk           : TD-DFT with DH, B97 family of functionals     
  Stefan Grimme          : VdW corrections, initial TS optimization, DFT functionals, gCP, sTDA/sTD-DF 
  Waldemar Hujo          : DFT-NL                                        
  H. Jonsson             : NEB                                           
  Holger Kruse           : gCP                                           
  Marcel Mueller         : wB97X-3c, vDZP basis set                      
  Hagen Neugebauer       : wr2SCAN                                       
  Tobias Risthaus        : range-separated hybrid DFT                    
  Lukas Wittmann         : regularized MP2, r2SCAN double-hybrids, wr2SCAN        
                                                                         
We gratefully acknowledge several colleagues who have allowed us to      
interface, adapt or use parts of their codes:                            
  Ed Valeev, F. Pavosevic, A. Kumar             : LibInt (2-el integral package), F12 methods 
  Garnet Chan, S. Sharma, J. Yang, R. Olivares  : DMRG                   
  Ulf Ekstrom                                   : XCFun DFT Library      
  Mihaly Kallay                                 : mrcc  (arbitrary order and MRCC methods)
  Frank Weinhold                                : gennbo (NPA and NBO analysis)           
  Simon Mueller                                 : openCOSMO-RS                            
  Christopher J. Cramer and Donald G. Truhlar   : smd solvation model                     
  S Lehtola, MJT Oliveira, MAL Marques          : LibXC Library                           
  Liviu Ungur et al                             : ANISO software                          


 Your calculation uses the libint2 library for the computation of 2-el integrals
 For citations please refer to: http://libint.valeyev.net

 Your ORCA version has been built with support for libXC version: 6.2.2
 For citations please refer to: https://libxc.gitlab.io

 This ORCA versions uses:
   CBLAS   interface :  Fast vector & matrix operations
   LAPACKE interface :  Fast linear algebra routines
   SCALAPACK package :  Parallel linear algebra routines
   Shared memory     :  Shared parallel matrices
   BLAS/LAPACK       :  OpenBLAS 0.3.27  USE64BITINT DYNAMIC_ARCH NO_AFFINITY SkylakeX SINGLE_THREADED
        Core in use  :  SkylakeX
   Copyright (c) 2011-2014, The OpenBLAS Project


NOTE: MaxCore=5000 MB was set to SCF,MP2,MDCI,CIPSI,MRCI and CIS
      => If you want to overwrite this, your respective input block should be placed after the MaxCore statement
Your calculation utilizes the atom-pairwise dispersion correction
based on EEQ partial charges (D4)


Warning: RI is on but no J-basis has been assigned. Assigning Def2/J (nothing to worry about!)
================================================================================

----- Orbital basis set information -----
Your calculation utilizes the basis: def2-TZVP
   F. Weigend and R. Ahlrichs, Phys. Chem. Chem. Phys. 7, 3297 (2005).

----- AuxJ basis set information -----
Your calculation utilizes the auxiliary basis: def2/J
   F. Weigend, Phys. Chem. Chem. Phys. 8, 1057 (2006).

================================================================================
                                        WARNINGS
                       Please study these warnings very carefully!
================================================================================

WARNING: Old DensityContainer found on disk!
         Will remove this file - 
         If you want to keep old densities, please start your calculation with a different basename. 


WARNING: Geometry Optimization
  ===> : Switching off AutoStart
         For restart on a previous wavefunction, please use MOREAD

================================================================================
                                       INPUT FILE
================================================================================
NAME = 00_Alanine_zwitterion.inp
|  1> ! Opt B3LYP D4 def2-TZVP TightSCF TightOpt CPCM(water)
|  2> 
|  3> %maxcore 5000
|  4> 
|  5> %pal
|  6> nprocs 15
|  7> end
|  8> 
|  9> %geom
| 10> 	MaxIter 1000
| 11> end
| 12> 
| 13> * xyz 0 1
| 14>   C          -0.55690362213987      1.04025375194501     -0.47780931096045
| 15>   C          -1.18820378713145      2.28911909802692      0.13144375653629
| 16>   O          -2.42612063218262      2.31184567493466      0.32472303344405
| 17>   O          -0.39506642103924      3.23950809638615      0.39751913821116
| 18>   C           0.56491247490841      0.47913571905855      0.38509920163671
| 19>   N           1.22564202232606     -0.67897020712428     -0.29306622278200
| 20>   H          -0.13802835576448      1.33004130590610     -1.44563460458922
| 21>   H          -1.29647192347830      0.26966969875602     -0.68804387605543
| 22>   H           0.17780785964196      0.11420217546865      1.33510741805920
| 23>   H           1.33380093950183      1.21885795334245      0.58603246456182
| 24>   H           0.60905296811007     -1.50810657346733     -0.33945789719531
| 25>   H           1.52458947999805     -0.43447164979627     -1.24248030928871
| 26>   H           2.07458194116314     -0.92639741283819      0.21482204731553
| 27>   O           1.54032584893378     -0.59152896563115     -3.33301761291800
| 28>   H           2.01919783108415     -0.53185263338033     -4.17266391457764
| 29>   H           0.56490107804203     -0.67242961584118     -3.54384128471279
| 30>   O          -1.06251050451948     -0.75640552844008     -3.82155662283401
| 31>   H          -1.54646193841043     -1.16169731246267     -3.06833176356153
| 32>   H          -1.35724909900355      0.18134118339312     -3.86138680616145
| 33>   O          -0.91409305023976      5.53170441596280      1.78355794979778
| 34>   H          -0.72063275203029      4.72947108397042      1.23934687235125
| 35>   H          -0.87115441349213      6.27600684006597      1.17325977384265
| 36>   O          -0.43608376224386     -3.00383066938039      0.02410077829274
| 37>   H          -0.71366067737357     -2.95582859836880      0.94736499225789
| 38>   H          -0.10875098759535     -3.90171195730255     -0.12780798336542
| 39>   O          -1.48523313756982      2.00675626350121     -3.92944789853339
| 40>   H          -1.98809604003380      2.29781335392309     -3.15808448188699
| 41>   H          -0.54007444322603      2.20081247271274     -3.71900709544493
| 42>   O           1.19328410644872      2.32423881130308     -3.44061019640561
| 43>   H           1.43102775728636      2.85123231237663     -2.64144950460472
| 44>   H           1.50146461768416      1.41988485265976     -3.27378221042588
| 45>   O           1.78898987352223      3.68782333649253     -1.12843105163806
| 46>   H           1.87894048086690      4.64678771092959     -1.20298298688563
| 47>   H           1.00156458585484      3.53361842727434     -0.54327663579536
| 48>   O          -4.52669711922476      0.58905128790521      0.61012073461591
| 49>   H          -4.62252547649715     -0.04274768092931     -0.11182141616622
| 50>   H          -3.72157711578237      1.12097241542670      0.43173155118199
| 51>   O           2.58030687892913     -3.06309521251304     -2.48718915645875
| 52>   H           2.14838833754289     -2.23516544716144     -2.78639701028954
| 53>   H           1.91763868335516     -3.50431083952900     -1.94669988151130
| 54>   H           4.26765993360124     -0.17685214193336     -0.80931987444468
| 55>   O           3.80849769749847      0.66942002898448     -0.61896001217983
| 56>   H           4.24341802003523      1.05839054303706      0.14676228845028
| 57>   H          -1.77524017137696     -2.40900071910728     -1.09836885124456
| 58>   O          -2.42164004801547     -1.97360532973260     -1.69642746965640
| 59>   H          -2.82848439677183     -1.27654733915969     -1.16345267033133
| 60>   H          -1.55983755200240     -1.19191231439153      2.75444732901196
| 61>   O          -2.46131717529013     -1.40737692774463      2.48270544951780
| 62>   H          -2.48615518858364     -1.21415486466166      1.53812528037008
| 63>   H          -3.17289976019563      3.62766687652027      1.33686972560355
| 64>   O          -3.52149256099499      4.34872332537264      1.90611978591632
| 65>   H          -2.75027354849192      4.93622486754475      2.00418985778174
| 66>   H           5.28822908410182     -2.33137676297155     -0.71995391377237
| 67>   O           4.83658883292138     -1.79090881865081     -1.38077576238384
| 68>   H           4.07415432734338     -2.32264836066155     -1.69986313969487
| 69> *
| 70> 
| 71>                          ****END OF INPUT****
================================================================================

                       *****************************
                       * Geometry Optimization Run *
                       *****************************

Geometry optimization settings:
Update method            Update   .... BFGS
Choice of coordinates    CoordSys .... (2022) Redundant Internals
Initial Hessian          InHess   .... Almloef's Model
Max. no of cycles        MaxIter  .... 1000

Convergence Tolerances:
Energy Change            TolE     ....  1.0000e-06 Eh
Max. Gradient            TolMAXG  ....  1.0000e-04 Eh/bohr
RMS Gradient             TolRMSG  ....  3.0000e-05 Eh/bohr
Max. Displacement        TolMAXD  ....  1.0000e-03 bohr
RMS Displacement         TolRMSD  ....  6.0000e-04 bohr
Strict Convergence                .... False

------------------------------------------------------------------------------
                        ORCA OPTIMIZATION COORDINATE SETUP
------------------------------------------------------------------------------

The optimization will be done in redundant internal coordinates (2022)
Making redundant internal coordinates   ...  (2022 redundants) done
Evaluating the initial hessian          ...  (Almloef) done
Evaluating the coordinates              ...  done
Calculating the B-matrix                .... done
Calculating the G-matrix                .... done
Diagonalizing the G-matrix              .... done
Small eigenvalue found = 1.042e-02
Small eigenvalue found = 1.494e-02
The first mode is                       ....  622
The number of degrees of freedom        ....  159

    -----------------------------------------------------------------
                    Redundant Internal Coordinates


    -----------------------------------------------------------------
         Definition                    Initial Value    Approx d2E/dq
    -----------------------------------------------------------------
      1. B(C   1,C   0)                  1.5262         0.378777   
      2. B(O   2,C   1)                  1.2531         0.925247   
      3. B(O   3,C   1)                  1.2661         0.882046   
      4. B(C   4,C   0)                  1.5225         0.384043   
      5. B(N   5,C   4)                  1.4959         0.379261   
      6. B(H   6,C   0)                  1.0937         0.355275   
      7. B(H   7,C   0)                  1.0886         0.362012   
      8. B(H   8,N   5)                  2.0924         0.008116   
      9. B(H   8,C   4)                  1.0888         0.361656   
     10. B(H   9,C   4)                  1.0857         0.365828   
     11. B(H  10,N   5)                  1.0343         0.395737   
     12. B(H  11,N   5)                  1.0250         0.409574   
     13. B(H  12,N   5)                  1.0197         0.417499   
     14. B(O  13,H  11)                  2.0965         0.007994   
     15. B(H  14,O  13)                  0.9684         0.504073   
     16. B(H  15,O  13)                  1.0012         0.446889   
     17. B(O  16,H  15)                  1.6531         0.040758   
     18. B(H  17,O  16)                  0.9828         0.478249   
     19. B(H  18,H  15)                  2.1271         0.001527   
     20. B(H  18,O  16)                  0.9838         0.476458   
     21. B(H  20,O   3)                  1.7420         0.029396   
     22. B(H  20,O  19)                  0.9885         0.468237   
     23. B(H  21,O  19)                  0.9635         0.513351   
     24. B(O  22,H  10)                  1.8606         0.019019   
     25. B(H  23,O  22)                  0.9653         0.509964   
     26. B(H  23,H  10)                  2.3455         0.000685   
     27. B(H  24,O  22)                  0.9677         0.505483   
     28. B(O  25,H  18)                  1.8312         0.021188   
     29. B(H  26,O  25)                  0.9657         0.509172   
     30. B(H  26,H  18)                  2.3178         0.000758   
     31. B(H  27,O  25)                  0.9876         0.469896   
     32. B(H  27,H  18)                  2.1832         0.001243   
     33. B(O  28,H  27)                  1.7599         0.027528   
     34. B(H  29,O  28)                  0.9864         0.471970   
     35. B(H  30,O  13)                  2.0127         0.010877   
     36. B(H  30,O  28)                  0.9699         0.501427   
     37. B(H  30,H  27)                  2.2307         0.001044   
     38. B(O  31,H  29)                  1.7656         0.026960   
     39. B(H  32,O  31)                  0.9661         0.508519   
     40. B(H  33,O  31)                  0.9931         0.460444   
     41. B(H  33,H  29)                  2.2478         0.000980   
     42. B(H  33,O   3)                  1.7094         0.033135   
     43. B(H  35,O  34)                  0.9641         0.512120   
     44. B(H  36,O  34)                  0.9813         0.480793   
     45. B(H  36,O   2)                  1.7629         0.027226   
     46. B(H  38,O  37)                  0.9806         0.482086   
     47. B(H  38,H  15)                  2.3502         0.000673   
     48. B(H  38,O  13)                  1.8358         0.020832   
     49. B(H  38,H  14)                  2.1999         0.001169   
     50. B(H  39,O  37)                  0.9623         0.515672   
     51. B(O  41,H  40)                  0.9814         0.480557   
     52. B(H  42,O  41)                  0.9627         0.514831   
     53. B(H  43,H  17)                  2.3428         0.000691   
     54. B(H  43,H  23)                  2.3688         0.000629   
     55. B(H  43,O  22)                  1.8458         0.020076   
     56. B(O  44,H  17)                  1.8186         0.022190   
     57. B(O  44,H  43)                  0.9824         0.478913   
     58. B(H  45,H  17)                  2.2990         0.000812   
     59. B(H  45,H   7)                  2.2280         0.001054   
     60. B(H  45,O  44)                  0.9672         0.506385   
     61. B(H  46,H  23)                  2.6633         0.000213   
     62. B(H  46,H   8)                  2.5961         0.000273   
     63. B(O  47,H   8)                  3.2553         0.000113   
     64. B(O  47,H  23)                  2.7945         0.000615   
     65. B(O  47,H  46)                  0.9659         0.508835   
     66. B(H  48,O  34)                  2.8769         0.000455   
     67. B(H  48,O  22)                  3.1142         0.000190   
     68. B(H  48,H   8)                  2.9837         0.000066   
     69. B(H  48,H  43)                  2.9806         0.000066   
     70. B(H  48,H  35)                  2.9425         0.000076   
     71. B(H  48,H   7)                  2.9280         0.000081   
     72. B(H  48,H  36)                  2.8641         0.000102   
     73. B(H  48,H  45)                  2.7239         0.000170   
     74. B(H  48,H  23)                  2.5542         0.000318   
     75. B(H  48,O  47)                  0.9645         0.511506   
     76. B(H  49,O   2)                  1.8203         0.022050   
     77. B(O  50,H  49)                  0.9826         0.478547   
     78. B(H  51,H  20)                  2.1788         0.001263   
     79. B(H  51,O  19)                  1.9429         0.014055   
     80. B(H  51,O  50)                  0.9745         0.493073   
     81. B(O  53,H  52)                  0.9658         0.508994   
     82. B(O  53,H  40)                  1.8043         0.023387   
     83. B(H  54,O  53)                  0.9828         0.478202   
     84. B(H  54,H  40)                  2.3313         0.000721   
     85. B(H  54,H  38)                  2.2129         0.001114   
     86. B(H  54,O  37)                  1.8438         0.020224   
     87. A(C   1,C   0,H   7)          112.0440         0.325340   
     88. A(C   1,C   0,C   4)          112.3402         0.365939   
     89. A(C   4,C   0,H   7)          110.4367         0.326079   
     90. A(C   1,C   0,H   6)          107.1492         0.324337   
     91. A(H   6,C   0,H   7)          106.0735         0.290465   
     92. A(C   4,C   0,H   6)          108.4821         0.325073   
     93. A(O   2,C   1,O   3)          124.9455         0.491467   
     94. A(C   0,C   1,O   2)          119.0140         0.424142   
     95. A(C   0,C   1,O   3)          116.0392         0.420534   
     96. A(H  36,O   2,H  49)           98.8057         0.147405   
     97. A(C   1,O   2,H  36)          136.3058         0.246871   
     98. A(C   1,O   2,H  49)          120.2745         0.239514   
     99. A(C   1,O   3,H  33)          121.6874         0.252272   
    100. A(C   1,O   3,H  20)          128.7917         0.247907   
    101. A(H  20,O   3,H  33)          105.7530         0.154166   
    102. A(C   0,C   4,H   9)          112.0620         0.326643   
    103. A(C   0,C   4,N   5)          110.7224         0.363739   
    104. A(C   0,C   4,H   8)          110.8597         0.326027   
    105. A(N   5,C   4,H   9)          107.3721         0.324020   
    106. A(N   5,C   4,H   8)          107.0441         0.323410   
    107. A(H   8,C   4,H   9)          108.5819         0.291760   
    108. A(H  10,N   5,H  12)          108.9122         0.297276   
    109. A(C   4,N   5,H  12)          109.2547         0.328332   
    110. A(C   4,N   5,H  10)          112.1876         0.325450   
    111. A(H  10,N   5,H  11)          108.8779         0.296374   
    112. A(H  11,N   5,H  12)          106.0462         0.298902   
    113. A(C   4,N   5,H  11)          111.3515         0.327296   
    114. A(C   0,H   7,H  48)          119.2065         0.113111   
    115. A(H  45,H   7,H  48)           62.0395         0.094142   
    116. A(C   4,H   8,H  48)          121.7363         0.112013   
    117. A(C   4,H   8,O  47)          138.8048         0.121180   
    118. A(C   4,H   8,H  46)          152.0789         0.120764   
    119. A(H  46,H   8,H  48)           30.8201         0.092615   
    120. A(H  46,H   8,O  47)           13.9482         0.094054   
    121. A(O  47,H   8,H  48)           17.0763         0.092662   
    122. A(N   5,H  10,O  22)          166.0590         0.192517   
    123. A(O  22,H  10,H  23)           23.0466         0.108853   
    124. A(N   5,H  10,H  23)          143.7425         0.128464   
    125. A(N   5,H  11,O  13)          155.2286         0.174742   
    126. A(H  15,O  13,H  38)          108.2430         0.197620   
    127. A(H  30,O  13,H  38)          153.1781         0.135846   
    128. A(H  14,O  13,H  38)           98.6006         0.200621   
    129. A(H  11,O  13,H  14)          149.7277         0.178868   
    130. A(H  14,O  13,H  15)          107.7071         0.312414   
    131. A(H  11,O  13,H  15)          102.0467         0.176451   
    132. A(H  11,O  13,H  30)           84.0097         0.126716   
    133. A(H  11,O  13,H  38)           76.8586         0.132692   
    134. A(H  15,O  13,H  30)           93.9071         0.182764   
    135. A(H  14,O  13,H  30)           88.4805         0.185355   
    136. A(O  13,H  14,H  38)           55.5972         0.136049   
    137. A(O  16,H  15,H  18)           26.5782         0.117290   
    138. A(O  13,H  15,H  38)           47.8904         0.129408   
    139. A(O  16,H  15,H  38)          133.1321         0.112500   
    140. A(H  18,H  15,H  38)          157.4998         0.098041   
    141. A(O  13,H  15,H  18)          151.5677         0.137644   
    142. A(H  17,O  16,H  18)          106.0574         0.312996   
    143. A(H  15,O  16,H  18)          104.6744         0.217288   
    144. A(H  15,O  16,H  17)          112.1471         0.217397   
    145. A(O  44,H  17,H  45)           23.6911         0.110369   
    146. A(H  43,H  17,H  45)           38.9445         0.096885   
    147. A(H  43,H  17,O  44)           23.2200         0.109604   
    148. A(O  16,H  17,H  43)          155.7976         0.130284   
    149. A(O  16,H  17,H  45)          158.4755         0.131817   
    150. A(H  15,H  18,O  16)           48.7474         0.138354   
    151. A(O  25,H  18,H  27)           26.6807         0.112284   
    152. A(H  26,H  18,H  27)           40.3074         0.097864   
    153. A(H  15,H  18,H  26)          124.5539         0.098288   
    154. A(O  16,H  18,H  26)          159.9978         0.131117   
    155. A(O  16,H  18,H  27)          140.0803         0.136104   
    156. A(H  15,H  18,H  27)           91.3354         0.099388   
    157. A(O  25,H  18,H  26)           23.3603         0.109819   
    158. A(H  15,H  18,O  25)          117.9585         0.113397   
    159. A(O  16,H  18,O  25)          166.5712         0.199631   
    160. A(H  20,O  19,H  21)          105.6339         0.315721   
    161. A(H  20,O  19,H  51)           89.9279         0.189419   
    162. A(H  21,O  19,H  51)          110.5374         0.191532   
    163. A(O   3,H  20,H  51)          115.1441         0.114167   
    164. A(O  19,H  20,H  51)           63.0908         0.136090   
    165. A(H  10,O  22,H  43)           91.6989         0.141719   
    166. A(H  23,O  22,H  48)           46.9299         0.127659   
    167. A(H  10,O  22,H  48)           90.1600         0.107364   
    168. A(H  43,O  22,H  48)           68.4599         0.107590   
    169. A(H  23,O  22,H  24)          107.0713         0.319337   
    170. A(H  24,O  22,H  43)          116.6769         0.199762   
    171. A(H  24,O  22,H  48)          146.3291         0.127582   
    172. A(H  10,O  22,H  24)          121.6839         0.198414   
    173. A(H  10,O  22,H  23)          107.9660         0.198633   
    174. A(H  23,O  22,H  43)          110.9154         0.199983   
    175. A(O  47,H  23,H  48)           20.1348         0.096677   
    176. A(H  10,H  23,O  47)          108.1855         0.098132   
    177. A(O  22,H  23,O  47)          137.1292         0.139430   
    178. A(H  43,H  23,O  47)           93.8016         0.097957   
    179. A(H  10,H  23,H  46)           98.2002         0.094811   
    180. A(O  22,H  23,H  46)          140.6500         0.121091   
    181. A(H  43,H  23,H  48)           74.4154         0.095241   
    182. A(H  10,H  23,H  48)           95.5868         0.095363   
    183. A(O  22,H  23,H  48)          117.0441         0.124136   
    184. A(H  10,H  23,H  43)           68.6802         0.096424   
    185. A(O  22,H  23,H  43)           46.7104         0.129995   
    186. A(H  46,H  23,H  48)           34.0010         0.093885   
    187. A(H  43,H  23,H  46)          106.9004         0.094700   
    188. A(H  10,H  23,O  22)           48.9875         0.130795   
    189. A(H  46,H  23,O  47)           20.2020         0.096012   
    190. A(H  26,O  25,H  27)          105.6007         0.315483   
    191. A(H  18,O  25,H  27)           96.9540         0.199284   
    192. A(H  18,O  25,H  26)          107.8878         0.201306   
    193. A(H  18,H  26,O  25)           48.7519         0.131755   
    194. A(O  28,H  27,H  30)           24.7118         0.112749   
    195. A(O  25,H  27,H  30)          148.1741         0.134138   
    196. A(O  25,H  27,O  28)          171.9395         0.206015   
    197. A(H  18,H  27,H  30)           91.8195         0.098530   
    198. A(H  18,H  27,O  28)          116.3496         0.113706   
    199. A(H  18,H  27,O  25)           56.3653         0.135956   
    200. A(H  29,O  28,H  30)          106.3936         0.314923   
    201. A(H  27,O  28,H  30)          105.9486         0.207748   
    202. A(H  27,O  28,H  29)          113.7679         0.206132   
    203. A(O  31,H  29,H  33)           25.1714         0.112304   
    204. A(O  28,H  29,H  33)          150.7438         0.133546   
    205. A(H  27,H  30,O  28)           49.3397         0.134807   
    206. A(O  13,H  30,H  27)          111.2024         0.108247   
    207. A(O  13,H  30,O  28)          158.8972         0.185240   
    208. A(H  29,O  31,H  33)          105.7004         0.204931   
    209. A(H  29,O  31,H  32)          115.0307         0.207566   
    210. A(H  32,O  31,H  33)          105.8690         0.314378   
    211. A(O   3,H  33,H  29)          128.1409         0.113418   
    212. A(H  29,H  33,O  31)           49.1281         0.133298   
    213. A(H  35,O  34,H  36)          107.4956         0.316959   
    214. A(H  36,O  34,H  48)           79.4237         0.135467   
    215. A(H  35,O  34,H  48)           84.3359         0.136135   
    216. A(O  34,H  35,H  48)           76.6348         0.114465   
    217. A(O   2,H  36,H  48)          104.9058         0.102990   
    218. A(O  34,H  36,H  48)           80.8940         0.115795   
    219. A(O   2,H  36,O  34)          168.5499         0.206331   
    220. A(H  38,O  37,H  39)          104.7852         0.317454   
    221. A(H  39,O  37,H  54)          120.1479         0.200448   
    222. A(H  38,O  37,H  54)           98.5164         0.198763   
    223. A(H  15,H  38,H  54)          140.4343         0.097418   
    224. A(O  13,H  38,H  15)           23.8666         0.109188   
    225. A(H  14,H  38,H  54)          113.0241         0.098539   
    226. A(O  13,H  38,H  54)          118.0248         0.111630   
    227. A(O  37,H  38,H  54)           55.4918         0.135078   
    228. A(H  14,H  38,H  15)           40.7560         0.097509   
    229. A(H  15,H  38,O  37)          163.0479         0.130107   
    230. A(O  13,H  38,H  14)           25.8022         0.111874   
    231. A(O  13,H  38,O  37)          173.0750         0.199500   
    232. A(H  14,H  38,O  37)          150.6761         0.135577   
    233. A(O  41,H  40,O  53)          168.6117         0.202351   
    234. A(O  53,H  40,H  54)           23.3351         0.110052   
    235. A(O  41,H  40,H  54)          145.9874         0.130727   
    236. A(H  40,O  41,H  42)          106.9363         0.317206   
    237. A(H  23,H  43,H  48)           55.6333         0.093378   
    238. A(O  22,H  43,H  48)           76.3685         0.100852   
    239. A(H  17,H  43,H  48)          123.6168         0.093473   
    240. A(H  17,H  43,O  44)           46.8745         0.130297   
    241. A(O  44,H  43,H  48)          101.7645         0.113300   
    242. A(O  22,H  43,H  23)           22.3743         0.108713   
    243. A(H  17,H  43,H  23)          143.6414         0.096440   
    244. A(H  23,H  43,O  44)          157.3634         0.129416   
    245. A(H  17,H  43,O  22)          127.7377         0.109143   
    246. A(O  22,H  43,O  44)          172.0573         0.198417   
    247. A(H  17,O  44,H  45)          107.2400         0.202346   
    248. A(H  17,O  44,H  43)          109.9055         0.200924   
    249. A(H  43,O  44,H  45)          105.1130         0.316177   
    250. A(H   7,H  45,H  17)           76.0355         0.097675   
    251. A(H  17,H  45,O  44)           49.0689         0.132374   
    252. A(H   7,H  45,O  44)          109.1781         0.135012   
    253. A(H  17,H  45,H  48)          138.6387         0.094744   
    254. A(H   7,H  45,H  48)           71.7027         0.095093   
    255. A(O  44,H  45,H  48)          120.6757         0.119464   
    256. A(H   8,H  46,H  23)           75.4985         0.093718   
    257. A(H  23,H  46,O  47)           87.5869         0.121075   
    258. A(H   8,H  46,O  47)          125.6695         0.122916   
    259. A(H   8,O  47,H  23)           63.7877         0.096512   
    260. A(H   8,O  47,H  48)           65.2899         0.123401   
    261. A(H   8,O  47,H  46)           40.3823         0.123361   
    262. A(H  23,O  47,H  48)           65.7341         0.139464   
    263. A(H  23,O  47,H  46)           72.2112         0.139404   
    264. A(H  46,O  47,H  48)          104.7668         0.319840   
    265. A(O  22,H  48,H  43)           35.1715         0.093129   
    266. A(H   8,H  48,O  22)           68.5932         0.093118   
    267. A(O  22,H  48,H  35)          115.7293         0.093261   
    268. A(H   7,H  48,O  22)           69.7640         0.093313   
    269. A(O  22,H  48,O  34)          132.0909         0.096888   
    270. A(O  22,H  48,H  36)          124.3812         0.093549   
    271. A(O  22,H  48,H  45)           65.6304         0.094111   
    272. A(O  22,H  48,H  23)           16.0260         0.094885   
    273. A(O  22,H  48,O  47)          110.1247         0.127686   
    274. A(H   8,H  48,H  35)          115.6479         0.091710   
    275. A(H   7,H  48,H   8)           50.1983         0.091743   
    276. A(H   8,H  48,O  34)          109.4072         0.094016   
    277. A(H   8,H  48,H  45)           93.1484         0.092250   
    278. A(H   8,H  48,H  23)           70.6255         0.092743   
    279. A(H   8,H  48,O  47)           97.6337         0.113602   
    280. A(H  35,H  48,H  43)           80.6055         0.091717   
    281. A(H   7,H  48,H  43)           55.5080         0.091750   
    282. A(H  36,H  48,H  43)           95.0496         0.091900   
    283. A(H  43,H  48,H  45)           31.0739         0.092259   
    284. A(H  23,H  48,H  43)           49.9513         0.092752   
    285. A(H  43,H  48,O  47)          141.2474         0.113665   
    286. A(H   7,H  48,H  35)           70.5447         0.091839   
    287. A(O  34,H  48,H  35)           19.0294         0.094191   
    288. A(H  35,H  48,H  36)           31.3135         0.091993   
    289. A(H  35,H  48,H  45)           50.3384         0.092363   
    290. A(H  23,H  48,H  35)          130.2094         0.092873   
    291. A(H  35,H  48,O  47)          130.3620         0.114458   
    292. A(O  34,H  48,H  43)           97.7647         0.094029   
    293. A(H   7,H  48,O  34)           74.0557         0.094254   
    294. A(H   7,H  48,H  36)           57.8850         0.092030   
    295. A(H   7,H  48,H  45)           46.2579         0.092405   
    296. A(H   7,H  48,H  23)           83.5548         0.092920   
    297. A(H   7,H  48,O  47)          146.6897         0.114769   
    298. A(O  34,H  48,H  36)           19.6822         0.094541   
    299. A(O  34,H  48,H  45)           66.7520         0.095226   
    300. A(H   8,H  48,H  36)           89.7628         0.091893   
    301. A(H  23,H  48,O  34)          147.6705         0.096169   
    302. A(O  34,H  48,O  47)          117.3716         0.136123   
    303. A(H  36,H  48,H  45)           65.2497         0.092590   
    304. A(H   8,H  48,H  43)           84.5677         0.091626   
    305. A(H  23,H  48,H  36)          139.9887         0.093134   
    306. A(H  36,H  48,O  47)          123.5579         0.116174   
    307. A(H  23,H  48,H  45)           80.9209         0.093645   
    308. A(H  45,H  48,O  47)          165.9327         0.119534   
    309. A(H  23,H  48,O  47)           94.1311         0.124160   
    310. L(O   2,H  49,O  50,H  51, 2) 182.5128         0.200745   
    311. L(O   2,H  49,O  50,H  51, 1) 176.8887         0.200745   
    312. A(H  49,O  50,H  51)          102.7066         0.314772   
    313. A(O  19,H  51,H  20)           26.9812         0.110296   
    314. A(H  20,H  51,O  50)          130.1445         0.136644   
    315. A(O  19,H  51,O  50)          157.1208         0.190601   
    316. A(H  40,O  53,H  52)          115.5536         0.203836   
    317. A(H  52,O  53,H  54)          106.3891         0.316365   
    318. A(H  40,O  53,H  54)          110.0122         0.202225   
    319. A(O  37,H  54,H  38)           25.9918         0.111479   
    320. A(H  38,H  54,O  53)          144.4063         0.134994   
    321. A(O  37,H  54,O  53)          169.8815         0.198562   
    322. A(H  38,H  54,H  40)          102.9093         0.097552   
    323. A(O  37,H  54,H  40)          126.8690         0.109371   
    324. A(H  40,H  54,O  53)           46.6527         0.130681   
    325. D(O   3,C   1,C   0,H   6)    -63.5595         0.010710   
    326. D(O   2,C   1,C   0,H   6)    116.0542         0.010710   
    327. D(O   3,C   1,C   0,H   7)   -179.5076         0.010710   
    328. D(O   3,C   1,C   0,C   4)     55.4851         0.010710   
    329. D(O   2,C   1,C   0,H   7)      0.1062         0.010710   
    330. D(O   2,C   1,C   0,C   4)   -124.9011         0.010710   
    331. D(H  36,O   2,C   1,O   3)   -162.6430         0.075877   
    332. D(H  49,O   2,C   1,O   3)    -12.4639         0.075877   
    333. D(H  36,O   2,C   1,C   0)     17.7803         0.075877   
    334. D(H  49,O   2,C   1,C   0)    167.9594         0.075877   
    335. D(H  33,O   3,C   1,O   2)   -147.4566         0.068034   
    336. D(H  20,O   3,C   1,C   0)   -172.9745         0.068034   
    337. D(H  20,O   3,C   1,O   2)      7.4375         0.068034   
    338. D(H  33,O   3,C   1,C   0)     32.1313         0.068034   
    339. D(H   8,C   4,C   0,H   6)   -176.0952         0.011742   
    340. D(H   8,C   4,C   0,C   1)     65.6442         0.011742   
    341. D(H   9,C   4,C   0,C   1)    -55.8486         0.011742   
    342. D(H   8,C   4,C   0,H   7)    -60.2408         0.011742   
    343. D(N   5,C   4,C   0,C   1)   -175.7015         0.011742   
    344. D(N   5,C   4,C   0,H   6)    -57.4409         0.011742   
    345. D(N   5,C   4,C   0,H   7)     58.4135         0.011742   
    346. D(H  12,N   5,C   4,C   0)    169.5888         0.013984   
    347. D(H  11,N   5,C   4,H   9)    -69.8389         0.013984   
    348. D(H  10,N   5,C   4,H   9)    167.8437         0.013984   
    349. D(H  11,N   5,C   4,H   8)    173.7289         0.013984   
    350. D(H  10,N   5,C   4,H   8)     51.4115         0.013984   
    351. D(H  10,N   5,C   4,C   0)    -69.5313         0.013984   
    352. D(H  11,N   5,C   4,C   0)     52.7861         0.013984   
    353. D(H  48,H   7,C   0,H   6)    170.6605         0.134209   
    354. D(H  48,H   7,C   0,C   4)     53.3101         0.134209   
    355. D(H  48,H   7,C   0,C   1)    -72.7414         0.134209   
    356. D(H  46,H   8,C   4,C   0)     44.4191         0.154278   
    357. D(H  48,H   8,C   4,N   5)    -84.8039         0.154278   
    358. D(H  46,H   8,C   4,H   9)    167.9350         0.154278   
    359. D(H  48,H   8,C   4,H   9)    159.5676         0.154278   
    360. D(H  46,H   8,C   4,N   5)    -76.4365         0.154278   
    361. D(O  47,H   8,C   4,C   0)     36.7360         0.154278   
    362. D(H  48,H   8,C   4,C   0)     36.0517         0.154278   
    363. D(H  23,H  10,N   5,H  11)   -177.3763         0.225348   
    364. D(H  23,H  10,N   5,C   4)    -53.6645         0.225348   
    365. D(O  22,H  10,N   5,H  12)     52.3225         0.225348   
    366. D(O  22,H  10,N   5,C   4)    -68.7549         0.225348   
    367. D(H  23,H  10,N   5,H  12)     67.4128         0.225348   
    368. D(O  22,H  10,N   5,H  11)    167.5333         0.225348   
    369. D(O  13,H  11,N   5,H  10)      6.2765         0.227737   
    370. D(O  13,H  11,N   5,C   4)   -117.9311         0.227737   
    371. D(O  13,H  11,N   5,H  12)    123.3273         0.227737   
    372. D(H  14,O  13,H  11,N   5)   -147.3540         0.001540   
    373. D(H  15,O  13,H  11,N   5)     43.3681         0.001540   
    374. D(H  30,O  13,H  11,N   5)    136.1000         0.001540   
    375. D(H  38,O  13,H  11,N   5)    -62.8253         0.001540   
    376. D(H  38,H  14,O  13,H  11)     78.6375         0.386327   
    377. D(H  38,H  14,O  13,H  15)   -112.3736         0.386327   
    378. D(H  38,H  14,O  13,H  30)    154.0097         0.386327   
    379. D(H  38,H  15,O  13,H  11)    -79.9542         0.327331   
    380. D(H  38,H  15,O  13,H  30)   -164.6534         0.327331   
    381. D(H  18,H  15,O  13,H  38)    161.1184         0.327331   
    382. D(H  18,H  15,O  13,H  14)    -93.1858         0.327331   
    383. D(H  38,H  15,O  13,H  14)    105.6958         0.327331   
    384. D(H  18,H  15,O  13,H  11)     81.1642         0.327331   
    385. D(H  18,H  15,O  13,H  30)     -3.5351         0.327331   
    386. D(H  17,O  16,O  13,H  30)   -112.9514         0.001502   
    387. D(H  17,O  16,O  13,H  14)    157.6879         0.001502   
    388. D(H  18,O  16,H  15,H  38)    163.1168         0.002635   
    389. D(H  17,O  16,H  15,H  18)   -114.5374         0.002635   
    390. D(H  17,O  16,H  15,H  38)     48.5794         0.002635   
    391. D(H  18,O  16,O  13,H  38)    164.9185         0.001502   
    392. D(H  18,O  16,O  13,H  14)    -88.4106         0.001502   
    393. D(H  18,O  16,O  13,H  11)     85.3668         0.001502   
    394. D(H  17,O  16,O  13,H  38)     51.0171         0.001502   
    395. D(H  18,O  16,O  13,H  30)      0.9500         0.001502   
    396. D(H  17,O  16,O  13,H  11)    -28.5347         0.001502   
    397. D(H  43,H  17,O  16,H  15)    -17.6040         0.337463   
    398. D(H  45,H  17,O  16,H  18)    -13.2389         0.337463   
    399. D(H  45,H  17,O  16,H  15)    100.4494         0.337463   
    400. D(H  43,H  17,O  16,H  18)   -131.2922         0.337463   
    401. D(O  16,H  18,H  15,H  38)    -33.6302         0.001529   
    402. D(H  27,H  18,H  15,O  16)   -179.5138         0.001529   
    403. D(O  25,H  18,O  16,H  15)      8.8464         0.360549   
    404. D(H  27,H  18,O  16,H  15)      0.7574         0.360549   
    405. D(H  27,H  18,O  16,H  17)    119.5011         0.360549   
    406. D(H  15,H  18,O  16,H  17)    118.7437         0.360549   
    407. D(H  26,H  18,O  16,H  17)     40.5065         0.360549   
    408. D(H  26,H  18,O  16,H  15)    -78.2372         0.360549   
    409. D(O  25,H  18,H  15,H  38)    148.6871         0.001529   
    410. D(O  25,H  18,O  16,H  17)    127.5900         0.360549   
    411. D(O  25,H  18,H  15,O  13)      7.5418         0.001529   
    412. D(H  27,H  18,H  15,O  13)      5.7106         0.001529   
    413. D(O  25,H  18,H  15,O  16)   -177.6827         0.001529   
    414. D(O  16,H  18,H  15,O  13)   -174.7756         0.001529   
    415. D(H  51,O  19,O   3,H  33)    159.0045         0.001501   
    416. D(H  51,O  19,O   3,C   1)     -0.5656         0.001501   
    417. D(H  21,O  19,O   3,C   1)   -111.8787         0.001501   
    418. D(H  21,O  19,O   3,H  33)     47.6915         0.001501   
    419. D(H  51,H  20,O  19,H  21)   -111.3427         0.292914   
    420. D(H  51,H  20,O   3,H  33)    160.7626         0.002022   
    421. D(H  51,H  20,O   3,C   1)      2.7950         0.002022   
    422. D(H  24,O  22,H  10,H  23)   -124.2499         0.001750   
    423. D(H  24,O  22,H  10,N   5)   -101.0897         0.001750   
    424. D(H  23,O  22,H  10,N   5)     23.1602         0.001750   
    425. D(H  48,O  22,H  10,N   5)     67.3533         0.001750   
    426. D(H  43,O  22,H  10,N   5)    135.8083         0.001750   
    427. D(H  43,O  22,H  10,H  23)    112.6481         0.001750   
    428. D(H  46,H  23,H  10,O  22)   -155.5152         0.001506   
    429. D(H  43,H  23,O  22,H  48)     26.4534         0.514637   
    430. D(H  43,H  23,O  22,H  24)   -128.3265         0.514637   
    431. D(H  10,H  23,O  22,H  24)    132.6240         0.514637   
    432. D(H  10,H  23,O  22,H  43)    -99.0496         0.514637   
    433. D(H  48,H  23,O  22,H  24)   -154.7798         0.514637   
    434. D(H  48,H  23,O  22,H  43)    -26.4534         0.514637   
    435. D(H  43,H  23,O  22,H  10)     99.0496         0.514637   
    436. D(H  46,H  23,H  10,N   5)     33.7044         0.001506   
    437. D(H  10,H  23,O  22,H  48)    -72.5962         0.514637   
    438. D(H  48,H  23,H  10,N   5)     67.8623         0.001506   
    439. D(H  48,H  23,H  10,O  22)   -121.3573         0.001506   
    440. D(H  43,H  23,H  10,O  22)    -50.5017         0.001506   
    441. D(H  43,H  23,H  10,N   5)    138.7179         0.001506   
    442. D(H  48,H  23,O  22,H  10)     72.5962         0.514637   
    443. D(O  22,H  23,H  10,N   5)   -170.7804         0.001506   
    444. D(H  27,O  25,H  18,H  26)    108.9082         0.001812   
    445. D(H  27,O  25,H  18,O  16)    -11.6010         0.001812   
    446. D(H  26,O  25,H  18,H  15)   -112.9880         0.001812   
    447. D(H  26,O  25,H  18,H  27)   -108.9082         0.001812   
    448. D(H  27,O  25,H  18,H  15)     -4.0797         0.001812   
    449. D(H  26,O  25,H  18,O  16)   -120.5092         0.001812   
    450. D(O  25,H  26,H  18,H  27)     41.0461         0.001506   
    451. D(O  25,H  26,H  18,O  16)    144.2012         0.001506   
    452. D(H  18,H  26,O  25,H  27)   -102.8388         0.327563   
    453. D(O  25,H  26,H  18,H  15)     80.8630         0.001506   
    454. D(H  30,H  27,O  25,H  18)      1.6608         0.322582   
    455. D(O  28,H  27,O  25,H  18)     26.3909         0.322582   
    456. D(O  28,H  27,O  25,H  26)    137.2040         0.322582   
    457. D(O  28,H  27,H  18,H  15)      0.3844         0.001519   
    458. D(H  18,H  27,O  25,H  26)    110.8132         0.322582   
    459. D(O  28,H  27,H  18,O  25)   -176.0117         0.001519   
    460. D(O  25,H  27,H  18,H  15)    176.3961         0.001519   
    461. D(O  28,H  27,H  18,O  16)     -0.1852         0.001519   
    462. D(H  30,H  27,O  25,H  26)    112.4740         0.322582   
    463. D(O  25,H  27,H  18,H  26)    -35.4419         0.001519   
    464. D(O  25,H  27,H  18,O  16)    175.8265         0.001519   
    465. D(O  28,H  27,H  18,H  26)    148.5464         0.001519   
    466. D(H  30,O  28,H  27,H  18)     -7.4579         0.001997   
    467. D(H  30,O  28,H  27,O  25)    -31.8505         0.001997   
    468. D(H  29,O  28,H  27,H  18)   -123.9828         0.001997   
    469. D(H  29,O  28,H  27,H  30)   -116.5248         0.001997   
    470. D(H  29,O  28,H  27,O  25)   -148.3754         0.001997   
    471. D(H  33,H  29,O  28,H  27)     33.9883         0.298920   
    472. D(H  33,H  29,O  28,H  30)    -82.2765         0.298920   
    473. D(O  13,H  30,H  27,O  28)   -170.3775         0.001512   
    474. D(O  13,H  30,O  28,H  27)     25.6479         0.349186   
    475. D(O  13,H  30,O  28,H  29)    147.0475         0.349186   
    476. D(H  27,H  30,O  28,H  29)    121.3996         0.349186   
    477. D(O  13,H  30,H  27,H  18)      2.9397         0.001512   
    478. D(O  13,H  30,H  27,O  25)      1.5563         0.001512   
    479. D(O  28,H  30,H  27,H  18)    173.3173         0.001512   
    480. D(O  28,H  30,H  27,O  25)    171.9338         0.001512   
    481. D(H  27,H  30,O  13,H  11)   -102.6890         0.001580   
    482. D(H  27,H  30,O  13,H  15)     -0.9662         0.001580   
    483. D(H  27,H  30,O  13,H  14)    106.6810         0.001580   
    484. D(O  28,H  30,O  13,H  38)   -167.7349         0.001580   
    485. D(O  28,H  30,O  13,H  15)    -21.5873         0.001580   
    486. D(O  28,H  30,O  13,H  14)     86.0600         0.001580   
    487. D(O  28,H  30,O  13,H  11)   -123.3101         0.001580   
    488. D(H  29,O  31,O   3,H  20)   -140.0191         0.001501   
    489. D(H  32,O  31,H  29,H  33)   -116.4065         0.001936   
    490. D(H  33,O  31,O  28,H  27)     27.7801         0.001501   
    491. D(H  33,O  31,O  28,H  30)    -86.6037         0.001501   
    492. D(H  32,O  31,O  28,H  27)    -88.5109         0.001501   
    493. D(H  32,O  31,O  28,H  30)    157.1053         0.001501   
    494. D(H  29,O  31,O   3,C   1)     19.3248         0.001501   
    495. D(H  32,O  31,O   3,H  20)    -18.1314         0.001501   
    496. D(H  32,O  31,O   3,C   1)    141.2126         0.001501   
    497. D(O  31,H  33,H  29,O  28)    174.0709         0.001510   
    498. D(H  29,H  33,O  31,H  32)    122.4675         0.280636   
    499. D(O   3,H  33,H  29,O  31)    179.2494         0.001510   
    500. D(O   3,H  33,H  29,O  28)     -6.6797         0.001510   
    501. D(H  29,H  33,O   3,H  20)   -139.8729         0.002171   
    502. D(H  29,H  33,O   3,C   1)     20.0301         0.002171   
    503. D(H  48,H  35,O  34,H  36)     77.0175         0.332485   
    504. D(O   2,H  36,O  34,H  35)    158.0486         0.313436   
    505. D(O  34,H  36,O   2,C   1)    151.0984         0.001945   
    506. D(H  48,H  36,O   2,C   1)     31.8090         0.001945   
    507. D(H  48,H  36,O   2,H  49)   -122.4316         0.001945   
    508. D(O  34,H  36,O   2,H  49)     -3.1422         0.001945   
    509. D(H  48,H  36,O  34,H  35)    -80.5534         0.313436   
    510. D(O   2,H  36,O  34,H  48)   -121.3979         0.313436   
    511. D(H  14,H  38,O  37,H  54)     75.2407         0.371571   
    512. D(H  14,H  38,O  37,H  39)   -160.3746         0.371571   
    513. D(H  14,H  38,H  15,O  13)    -38.2002         0.001506   
    514. D(O  37,H  38,H  15,O  16)      5.0011         0.001506   
    515. D(O  37,H  38,H  14,O  13)   -167.0679         0.001515   
    516. D(H  15,H  38,O  13,H  14)   -111.9467         0.001842   
    517. D(H  14,H  38,O  13,H  11)   -149.5012         0.001842   
    518. D(H  14,H  38,O  13,H  30)   -103.8685         0.001842   
    519. D(O  37,H  38,O  13,H  15)    177.3196         0.001842   
    520. D(O  37,H  38,O  13,H  14)     65.3729         0.001842   
    521. D(O  37,H  38,O  13,H  11)    -84.1283         0.001842   
    522. D(O  37,H  38,O  13,H  30)    -38.4957         0.001842   
    523. D(H  14,H  38,O  13,H  15)    111.9467         0.001842   
    524. D(H  15,H  38,H  14,O  13)     35.0894         0.001515   
    525. D(H  54,H  38,H  14,O  13)   -107.0907         0.001515   
    526. D(O  37,H  38,H  15,O  13)   -178.8919         0.001506   
    527. D(H  15,H  38,O  13,H  30)    144.1848         0.001842   
    528. D(O  13,H  38,H  15,O  16)   -176.1070         0.001506   
    529. D(O  37,H  38,H  15,H  18)     24.8504         0.001506   
    530. D(O  13,H  38,O  37,H  54)     21.3479         0.371571   
    531. D(O  13,H  38,O  37,H  39)    145.7326         0.371571   
    532. D(H  14,H  38,H  15,O  16)    145.6928         0.001506   
    533. D(H  15,H  38,O  37,H  54)   -162.3730         0.371571   
    534. D(H  15,H  38,O  37,H  39)    -37.9882         0.371571   
    535. D(O  13,H  38,H  15,H  18)   -156.2577         0.001506   
    536. D(H  42,O  41,H  40,H  54)    151.8363         0.282291   
    537. D(H  42,O  41,H  40,O  53)    168.8666         0.282291   
    538. D(H  17,H  43,H  23,H  46)     91.4986         0.001506   
    539. D(H  17,H  43,H  23,H  48)    101.6769         0.001506   
    540. D(H  17,H  43,H  23,O  22)    -53.9986         0.001506   
    541. D(O  44,H  43,H  23,O  47)      2.0084         0.001506   
    542. D(O  44,H  43,H  23,H  46)    -13.6652         0.001506   
    543. D(O  44,H  43,H  23,H  10)   -106.0404         0.001506   
    544. D(O  44,H  43,H  23,O  22)   -159.1624         0.001506   
    545. D(H  17,H  43,O  22,H  48)    122.1869         0.001817   
    546. D(O  44,H  43,O  22,H  10)    -12.2023         0.001817   
    547. D(H  17,H  43,O  22,H  23)    142.6655         0.001817   
    548. D(O  44,H  43,O  22,H  48)     77.2990         0.001817   
    549. D(H  17,H  43,O  22,H  24)    -94.3969         0.001817   
    550. D(O  44,H  43,O  22,H  24)   -139.2848         0.001817   
    551. D(H  17,H  43,O  22,H  10)     32.6856         0.001817   
    552. D(O  44,H  43,O  22,H  23)     97.7776         0.001817   
    553. D(H  23,H  43,H  17,O  44)   -149.4040         0.001506   
    554. D(O  44,H  43,H  23,H  48)     -3.4869         0.001506   
    555. D(H  23,H  43,H  17,O  16)     35.4012         0.001506   
    556. D(O  22,H  43,H  17,H  45)   -136.5104         0.001506   
    557. D(O  22,H  43,H  17,O  44)   -172.3216         0.001506   
    558. D(H  17,H  43,H  23,H  10)     -0.8766         0.001506   
    559. D(O  22,H  43,H  17,O  16)     12.4836         0.001506   
    560. D(O  44,H  43,H  17,H  45)     35.8111         0.001506   
    561. D(O  44,H  43,H  17,O  16)   -175.1948         0.001506   
    562. D(H  17,O  44,H  43,H  48)    125.4340         0.365329   
    563. D(H  17,O  44,H  43,H  23)    128.3734         0.365329   
    564. D(H  17,O  44,H  43,O  22)     49.8775         0.365329   
    565. D(H  45,O  44,H  43,H  48)     10.3282         0.365329   
    566. D(H  45,O  44,H  43,H  23)     13.2676         0.365329   
    567. D(H  45,O  44,H  43,O  22)    -65.2283         0.365329   
    568. D(H  45,O  44,H  43,H  17)   -115.1058         0.365329   
    569. D(H  45,O  44,H  17,H  43)    113.7472         0.001818   
    570. D(H  43,O  44,H  17,H  45)   -113.7472         0.001818   
    571. D(H  45,O  44,O  16,H  15)    101.0957         0.001501   
    572. D(H  45,O  44,O  16,H  18)    -13.2385         0.001501   
    573. D(H  43,O  44,O  16,H  15)    -12.8950         0.001501   
    574. D(H  43,O  44,O  16,H  18)   -127.2292         0.001501   
    575. D(H  17,H  45,C   0,C   4)   -100.6368         0.001500   
    576. D(H  17,H  45,C   0,C   1)    132.7947         0.001500   
    577. D(O  44,H  45,C   0,H   6)     53.2465         0.001500   
    578. D(O  44,H  45,C   0,C   4)    -64.1610         0.001500   
    579. D(O  44,H  45,C   0,C   1)    169.2704         0.001500   
    580. D(H  48,H  45,O  44,H  17)   -129.8440         0.390918   
    581. D(H  17,H  45,O  44,H  43)    116.9404         0.390918   
    582. D(H   7,H  45,O  44,H  17)    -50.2232         0.390918   
    583. D(H   7,H  45,O  44,H  43)     66.7172         0.390918   
    584. D(H  48,H  45,H  17,O  44)     92.1179         0.001508   
    585. D(H  48,H  45,H  17,O  16)    -87.7803         0.001508   
    586. D(H   7,H  45,H  17,H  43)     96.5440         0.001508   
    587. D(H   7,H  45,H  17,O  44)    131.5828         0.001508   
    588. D(H   7,H  45,H  17,O  16)    -48.3154         0.001508   
    589. D(O  44,H  45,H  17,H  43)    -35.0388         0.001508   
    590. D(O  44,H  45,H  17,O  16)   -179.8982         0.001508   
    591. D(H  17,H  45,H   7,H  48)   -153.7443         0.001512   
    592. D(O  44,H  45,H   7,H  48)   -116.9949         0.001512   
    593. D(H  48,H  45,C   0,C   4)     52.9169         0.001500   
    594. D(H  48,H  45,O  44,H  43)    -12.9036         0.390918   
    595. D(H  48,H  45,C   0,C   1)    -73.6516         0.001500   
    596. D(H  17,H  45,C   0,H   6)     16.7707         0.001500   
    597. D(H   8,H  46,H  23,H  43)    -76.5447         0.001501   
    598. D(H   8,H  46,H  23,O  22)    -35.9820         0.001501   
    599. D(O  47,H  46,H  23,H  48)     33.5938         0.001501   
    600. D(O  47,H  46,H  23,H  43)     51.3150         0.001501   
    601. D(O  47,H  46,H  23,H  10)    121.4305         0.001501   
    602. D(O  47,H  46,H  23,O  22)     91.8778         0.001501   
    603. D(H  23,H  46,H   8,O  47)     76.1618         0.001501   
    604. D(H  23,H  46,H   8,H  48)     68.7142         0.001501   
    605. D(H  23,H  46,H   8,C   4)     54.7356         0.001501   
    606. D(H   8,H  46,H  23,H  10)     -6.4293         0.001501   
    607. D(O  47,H  46,H   8,H  48)     -7.4477         0.001501   
    608. D(O  47,H  46,H   8,C   4)    -21.4262         0.001501   
    609. D(H  23,O  47,H  46,H   8)     70.1991         0.395822   
    610. D(H  48,O  47,H  46,H  23)    -57.9321         0.395822   
    611. D(H  48,O  47,H  46,H   8)     12.2670         0.395822   
    612. D(H  48,O  47,H  23,H  43)    -15.5436         0.001500   
    613. D(H  48,O  47,H  23,H  10)     53.2515         0.001500   
    614. D(H  48,O  47,H  23,O  22)      4.6568         0.001500   
    615. D(H  46,O  47,H  23,H  48)   -115.9933         0.001500   
    616. D(H  46,O  47,H  23,H  43)   -131.5369         0.001500   
    617. D(H  46,O  47,H  23,H  10)    -62.7418         0.001500   
    618. D(H  46,O  47,H  23,O  22)   -111.3365         0.001500   
    619. D(H  23,O  47,H   8,H  48)     73.8769         0.001500   
    620. D(H  23,O  47,H   8,H  46)    -93.0521         0.001500   
    621. D(H  23,O  47,H   8,C   4)     71.8948         0.001500   
    622. D(H  48,O  47,H  23,H  46)    115.9933         0.001500   
    623. D(H  48,O  47,H   8,H  46)   -166.9290         0.001500   
    624. D(H  48,O  47,H   8,C   4)     -1.9822         0.001500   
    625. D(H  46,O  47,H   8,H  48)    166.9290         0.001500   
    626. D(H   8,O  47,H  46,H  23)    -70.1991         0.395822   
    627. D(H  46,O  47,H   8,C   4)    164.9469         0.001500   
    628. D(H   7,H  48,O  47,H  46)    -22.2829         0.594884   
    629. D(O  34,H  48,O  47,H   8)   -116.5453         0.594884   
    630. D(O  34,H  48,O  47,H  23)    172.4747         0.594884   
    631. D(O  34,H  48,O  47,H  46)   -125.2609         0.594884   
    632. D(H  36,H  48,O  47,H   8)    -94.8124         0.594884   
    633. D(H  36,H  48,O  47,H  23)   -165.7923         0.594884   
    634. D(H  36,H  48,O  47,H  46)   -103.5279         0.594884   
    635. D(H  45,H  48,O  47,H  23)     68.7365         0.594884   
    636. D(H  45,H  48,O  47,H  46)    131.0009         0.594884   
    637. D(H  23,H  48,O  47,H   8)     70.9799         0.594884   
    638. D(H   7,H  48,H  45,O  44)    101.8966         0.001501   
    639. D(O  34,H  48,H  45,H  17)    130.3618         0.001501   
    640. D(O  34,H  48,H  45,H   7)     89.8452         0.001501   
    641. D(H  36,H  48,H  45,H  17)    108.8578         0.001501   
    642. D(H  36,H  48,H  45,H   7)     68.3412         0.001501   
    643. D(H  36,H  48,H  45,O  44)    170.2378         0.001501   
    644. D(H  23,H  48,H  45,H  17)    -49.2305         0.001501   
    645. D(H  23,H  48,H  45,H   7)    -89.7471         0.001501   
    646. D(H  23,H  48,H  45,O  44)     12.1495         0.001501   
    647. D(O  47,H  48,H  45,H  17)   -119.5006         0.001501   
    648. D(O  47,H  48,H  45,O  44)    -58.1206         0.001501   
    649. D(H  36,H  48,H  43,H  17)     22.6618         0.001500   
    650. D(H  36,H  48,H  43,O  44)    -22.9081         0.001500   
    651. D(H  45,H  48,H  43,O  22)    165.2469         0.001500   
    652. D(H  45,H  48,H  43,H  17)     38.7312         0.001500   
    653. D(H  45,H  48,H  43,O  44)     -6.8386         0.001500   
    654. D(H  23,H  48,H  43,H  17)   -135.8003         0.001500   
    655. D(H  23,H  48,H  43,O  44)    178.6299         0.001500   
    656. D(O  47,H  48,H  43,H  23)    -26.2512         0.001500   
    657. D(O  47,H  48,H  43,O  22)    -35.5358         0.001500   
    658. D(O  47,H  48,H  43,H  17)   -162.0515         0.001500   
    659. D(O  47,H  48,H  43,O  44)    152.3787         0.001500   
    660. D(H  35,H  48,H  36,O   2)   -153.7199         0.001500   
    661. D(H   7,H  48,H  36,O   2)    -47.7500         0.001500   
    662. D(H   7,H  48,H  36,O  34)    142.3489         0.001500   
    663. D(O  34,H  48,H  36,O   2)    169.9012         0.001500   
    664. D(H  45,H  48,H  36,O  34)     89.9049         0.001500   
    665. D(H  23,H  48,H  36,O   2)    -65.2237         0.001500   
    666. D(H  23,H  48,H  36,O  34)    124.8752         0.001500   
    667. D(O  47,H  48,H  36,O  34)    -77.5050         0.001500   
    668. D(O  22,H  48,H  35,O  34)   -152.2371         0.001500   
    669. D(H   8,H  48,H  35,O  34)    -74.8320         0.001500   
    670. D(H  43,H  48,H  35,O  34)   -154.1192         0.001500   
    671. D(H   7,H  48,H  35,O  34)    -97.5071         0.001500   
    672. D(H  36,H  48,H  35,O  34)    -37.7834         0.001500   
    673. D(H  45,H  48,H  35,O  34)   -146.2330         0.001500   
    674. D(O  47,H  48,H  35,O  34)     52.1441         0.001500   
    675. D(H  43,H  48,O  34,H  35)     25.7618         0.001500   
    676. D(H  35,H  48,O  34,H  36)   -109.0169         0.001500   
    677. D(H   7,H  48,O  34,H  35)     76.4638         0.001500   
    678. D(H  36,H  48,O  34,H  35)    109.0169         0.001500   
    679. D(H  45,H  48,O  34,H  36)    -81.2616         0.001500   
    680. D(H  45,H  48,O  34,H  35)     27.7553         0.001500   
    681. D(H  23,H  48,O  34,H  36)    -80.5088         0.001500   
    682. D(H  23,H  48,O  34,H  35)     28.5081         0.001500   
    683. D(O  47,H  48,O  34,H  36)    113.6289         0.001500   
    684. D(O  47,H  48,O  34,H  35)   -137.3542         0.001500   
    685. D(H  36,H  48,H  23,O  47)    161.4509         0.001502   
    686. D(H   7,H  48,O  34,H  36)    -32.5531         0.001500   
    687. D(H  36,H  48,H  23,H  46)    127.7354         0.001502   
    688. D(H  36,H  48,H  23,H  43)    -34.6654         0.001502   
    689. D(H  36,H  48,H  23,H  10)     31.3473         0.001502   
    690. D(H  23,H  48,H  35,O  34)   -160.4745         0.001500   
    691. D(H  36,H  48,H  23,O  22)    -14.9935         0.001502   
    692. D(H  45,H  48,H  23,O  47)   -166.7389         0.001502   
    693. D(H  45,H  48,H  23,H  46)    159.5456         0.001502   
    694. D(H  45,H  48,H  23,H  43)     -2.8552         0.001502   
    695. D(H  45,H  48,H  23,H  10)     63.1574         0.001502   
    696. D(H  45,H  48,H  23,O  22)     16.8166         0.001502   
    697. D(O  47,H  48,H  23,H  46)    -33.7155         0.001502   
    698. D(O  47,H  48,H  36,O   2)     92.3961         0.001500   
    699. D(O  47,H  48,H  23,H  43)    163.8837         0.001502   
    700. D(O  47,H  48,H  23,H  10)   -130.1037         0.001502   
    701. D(O  47,H  48,H  23,O  22)   -176.4445         0.001502   
    702. D(H  45,H  48,H  36,O   2)   -100.1940         0.001500   
    703. D(H  36,H  48,O  22,H  24)   -144.3469         0.001500   
    704. D(H  36,H  48,O  22,H  23)    168.3727         0.001500   
    705. D(H  45,H  48,O  22,H  10)     83.4669         0.001500   
    706. D(H  35,H  48,H  36,O  34)     36.3789         0.001500   
    707. D(H  45,H  48,O  22,H  43)     -8.2964         0.001500   
    708. D(H  45,H  48,O  22,H  24)   -114.4415         0.001500   
    709. D(H  45,H  48,O  22,H  23)   -161.7220         0.001500   
    710. D(H  23,H  48,O  22,H  10)   -114.8111         0.001500   
    711. D(H  23,H  48,O  22,H  43)    153.4256         0.001500   
    712. D(H  23,H  48,O  22,H  24)     47.2805         0.001500   
    713. D(O  47,H  48,O  22,H  10)   -111.0339         0.001500   
    714. D(H  23,H  48,H  43,O  22)     -9.2846         0.001500   
    715. D(O  47,H  48,O  22,H  43)    157.2028         0.001500   
    716. D(O  47,H  48,O  22,H  24)     51.0577         0.001500   
    717. D(O  47,H  48,O  22,H  23)      3.7772         0.001500   
    718. D(H  45,H  48,H  43,H  23)    174.5315         0.001500   
    719. D(O  34,H  48,H   8,H  46)    128.7258         0.001500   
    720. D(O  34,H  48,H   8,C   4)    -58.9170         0.001500   
    721. D(H  36,H  48,H   8,O  47)    123.8605         0.001500   
    722. D(O  47,H  48,H  45,H   7)   -160.0172         0.001501   
    723. D(H  36,H  48,H   8,H  46)    129.9684         0.001500   
    724. D(H  36,H  48,H   8,C   4)    -57.6744         0.001500   
    725. D(H  45,H  48,H   8,O  47)   -170.9443         0.001500   
    726. D(H  45,H  48,H   8,H  46)   -164.8364         0.001500   
    727. D(H  45,H  48,H   8,C   4)      7.5208         0.001500   
    728. D(H  23,H  48,H   8,O  47)    -91.7142         0.001500   
    729. D(H  23,H  48,H   8,H  46)    -85.6063         0.001500   
    730. D(O  34,H  48,H  45,O  44)   -168.2582         0.001501   
    731. D(H  23,H  48,H   8,C   4)     86.7508         0.001500   
    732. D(O  47,H  48,H   8,H  46)      6.1079         0.001500   
    733. D(O  47,H  48,H   8,C   4)    178.4651         0.001500   
    734. D(H  23,H  48,O  47,H  46)     62.2644         0.594884   
    735. D(H  35,H  48,H   7,H  45)    -53.2102         0.001500   
    736. D(H  35,H  48,H   7,C   0)    125.8719         0.001500   
    737. D(O  34,H  48,H   7,H  45)    -72.8552         0.001500   
    738. D(H  45,H  48,O  47,H   8)    139.7165         0.594884   
    739. D(O  34,H  48,H   7,C   0)    106.2269         0.001500   
    740. D(H  36,H  48,H   7,H  45)    -85.2102         0.001500   
    741. D(H  36,H  48,H   7,C   0)     93.8719         0.001500   
    742. D(H  45,H  48,H   7,C   0)    179.0821         0.001500   
    743. D(H  23,H  48,H   7,H  45)     83.5870         0.001500   
    744. D(H  23,H  48,H   7,C   0)    -97.3309         0.001500   
    745. D(O  47,H  48,H   7,H  45)    171.3005         0.001500   
    746. D(O  47,H  48,H   7,C   0)     -9.6174         0.001500   
    747. D(H  51,O  50,O   2,H  36)    169.2107         0.001501   
    748. D(H  51,O  50,O   2,C   1)      9.9004         0.001501   
    749. D(H  20,H  51,O  50,H  49)     -1.8836         0.301544   
    750. D(O  19,H  51,O  50,H  49)     -2.8093         0.301544   
    751. D(O  19,H  51,H  20,O   3)    175.2390         0.001516   
    752. D(O  50,H  51,H  20,O   3)     -3.9677         0.001516   
    753. D(O  50,H  51,H  20,O  19)   -179.2068         0.001516   
    754. D(H  20,H  51,O  19,H  21)    106.6969         0.001614   
    755. D(O  50,H  51,O  19,H  21)    108.2566         0.001614   
    756. D(O  50,H  51,O  19,H  20)      1.5598         0.001614   
    757. D(H  54,O  53,H  40,O  41)    -24.4309         0.001824   
    758. D(H  52,O  53,H  40,H  54)   -120.4633         0.001824   
    759. D(H  52,O  53,H  40,O  41)   -144.8941         0.001824   
    760. D(H  40,H  54,O  53,H  52)    125.8478         0.337379   
    761. D(H  38,H  54,O  53,H  40)     37.7287         0.337379   
    762. D(O  37,H  54,O  53,H  40)     53.6335         0.337379   
    763. D(O  37,H  54,O  53,H  52)    179.4813         0.337379   
    764. D(H  38,H  54,H  40,O  53)   -158.5680         0.001506   
    765. D(H  38,H  54,H  40,O  41)     13.0369         0.001506   
    766. D(O  37,H  54,H  40,O  53)   -169.8146         0.001506   
    767. D(O  37,H  54,H  40,O  41)      1.7903         0.001506   
    768. D(O  53,H  54,H  40,O  41)    171.6050         0.001506   
    769. D(O  37,H  54,H  38,H  15)    172.0322         0.001516   
    770. D(O  37,H  54,H  38,H  14)   -149.0308         0.001516   
    771. D(O  37,H  54,H  38,O  13)   -177.1500         0.001516   
    772. D(O  53,H  54,H  38,H  15)    -14.2749         0.001516   
    773. D(O  53,H  54,H  38,H  14)     24.6621         0.001516   
    774. D(O  53,H  54,H  38,O  13)     -3.4571         0.001516   
    775. D(O  53,H  54,H  38,O  37)    173.6929         0.001516   
    776. D(H  40,H  54,O  37,H  39)    -86.9592         0.001763   
    777. D(H  40,H  54,O  37,H  38)     25.7079         0.001763   
    778. D(H  38,H  54,O  53,H  52)    163.5765         0.337379   
    779. D(H  38,H  54,O  37,H  39)   -112.6672         0.001763   
    780. D(O  53,H  54,O  37,H  39)   -134.0103         0.001763   
    781. D(O  53,H  54,O  37,H  38)    -21.3432         0.001763   
    -----------------------------------------------------------------

Number of atoms                         .... 55
Number of degrees of freedom            .... 781


         *************************************************************
         *                GEOMETRY OPTIMIZATION CYCLE   1            *
         *************************************************************
---------------------------------
CARTESIAN COORDINATES (ANGSTROEM)
---------------------------------
  C     -0.556904    1.040254   -0.477809
  C     -1.188204    2.289119    0.131444
  O     -2.426121    2.311846    0.324723
  O     -0.395066    3.239508    0.397519
  C      0.564912    0.479136    0.385099
  N      1.225642   -0.678970   -0.293066
  H     -0.138028    1.330041   -1.445635
  H     -1.296472    0.269670   -0.688044
  H      0.177808    0.114202    1.335107
  H      1.333801    1.218858    0.586032
  H      0.609053   -1.508107   -0.339458
  H      1.524589   -0.434472   -1.242480
  H      2.074582   -0.926397    0.214822
  O      1.540326   -0.591529   -3.333018
  H      2.019198   -0.531853   -4.172664
  H      0.564901   -0.672430   -3.543841
  O     -1.062511   -0.756406   -3.821557
  H     -1.546462   -1.161697   -3.068332
  H     -1.357249    0.181341   -3.861387
  O     -0.914093    5.531704    1.783558
  H     -0.720633    4.729471    1.239347
  H     -0.871154    6.276007    1.173260
  O     -0.436084   -3.003831    0.024101
  H     -0.713661   -2.955829    0.947365
  H     -0.108751   -3.901712   -0.127808
  O     -1.485233    2.006756   -3.929448
  H     -1.988096    2.297813   -3.158084
  H     -0.540074    2.200812   -3.719007
  O      1.193284    2.324239   -3.440610
  H      1.431028    2.851232   -2.641450
  H      1.501465    1.419885   -3.273782
  O      1.788990    3.687823   -1.128431
  H      1.878940    4.646788   -1.202983
  H      1.001565    3.533618   -0.543277
  O     -4.526697    0.589051    0.610121
  H     -4.622525   -0.042748   -0.111821
  H     -3.721577    1.120972    0.431732
  O      2.580307   -3.063095   -2.487189
  H      2.148388   -2.235165   -2.786397
  H      1.917639   -3.504311   -1.946700
  H      4.267660   -0.176852   -0.809320
  O      3.808498    0.669420   -0.618960
  H      4.243418    1.058391    0.146762
  H     -1.775240   -2.409001   -1.098369
  O     -2.421640   -1.973605   -1.696427
  H     -2.828484   -1.276547   -1.163453
  H     -1.559838   -1.191912    2.754447
  O     -2.461317   -1.407377    2.482705
  H     -2.486155   -1.214155    1.538125
  H     -3.172900    3.627667    1.336870
  O     -3.521493    4.348723    1.906120
  H     -2.750274    4.936225    2.004190
  H      5.288229   -2.331377   -0.719954
  O      4.836589   -1.790909   -1.380776
  H      4.074154   -2.322648   -1.699863

----------------------------
CARTESIAN COORDINATES (A.U.)
----------------------------
  NO LB      ZA    FRAG     MASS         X           Y           Z
   0 C     6.0000    0    12.011   -1.052395    1.965795   -0.902929
   1 C     6.0000    0    12.011   -2.245380    4.325808    0.248393
   2 O     8.0000    0    15.999   -4.584704    4.368755    0.613638
   3 O     8.0000    0    15.999   -0.746567    6.121783    0.751202
   4 C     6.0000    0    12.011    1.067530    0.905435    0.727732
   5 N     7.0000    0    14.007    2.316128   -1.283068   -0.553815
   6 H     1.0000    0     1.008   -0.260836    2.513414   -2.731853
   7 H     1.0000    0     1.008   -2.449977    0.509602   -1.300214
   8 H     1.0000    0     1.008    0.336008    0.215811    2.522987
   9 H     1.0000    0     1.008    2.520518    2.303308    1.107441
  10 H     1.0000    0     1.008    1.150943   -2.849908   -0.641482
  11 H     1.0000    0     1.008    2.881057   -0.821032   -2.347948
  12 H     1.0000    0     1.008    3.920392   -1.750637    0.405955
  13 O     8.0000    0    15.999    2.910794   -1.117828   -6.298490
  14 H     1.0000    0     1.008    3.815731   -1.005056   -7.885192
  15 H     1.0000    0     1.008    1.067508   -1.270708   -6.696889
  16 O     8.0000    0    15.999   -2.007854   -1.429399   -7.221695
  17 H     1.0000    0     1.008   -2.922390   -2.195290   -5.798307
  18 H     1.0000    0     1.008   -2.564829    0.342685   -7.296964
  19 O     8.0000    0    15.999   -1.727386   10.453406    3.370436
  20 H     1.0000    0     1.008   -1.361799    8.937405    2.342026
  21 H     1.0000    0     1.008   -1.646243   11.859934    2.217140
  22 O     8.0000    0    15.999   -0.824079   -5.676417    0.045544
  23 H     1.0000    0     1.008   -1.348623   -5.585707    1.790260
  24 H     1.0000    0     1.008   -0.205510   -7.373167   -0.241522
  25 O     8.0000    0    15.999   -2.806684    3.792220   -7.425580
  26 H     1.0000    0     1.008   -3.756957    4.342238   -5.967915
  27 H     1.0000    0     1.008   -1.020593    4.158933   -7.027905
  28 O     8.0000    0    15.999    2.254980    4.392175   -6.501811
  29 H     1.0000    0     1.008    2.704251    5.388048   -4.991616
  30 H     1.0000    0     1.008    2.837357    2.683194   -6.186552
  31 O     8.0000    0    15.999    3.380701    6.968976   -2.132426
  32 H     1.0000    0     1.008    3.550683    8.781156   -2.273308
  33 H     1.0000    0     1.008    1.892683    6.677571   -1.026644
  34 O     8.0000    0    15.999   -8.554218    1.113146    1.152961
  35 H     1.0000    0     1.008   -8.735307   -0.080781   -0.211312
  36 H     1.0000    0     1.008   -7.032762    2.118331    0.815854
  37 O     8.0000    0    15.999    4.876073   -5.788411   -4.700106
  38 H     1.0000    0     1.008    4.059866   -4.223851   -5.265527
  39 H     1.0000    0     1.008    3.623812   -6.622188   -3.678730
  40 H     1.0000    0     1.008    8.064709   -0.334202   -1.529393
  41 O     8.0000    0    15.999    7.197018    1.265021   -1.169665
  42 H     1.0000    0     1.008    8.018898    2.000068    0.277341
  43 H     1.0000    0     1.008   -3.354718   -4.552352   -2.075616
  44 O     8.0000    0    15.999   -4.576236   -3.729574   -3.205783
  45 H     1.0000    0     1.008   -5.345061   -2.412325   -2.198607
  46 H     1.0000    0     1.008   -2.947666   -2.252388    5.205151
  47 O     8.0000    0    15.999   -4.651215   -2.659557    4.691633
  48 H     1.0000    0     1.008   -4.698152   -2.294420    2.906636
  49 H     1.0000    0     1.008   -5.995912    6.855297    2.526318
  50 O     8.0000    0    15.999   -6.654657    8.217896    3.602044
  51 H     1.0000    0     1.008   -5.197264    9.328113    3.787370
  52 H     1.0000    0     1.008    9.993305   -4.405664   -1.360516
  53 O     8.0000    0    15.999    9.139828   -3.384327   -2.609288
  54 H     1.0000    0     1.008    7.699036   -4.389169   -3.212276

--------------------------------
INTERNAL COORDINATES (ANGSTROEM)
--------------------------------
 C      0   0   0     0.000000000000     0.00000000     0.00000000
 C      1   0   0     1.526235188697     0.00000000     0.00000000
[...]
 O     19  17  16     1.819075382825   167.13664640    10.69382251
 H     26  19  17     0.965134370828   110.98633054   235.83668860
 H     26  19  17     0.987586468411    99.10326600   346.39231846
 O     28  26  19     1.757846994154   169.93416812    23.66923371
 H     29  28  26     0.983906547708   115.72272274   215.80872350
 H     29  28  26     0.971830787060   102.49687869   331.11953080
 O     30  29  28     1.771205095394   177.65511110    22.35809051
 H     32  30  29     0.964394942847   112.78067840   251.92674886
 H     32  30  29     0.988255325175   105.15483853     6.79842018
 O      3   2   1     2.732724028293   135.05181456    11.59332560
 H     35   3   2     0.963741029998   112.14243383   295.39497389
 H     35   3   2     0.982639304542     7.23712811   327.16928126
 O     14  12   6     2.854430685923    80.80223552   308.10065561
 H     38  14  12     0.979008974198     4.64629240   102.78552444
 H     38  14  12     0.966128956845   109.24247135    70.39500636
 H     13   6   5     2.175384941718   154.74987547   179.95082078
 O     41  13   6     0.987142703484    53.01185578   179.22727446
 H     42  41  13     0.965081289384   106.10393309   115.10065295
 H     23  11   6     1.866618290552    94.35817088   140.76519967
 O     44  23  11     0.977573526205   175.48114011   340.48566912
 H     45  44  23     0.965447787053   105.06572736   296.32201414
 H     24  23  11     2.403878604775   137.24126137    35.74027078
 O     47  24  23     0.965999842554    82.55887965   101.48908636
 H     48  47  24     0.965498394605   104.54999033   293.54153495
 H      3   2   1     1.819406912182   122.62042283   176.58666311
 O     50   3   2     0.979633383377   175.20088982   351.69566960
 H     51  50   3     0.973377913374   102.27110320    16.30492357
 H     41  13   6     2.324816555816   129.43860692   351.95691315
 O     53  41  13     0.964523474413    44.37414195    66.15832651
 H     54  53  41     0.984955966068   105.73780951   246.25923934

---------------------------
INTERNAL COORDINATES (A.U.)
---------------------------
 C      0   0   0     0.000000000000     0.00000000     0.00000000
 C      1   0   0     2.885293297898     0.00000000     0.00000000
 O      2   1   0     2.370342057141   118.24618482     0.00000000
 O      2   1   3     2.389714083716   117.23087488   180.91855784
 C      1   2   3     2.873399021606   112.23225804   222.79929752
 N      5   1   2     2.819124433829   111.91546800   184.59241321
 H      1   2   3     2.066478987812   107.14133636   102.51238927
 H      1   2   3     2.059769254971   109.68848704   346.43034357
 H      5   1   2     2.060956602830   111.37609600    65.17959748
 H      5   1   2     2.054504652087   111.37320076   304.06862626
 H      6   5   1     1.948147516959   111.62109040   297.36443924
 H      6   5   1     1.942253483827   111.91000417    57.07912600
 H      6   5   1     1.970185685333   109.60251621   177.77840058
 O     12   6   5     3.660554138901   161.85736632   234.77366142
 H     14  12   6     1.826014966235   145.42134798   220.49861121
 H     14  12   6     1.894890838803   107.04361239    53.77707585
 O     16  14  12     3.130480573916   174.61920552    23.50648309
 H     17  16  14     1.854268625900   110.54088113   306.16888374
 H     17  16  14     1.856845896893   104.53219319    59.64686152
 O      4   2   1     5.142372088759   127.31472660   176.96619088
 H     20   4   2     1.863481152772     1.49917768   297.07968386
 H     20   4   2     1.817999802743   106.55946020   256.06453108
 O     11   6   5     3.562243510048   174.20546308   290.75379701
 H     23  11   6     1.829630275876   106.23447171    26.59278667
 H     23  11   6     1.825973542458   120.80793698   266.06918703
 O     19  17  16     3.437554290497   167.13664640    10.69382251
 H     26  19  17     1.823839643299   110.98633054   235.83668860
 H     26  19  17     1.866267958863    99.10326600   346.39231846
 O     28  26  19     3.321849404287   169.93416812    23.66923371
 H     29  28  26     1.859313916541   115.72272274   215.80872350
 H     29  28  26     1.836494036056   102.49687869   331.11953080
 O     30  29  28     3.347092557301   177.65511110    22.35809051
 H     32  30  29     1.822442326920   112.78067840   251.92674886
 H     32  30  29     1.867531914969   105.15483853     6.79842018
 O      3   2   1     5.164100013059   135.05181456    11.59332560
 H     35   3   2     1.821206610720   112.14243383   295.39497389
 H     35   3   2     1.856919174011     7.23712811   327.16928126
 O     14  12   6     5.394092264655    80.80223552   308.10065561
 H     38  14  12     1.850058843885     4.64629240   102.78552444
 H     38  14  12     1.825719138488   109.24247135    70.39500636
 H     13   6   5     4.110881775703   154.74987547   179.95082078
 O     41  13   6     1.865429364684    53.01185578   179.22727446
 H     42  41  13     1.823739333907   106.10393309   115.10065295
 H     23  11   6     3.527397365712    94.35817088   140.76519967
 O     44  23  11     1.847346240298   175.48114011   340.48566912
 H     45  44  23     1.824431914130   105.06572736   296.32201414
 H     24  23  11     4.542672222217   137.24126137    35.74027078
 O     47  24  23     1.825475147837    82.55887965   101.48908636
 H     48  47  24     1.824527548544   104.54999033   293.54153495
 H      3   2   1     3.438180790188   122.62042283   176.58666311
 O     50   3   2     1.851238806228   175.20088982   351.69566960
 H     51  50   3     1.839417681085   102.27110320    16.30492357
 H     41  13   6     4.393266602099   129.43860692   351.95691315
 O     53  41  13     1.822685216379    44.37414195    66.15832651
 H     54  53  41     1.861297029841   105.73780951   246.25923934

--------------------------------------------------------------------------
WARNING: There was an error initializing an OpenFabrics device.

  Local host:   ga00
  Local device: mlx5_0
--------------------------------------------------------------------------


           ************************************************************
           *        Program running with 15 parallel MPI-processes    *
           *              working on a common directory               *
           ************************************************************
------------------------------------------------------------------------------
                   ___                                                        
                  /   \      - P O W E R E D   B Y -                         
                 /     \                                                     
                 |  |  |   _    _      __       _____    __    __             
                 |  |  |  | |  | |    /  \     |  _  \  |  |  /  |          
                  \  \/   | |  | |   /    \    | | | |  |  | /  /          
                 / \  \   | |__| |  /  /\  \   | |_| |  |  |/  /          
                |  |  |   |  __  | /  /__\  \  |    /   |      \           
                |  |  |   | |  | | |   __   |  |    \   |  |\   \          
                \     /   | |  | | |  |  |  |  | |\  \  |  | \   \       
                 \___/    |_|  |_| |__|  |__|  |_| \__\ |__|  \__/        
                                                                              
                      - O R C A' S   B I G   F R I E N D -                    
                                      &                                       
                       - I N T E G R A L  F E E D E R -                       
                                                                              
 v1 FN, 2020, v2 2021, v3 2022-2024                                           
------------------------------------------------------------------------------


----------------------
SHARK INTEGRAL PACKAGE
----------------------

Number of atoms                             ...     55
Number of basis functions                   ...    830
Number of shells                            ...    360
Maximum angular momentum                    ...      3
Integral batch strategy                     ... SHARK/LIBINT Hybrid
RI-J (if used) integral strategy            ... SPLIT-RIJ (Revised 2003 algorithm where possible)
Printlevel                                  ...      1
Contraction scheme used                     ... SEGMENTED contraction
Prescreening option                         ... SCHWARTZ
   Thresh                                   ... 2.500e-11
   Tcut                                     ... 2.500e-12
   Tpresel                                  ... 2.500e-12 
Coulomb Range Separation                    ... NOT USED
Exchange Range Separation                   ... NOT USED
Multipole approximations                    ... NOT USED
Finite Nucleus Model                        ... NOT USED
CABS basis                                  ... NOT available
Auxiliary Coulomb fitting basis             ... AVAILABLE
   # of basis functions in Aux-J            ...   1365
   # of shells in Aux-J                     ...    475
   Maximum angular momentum in Aux-J        ...      4
Auxiliary J/K fitting basis                 ... NOT available
Auxiliary Correlation fitting basis         ... NOT available
Auxiliary 'external' fitting basis          ... NOT available

Checking pre-screening integrals            ... done (  0.0 sec) Dimension = 360
Check shell pair data                       ... done (  0.0 sec)
Shell pair information
Shell pair cut-off parameter TPreSel        ...   2.5e-12
Total number of shell pairs                 ...     64980
Shell pairs after pre-screening             ...     38673
Total number of primitive shell pairs       ...    186900
Primitive shell pairs kept                  ...     71127
          la=0 lb=0:  13403 shell pairs
          la=1 lb=0:  12098 shell pairs
          la=1 lb=1:   2837 shell pairs
          la=2 lb=0:   4445 shell pairs
          la=2 lb=1:   2029 shell pairs
          la=2 lb=2:    364 shell pairs
          la=3 lb=0:   2113 shell pairs
          la=3 lb=1:    978 shell pairs
          la=3 lb=2:    329 shell pairs
          la=3 lb=3:     77 shell pairs

Calculating one electron integrals          ... done (  0.1 sec)
Calculating RI/J V-Matrix + Cholesky decomp.... done (  0.1 sec)
Calculating Nuclear repulsion               ... done (  0.0 sec) ENN=   2082.416884296988 Eh

Diagonalization of the overlap matrix:
Smallest eigenvalue                        ... 1.152e-04
Time for diagonalization                   ...    0.103 sec
Threshold for overlap eigenvalues          ... 1.000e-07
Number of eigenvalues below threshold      ... 0
Time for construction of square roots      ...    0.046 sec
Total time needed                          ...    0.154 sec

-------------------
DFT GRID GENERATION
-------------------

General Integration Accuracy     IntAcc      ... 4.388
Radial Grid Type                 RadialGrid  ... OptM3 with GC (2021)
Angular Grid (max. ang.)         AngularGrid ... 4 (Lebedev-302)
Angular grid pruning method      GridPruning ... 4 (adaptive)
Weight generation scheme         WeightScheme... mBecke (2022)
Basis function cutoff            BFCut       ... 1.0000e-11
Integration weight cutoff        WCut        ... 1.0000e-14
Partially contracted basis set               ... off
Rotationally invariant grid construction     ... off
Angular grids for H and He will be reduced by one unit

Total number of grid points                  ...   232599
Total number of batches                      ...     3661
Average number of points per batch           ...       63
Average number of grid points per atom       ...     4229

--------------------
COSX GRID GENERATION
--------------------

GRIDX 1
-------
General Integration Accuracy     IntAcc      ... 3.816
Radial Grid Type                 RadialGrid  ... OptM3 with GC (2021)
Angular Grid (max. ang.)         AngularGrid ... 1 (Lebedev-50)
Angular grid pruning method      GridPruning ... 4 (adaptive)
Weight generation scheme         WeightScheme... mBecke (2022)
Basis function cutoff            BFCut       ... 1.0000e-11
Integration weight cutoff        WCut        ... 1.0000e-14
Partially contracted basis set               ... on
Rotationally invariant grid construction     ... off
Angular grids for H and He will be reduced by one unit

Total number of grid points                  ...    29619
Total number of batches                      ...      250
Average number of points per batch           ...      118
Average number of grid points per atom       ...      539
UseSFitting                                  ... on

GRIDX 2
-------
General Integration Accuracy     IntAcc      ... 4.020
Radial Grid Type                 RadialGrid  ... OptM3 with GC (2021)
Angular Grid (max. ang.)         AngularGrid ... 2 (Lebedev-110)
Angular grid pruning method      GridPruning ... 4 (adaptive)
Weight generation scheme         WeightScheme... mBecke (2022)
Basis function cutoff            BFCut       ... 1.0000e-11
Integration weight cutoff        WCut        ... 1.0000e-14
Partially contracted basis set               ... on
Rotationally invariant grid construction     ... off
Angular grids for H and He will be reduced by one unit

Total number of grid points                  ...    61497
Total number of batches                      ...      508
Average number of points per batch           ...      121
Average number of grid points per atom       ...     1118
UseSFitting                                  ... on

GRIDX 3
-------
General Integration Accuracy     IntAcc      ... 4.338
Radial Grid Type                 RadialGrid  ... OptM3 with GC (2021)
Angular Grid (max. ang.)         AngularGrid ... 3 (Lebedev-194)
Angular grid pruning method      GridPruning ... 4 (adaptive)
Weight generation scheme         WeightScheme... mBecke (2022)
Basis function cutoff            BFCut       ... 1.0000e-11
Integration weight cutoff        WCut        ... 1.0000e-14
Partially contracted basis set               ... on
Rotationally invariant grid construction     ... off
Angular grids for H and He will be reduced by one unit

Total number of grid points                  ...   133281
Total number of batches                      ...     1069
Average number of points per batch           ...      124
Average number of grid points per atom       ...     2423
UseSFitting                                  ... on
Initializing property integral containers    ... done (  0.0 sec)

SHARK setup successfully completed in   2.7 seconds

Maximum memory used throughout the entire STARTUP-calculation: 96.1 MB
[ga00:1091603] 14 more processes have sent help message help-mpi-btl-openib.txt / error in device init
[ga00:1091603] Set MCA parameter "orte_base_help_aggregate" to 0 to see all help / error messages
--------------------------------------------------------------------------
WARNING: There was an error initializing an OpenFabrics device.

  Local host:   ga00
  Local device: mlx5_0
--------------------------------------------------------------------------


           ************************************************************
           *        Program running with 15 parallel MPI-processes    *
           *              working on a common directory               *
           ************************************************************
Occupation numbers will be reassigned to an Aufbau configuration
             **** ENERGY FILE WAS UPDATED (00_Alanine_zwitterion.en.tmp) ****
Finished Guess after   1.6 sec
Maximum memory used throughout the entire GUESS-calculation: 79.5 MB
[ga00:1091710] 14 more processes have sent help message help-mpi-btl-openib.txt / error in device init
[ga00:1091710] Set MCA parameter "orte_base_help_aggregate" to 0 to see all help / error messages
--------------------------------------------------------------------------
WARNING: There was an error initializing an OpenFabrics device.

  Local host:   ga00
  Local device: mlx5_0
--------------------------------------------------------------------------


           ************************************************************
           *        Program running with 15 parallel MPI-processes    *
           *              working on a common directory               *
           ************************************************************
--------------------
CPCM SOLVATION MODEL
--------------------
CPCM parameters:
  Epsilon                                         ...      80.1510
  Refrac                                          ...       1.3328
  Rsolv                                           ...       1.3000
  Surface type                                    ... GAUSSIAN VDW
  Discretization scheme                           ... Constant charge density
    Threshold for H atoms                         ...       5.0000 (charges/Ang^2)
    Threshold for non-H atoms                     ...       5.0000 (charges/Ang^2)
  Epsilon function type                           ...         CPCM
Solvent:                                          ... WATER
Radii:
  Scheme                                          ... Element-dependent radii
  Radius for C  used is    3.8550 Bohr (=   2.0400 Ang.)
  Radius for O  used is    3.4469 Bohr (=   1.8240 Ang.)
  Radius for N  used is    3.5149 Bohr (=   1.8600 Ang.)
  Radius for H  used is    2.4944 Bohr (=   1.3200 Ang.)
Calculating surface                               ...        done! (  0.0s)
Cavity surface points                             ...         4579
Cavity Volume                                     ...    3023.3386
Cavity Surface-area                               ...    1865.1656
Calculating surface distance matrix               ...        done! (  0.1s)
Performing Cholesky decomposition & store         ...        done! (  0.5s)
Overall time for CPCM initialization              ...                 0.6s

----------------------------------------D-I-I-S--------------------------------------------
Iteration    Energy (Eh)           Delta-E    RMSDP     MaxDP     DIISErr   Damp  Time(sec)
-------------------------------------------------------------------------------------------
               ***  Starting incremental Fock matrix formation  ***
[ga00:1091792] 14 more processes have sent help message help-mpi-btl-openib.txt / error in device init
[ga00:1091792] Set MCA parameter "orte_base_help_aggregate" to 0 to see all help / error messages
    1    -1393.9502753716687948     0.00e+00  2.80e-05  2.52e-03  1.92e-02  0.700   7.5
    2    -1393.9506653038069999    -3.90e-04  2.64e-05  2.09e-03  1.46e-02  0.700   6.7
                               ***Turning on AO-DIIS***
    3    -1393.9509646808587604    -2.99e-04  2.17e-05  1.90e-03  1.07e-02  0.700   3.1
    4    -1393.9511829592079266    -2.18e-04  5.51e-05  5.02e-03  7.61e-03  0.000   2.6
                              *** Initializing SOSCF ***
---------------------------------------S-O-S-C-F--------------------------------------
Iteration    Energy (Eh)           Delta-E    RMSDP     MaxDP     MaxGrad    Time(sec)
--------------------------------------------------------------------------------------
    5    -1393.9517239794922716    -5.41e-04  2.75e-06  2.69e-04  1.83e-04     2.8
               *** Restarting incremental Fock matrix formation ***
    6    -1393.9517246771993086    -6.98e-07  1.87e-06  2.04e-04  2.87e-05     5.1
    7    -1393.9517247852277251    -1.08e-07  8.60e-07  8.61e-05  1.16e-05     2.6
    8    -1393.9517247936732929    -8.45e-09  5.09e-07  4.85e-05  1.78e-05     2.6
                 **** Energy Check signals convergence ****

               *****************************************************
               *                     SUCCESS                       *
               *           SCF CONVERGED AFTER   8 CYCLES          *
               *****************************************************

Recomputing exchange energy using gridx3       ...