
                                 *****************
                                 * O   R   C   A *
                                 *****************

                                            #,                                       
                                            ###                                      
                                            ####                                     
                                            #####                                    
                                            ######                                   
                                           ########,                                 
                                     ,,################,,,,,                         
                               ,,#################################,,                 
                          ,,##########################################,,             
                       ,#########################################, ''#####,          
                    ,#############################################,,   '####,        
                  ,##################################################,,,,####,       
                ,###########''''           ''''###############################       
              ,#####''   ,,,,##########,,,,          '''####'''          '####       
            ,##' ,,,,###########################,,,                        '##       
           ' ,,###''''                  '''############,,,                           
         ,,##''                                '''############,,,,        ,,,,,,###''
      ,#''                                            '''#######################'''  
     '                                                          ''''####''''         
             ,#######,   #######,   ,#######,      ##                                
            ,#'     '#,  ##    ##  ,#'     '#,    #''#        ,####,   ,####,        
            ##       ##  ##   ,#'  ##            #'  '#       #'       #'  '#        
            ##       ##  #######   ##           ,######,      #####,   #    #        
            '#,     ,#'  ##    ##  '#,     ,#' ,#      #,     #,   #   #,  ,#        
             '#######'   ##     ##  '#######'  #'      '#     '####' # '####'        



                #########################################################
                #                        -***-                          #
                #          Department of theory and spectroscopy        #
                #                                                       #
                #                      Frank Neese                      #
                #                                                       #
                #     Directorship, Architecture, Infrastructure        #
                #                    SHARK, DRIVERS                     #
                #        Core code/Algorithms in most modules           #
                #                                                       #
                #        Max Planck Institute fuer Kohlenforschung      #
                #                Kaiser Wilhelm Platz 1                 #
                #                 D-45470 Muelheim/Ruhr                 #
                #                      Germany                          #
                #                                                       #
                #                  All rights reserved                  #
                #                        -***-                          #
                #########################################################


                         Program Version 6.0.1  -  RELEASE   -


 With contributions from (in alphabetic order):
[Max-Planck-Institut fuer Kohlenforschung]                               
  Daniel Aravena         : Magnetic Suceptibility                        
  Michael Atanasov       : Ab Initio Ligand Field Theory (pilot matlab implementation)
  Alexander A. Auer      : GIAO ZORA, VPT2 properties, NMR spectrum      
  Ute Becker             : All parallelization in ORCA, NUMFREQ, NUMCALC 
  Giovanni Bistoni       : ED, misc. LED, open-shell LED, HFLD           
  Martin Brehm           : Molecular dynamics                            
  Dmytro Bykov           : pre 5.0 version of the SCF Hessian            
  Marcos Casanova-Páez   : Triplet and SCS-CIS(D). UHF-(DLPNO)-IP/EA/STEOM-CCSD. UHF-CVS-IP/STEOM-CCSD   
  Vijay G. Chilkuri      : MRCI spin determinant printing, contributions to CSF-ICE 
  Pauline Colinet        : FMM embedding                                 
  Dipayan Datta          : RHF DLPNO-CCSD density                        
  Achintya Kumar Dutta   : EOM-CC, STEOM-CC                              
  Nicolas Foglia         : Exact transition moments, OPA infrastructure, MCD improvements    
  Dmitry Ganyushin       : Spin-Orbit,Spin-Spin,Magnetic field MRCI      
  Miquel Garcia-Rates    : C-PCM and meta-GGA Hessian, CCSD/C-PCM, Gaussian charge scheme 
  Tiago L. C. Gouveia    : GS-ROHF, GS-ROCIS                             
  Yang Guo               : DLPNO-NEVPT2, F12-NEVPT2, CIM, IAO-localization        
  Andreas Hansen         : Spin unrestricted coupled pair/coupled cluster methods 
  Ingolf Harden          : AUTO-CI MPn and infrastructure                
  Benjamin Helmich-Paris : MC-RPA, TRAH-(SCF,CASSCF), AVAS, COSX integrals, SCF dyn. polar. 
  Lee Huntington         : MR-EOM, pCC                                   
  Robert Izsak           : Overlap fitted RIJCOSX, COSX-SCS-MP3, EOM     
  Riya Kayal             : Wick's Theorem for AUTO-CI, AUTO-CI UHF-CCSDT 
  Emily Kempfer          : AUTO-CI, RHF CISDT and CCSDT                  
  Christian Kollmar      : KDIIS, OOCD, Brueckner-CCSD(T), CCSD density, CASPT2, CASPT2-K, improved NEVPT2 
  Axel Koslowski         : Symmetry handling                             
  Simone Kossmann        : meta-GGA functionals, TD-DFT gradient, OOMP2, (MP2 Hessian; deprecated post 5.0) 
  Lucas Lang             : DCDCAS                                        
  Marvin Lechner         : AUTO-CI (C++ implementation), FIC-MRCC        
  Spencer Leger          : CASSCF response                               
  Dagmar Lenk            : GEPOL surface, SMD, ORCA-2-JSON               
  Dimitrios Liakos       : Extrapolation schemes; Compound Job, initial MDCI parallelization 
  Dimitrios Manganas     : Further ROCIS development; embedding schemes. LFT, Crystal Embedding 
  Dimitrios Pantazis     : SARC Basis sets                               
  Anastasios Papadopoulos: AUTO-CI, single reference methods and gradients 
  Taras Petrenko         : pre 6.0 DFT Hessian and TD-DFT gradient, (ASA, deprecated), ECA, 1-Electron XAS/XES, NRVS 
  Peter Pinski           : DLPNO-MP2, DLPNO-MP2 Gradient                 
  Christoph Reimann      : Effective Core Potentials                     
  Marius Retegan         : Local ZFS, SOC                                
  Christoph Riplinger    : Optimizer, TS searches, QM/MM, DLPNO-CCSD(T), (RO)-DLPNO pert. Triples 
  Michael Roemelt        : Original ROCIS implementation                 
  Masaaki Saitow         : Open-shell DLPNO-CCSD energy and density      
  Barbara Sandhoefer     : DKH picture change effects                    
  Kantharuban Sivalingam : CASSCF convergence/infrastructure, NEVPT2 and variants, FIC-MRCI 
  Bernardo de Souza      : ESD, SOC TD-DFT                               
  Georgi L. Stoychev     : AutoAux, RI-MP2 NMR, DLPNO-MP2 response, X2C  
  Van Anh Tran           : RI-MP2 g-tensors                              
  Willem Van den Heuvel  : Paramagnetic NMR                              
  Zikuan Wang            : NOTCH, Electric field optimization            
  Frank Wennmohs         : Technical directorship and infrastructure     
  Hang Xu                : AUTO-CI-Response properties                   
                                                                         
[FACCTs GmbH]                                                            
  Markus Bursch, Miquel Garcia-Rates, Christoph Riplinger, Bernardo de Souza, Georgi L. Stoychev 
                                                                 
  APM, Basis sets (HGBS, AHGBS, def-TZVP (Ac-Lr), def2-XVPD (La-Lu)), CI-OPT, improved COSX, DLPNO-Multilevel,           
  DOCKER, DRACO, updates on ESD, GOAT, IRC, LR-CPCM, MBIS, meta-GGA TD-DFT gradient, ML-optimized integration grids, 
  MM, NACMEs, nearIR, NEB, NEB-TS, NL-DFT gradient (VV10), 2- and 3-layer-ONIOM, interface openCOSMO-RS, QMMM,   
  Crystal-QMMM, SF, symmetry and pop. for TD-DFT, r2SCAN hybrids, SOLVATOR                                   
                                                                         
[Other institutions]                                                     
  V. Asgeirsson          : NEB                                           
  Christoph Bannwarth    : sTDA-DFT, sTD-DFT, PBEh-3c, B97-3c, D3        
  Sebastian Ehlert       : rSCAN, r2SCAN, r2SCAN-3c, D4, dhf basis sets  
  Marvin Friede          : D4 for Fr, Ra, Ac-Lr                          
  Lars Goerigk           : TD-DFT with DH, B97 family of functionals     
  Stefan Grimme          : VdW corrections, initial TS optimization, DFT functionals, gCP, sTDA/sTD-DF 
  Waldemar Hujo          : DFT-NL                                        
  H. Jonsson             : NEB                                           
  Holger Kruse           : gCP                                           
  Marcel Mueller         : wB97X-3c, vDZP basis set                      
  Hagen Neugebauer       : wr2SCAN                                       
  Tobias Risthaus        : range-separated hybrid DFT                    
  Lukas Wittmann         : regularized MP2, r2SCAN double-hybrids, wr2SCAN        
                                                                         
We gratefully acknowledge several colleagues who have allowed us to      
interface, adapt or use parts of their codes:                            
  Ed Valeev, F. Pavosevic, A. Kumar             : LibInt (2-el integral package), F12 methods 
  Garnet Chan, S. Sharma, J. Yang, R. Olivares  : DMRG                   
  Ulf Ekstrom                                   : XCFun DFT Library      
  Mihaly Kallay                                 : mrcc  (arbitrary order and MRCC methods)
  Frank Weinhold                                : gennbo (NPA and NBO analysis)           
  Simon Mueller                                 : openCOSMO-RS                            
  Christopher J. Cramer and Donald G. Truhlar   : smd solvation model                     
  S Lehtola, MJT Oliveira, MAL Marques          : LibXC Library                           
  Liviu Ungur et al                             : ANISO software                          


 Your calculation uses the libint2 library for the computation of 2-el integrals
 For citations please refer to: http://libint.valeyev.net

 Your ORCA version has been built with support for libXC version: 6.2.2
 For citations please refer to: https://libxc.gitlab.io

 This ORCA versions uses:
   CBLAS   interface :  Fast vector & matrix operations
   LAPACKE interface :  Fast linear algebra routines
   SCALAPACK package :  Parallel linear algebra routines
   Shared memory     :  Shared parallel matrices
   BLAS/LAPACK       :  OpenBLAS 0.3.27  USE64BITINT DYNAMIC_ARCH NO_AFFINITY SkylakeX SINGLE_THREADED
        Core in use  :  SkylakeX
   Copyright (c) 2011-2014, The OpenBLAS Project


NOTE: MaxCore=5000 MB was set to SCF,MP2,MDCI,CIPSI,MRCI and CIS
      => If you want to overwrite this, your respective input block should be placed after the MaxCore statement
Warning: RI is on but no J-basis has been assigned. Assigning Def2/J (nothing to worry about!)
================================================================================

----- Orbital basis set information -----
Your calculation utilizes the basis: def2-SVP
   F. Weigend and R. Ahlrichs, Phys. Chem. Chem. Phys. 7, 3297 (2005).

----- AuxJ basis set information -----
Your calculation utilizes the auxiliary basis: def2/J
   F. Weigend, Phys. Chem. Chem. Phys. 8, 1057 (2006).

================================================================================
                                        WARNINGS
                       Please study these warnings very carefully!
================================================================================


================================================================================
                                       INPUT FILE
================================================================================
NAME = 00_Aminobutyric-acid_zwitterion.inp
|  1> ! B3LYP def2-SVP TightSCF CPCM(water) CHELPG
|  2> 
|  3> %maxcore 5000
|  4> 
|  5> %pal
|  6> nprocs 10
|  7> end
|  8> 
|  9> * xyz 0 1
| 10> N           1.27448375415005     -0.07977227242307      0.41109636712500
| 11>   C           2.76332582509231     -0.02406138750602      0.20166358205466
| 12>   C           3.09866015404482      0.41197731157394     -1.21215415534513
| 13>   C           4.60663213863948      0.48186332227909     -1.42014923440926
| 14>   C           5.06026835799126      0.91183642325872     -2.83131499623260
| 15>   O           4.17975848023173      1.23305741074357     -3.66752349066917
| 16>   O           6.30397084788175      0.90909498175871     -3.02642155179828
| 17>   H           0.84361038346557      0.83552026313512      0.26544374715685
| 18>   H           0.83147568234588     -0.73444632833473     -0.23631782876908
| 19>   H           3.14134687312006     -1.02142320410644      0.42092142716453
| 20>   H           3.15085288239180      0.67058030266464      0.94536615156373
| 21>   H           2.65102544114797      1.38906065531898     -1.40947387806248
| 22>   H           2.65719354046669     -0.29050097482281     -1.92396702318618
| 23>   H           5.06350450146958     -0.48949962357927     -1.20817527775247
| 24>   H           5.05184408018872      1.18405891867883     -0.70782875469881
| 25>   H           1.04264705737230     -0.38154579863925      1.35863491585871
| 26> *
| 27> 
| 28>                          ****END OF INPUT****
================================================================================

                       ****************************
                       * Single Point Calculation *
                       ****************************

---------------------------------
CARTESIAN COORDINATES (ANGSTROEM)
---------------------------------
  N      1.274484   -0.079772    0.411096
  C      2.763326   -0.024061    0.201664
  C      3.098660    0.411977   -1.212154
  C      4.606632    0.481863   -1.420149
  C      5.060268    0.911836   -2.831315
  O      4.179758    1.233057   -3.667523
  O      6.303971    0.909095   -3.026422
  H      0.843610    0.835520    0.265444
  H      0.831476   -0.734446   -0.236318
  H      3.141347   -1.021423    0.420921
  H      3.150853    0.670580    0.945366
  H      2.651025    1.389061   -1.409474
  H      2.657194   -0.290501   -1.923967
  H      5.063505   -0.489500   -1.208175
  H      5.051844    1.184059   -0.707829
  H      1.042647   -0.381546    1.358635

----------------------------
CARTESIAN COORDINATES (A.U.)
----------------------------
  NO LB      ZA    FRAG     MASS         X           Y           Z
   0 N     7.0000    0    14.007    2.408425   -0.150748    0.776860
   1 C     6.0000    0    12.011    5.221929   -0.045469    0.381089
   2 C     6.0000    0    12.011    5.855619    0.778524   -2.290639
   3 C     6.0000    0    12.011    8.705273    0.910590   -2.683693
   4 C     6.0000    0    12.011    9.562521    1.723121   -5.350410
   5 O     8.0000    0    15.999    7.898599    2.330141   -6.930615
   6 O     8.0000    0    15.999   11.912778    1.717941   -5.719108
   7 H     1.0000    0     1.008    1.594193    1.578904    0.501616
   8 H     1.0000    0     1.008    1.571261   -1.387902   -0.446576
   9 H     1.0000    0     1.008    5.936285   -1.930210    0.795426
  10 H     1.0000    0     1.008    5.954249    1.267213    1.786483
  11 H     1.0000    0     1.008    5.009712    2.624944   -2.663520
  12 H     1.0000    0     1.008    5.021368   -0.548967   -3.635771
  13 H     1.0000    0     1.008    9.568637   -0.925020   -2.283120
  14 H     1.0000    0     1.008    9.546602    2.237547   -1.337602
  15 H     1.0000    0     1.008    1.970317   -0.721017    2.567448

--------------------------------
INTERNAL COORDINATES (ANGSTROEM)
--------------------------------
 N      0   0   0     0.000000000000     0.00000000     0.00000000
 C      1   0   0     1.504531989148     0.00000000     0.00000000
 C      2   1   0     1.517056180191   111.04548614     0.00000000
 C      3   2   1     1.523852195500   111.04648835   179.43283185
 C      4   3   2     1.543389611996   115.36828439   179.77554876
 O      5   4   3     1.256075321707   118.28792185     3.55291908
 O      5   4   3     1.258916187395   115.56062548   183.26174786
 H      1   2   3     1.022069945218   111.35685422   299.48350601
 H      1   2   3     1.021762894322   111.38141979    59.47348397
 H      2   1   3     1.088900596293   106.35530812   237.94385667
 H      2   1   3     1.088943437354   106.30290109   122.04458865
 H      3   2   1     1.092704795353   109.55732650    57.89918651
 H      3   2   1     1.093181628362   109.44267909   300.92733269
 H      4   3   2     1.094171507034   110.24546822    57.71610834
 H      4   3   2     1.094848297398   110.06066621   301.28832338
 H      1   2   3     1.021099807283   111.39495313   179.44825643

---------------------------
INTERNAL COORDINATES (A.U.)
---------------------------
 N      0   0   0     0.000000000000     0.00000000     0.00000000
 C      1   0   0     2.843153419213     0.00000000     0.00000000
 C      2   1   0     2.866820710334   111.04548614     0.00000000
 C      3   2   1     2.879663318069   111.04648835   179.43283185
 C      4   3   2     2.916583684611   115.36828439   179.77554876
 O      5   4   3     2.373638361603   118.28792185     3.55291908
 O      5   4   3     2.379006819737   115.56062548   183.26174786
 H      1   2   3     1.931432286173   111.35685422   299.48350601
 H      1   2   3     1.930852044071   111.38141979    59.47348397
 H      2   1   3     2.057723914057   106.35530812   237.94385667
 H      2   1   3     2.057804871930   106.30290109   122.04458865
 H      3   2   1     2.064912808440   109.55732650    57.89918651
 H      3   2   1     2.065813892237   109.44267909   300.92733269
 H      4   3   2     2.067684491834   110.24546822    57.71610834
 H      4   3   2     2.068963440273   110.06066621   301.28832338
 H      1   2   3     1.929598991165   111.39495313   179.44825643

---------------------
BASIS SET INFORMATION
---------------------
There are 4 groups of distinct atoms

 Group   1 Type N   : 7s4p1d contracted to 3s2p1d pattern {511/31/1}
 Group   2 Type C   : 7s4p1d contracted to 3s2p1d pattern {511/31/1}
 Group   3 Type O   : 7s4p1d contracted to 3s2p1d pattern {511/31/1}
 Group   4 Type H   : 4s1p contracted to 2s1p pattern {31/1}

Atom   0N    basis set group =>   1
Atom   1C    basis set group =>   2
Atom   2C    basis set group =>   2
Atom   3C    basis set group =>   2
Atom   4C    basis set group =>   2
Atom   5O    basis set group =>   3
Atom   6O    basis set group =>   3
Atom   7H    basis set group =>   4
Atom   8H    basis set group =>   4
Atom   9H    basis set group =>   4
Atom  10H    basis set group =>   4
Atom  11H    basis set group =>   4
Atom  12H    basis set group =>   4
Atom  13H    basis set group =>   4
Atom  14H    basis set group =>   4
Atom  15H    basis set group =>   4
---------------------------------
AUXILIARY/J BASIS SET INFORMATION
---------------------------------
There are 4 groups of distinct atoms

 Group   1 Type N   : 12s5p4d2f1g contracted to 6s4p3d1f1g pattern {711111/2111/211/2/1}
 Group   2 Type C   : 12s5p4d2f1g contracted to 6s4p3d1f1g pattern {711111/2111/211/2/1}
 Group   3 Type O   : 12s5p4d2f1g contracted to 6s4p3d1f1g pattern {711111/2111/211/2/1}
 Group   4 Type H   : 5s2p1d contracted to 3s1p1d pattern {311/2/1}

Atom   0N    basis set group =>   1
Atom   1C    basis set group =>   2
Atom   2C    basis set group =>   2
Atom   3C    basis set group =>   2
Atom   4C    basis set group =>   2
Atom   5O    basis set group =>   3
Atom   6O    basis set group =>   3
Atom   7H    basis set group =>   4
Atom   8H    basis set group =>   4
Atom   9H    basis set group =>   4
Atom  10H    basis set group =>   4
Atom  11H    basis set group =>   4
Atom  12H    basis set group =>   4
Atom  13H    basis set group =>   4
Atom  14H    basis set group =>   4
Atom  15H    basis set group =>   4
--------------------------------------------------------------------------
WARNING: There was an error initializing an OpenFabrics device.

  Local host:   ga00
  Local device: mlx5_0
--------------------------------------------------------------------------


           ************************************************************
           *        Program running with 10 parallel MPI-processes    *
           *              working on a common directory               *
           ************************************************************
------------------------------------------------------------------------------
                             ORCA STARTUP CALCULATIONS
                           -- RI-GTO INTEGRALS CHOSEN --
------------------------------------------------------------------------------
------------------------------------------------------------------------------
                   ___                                                        
                  /   \      - P O W E R E D   B Y -                         
                 /     \                                                     
                 |  |  |   _    _      __       _____    __    __             
                 |  |  |  | |  | |    /  \     |  _  \  |  |  /  |          
                  \  \/   | |  | |   /    \    | | | |  |  | /  /          
                 / \  \   | |__| |  /  /\  \   | |_| |  |  |/  /          
                |  |  |   |  __  | /  /__\  \  |    /   |      \           
                |  |  |   | |  | | |   __   |  |    \   |  |\   \          
                \     /   | |  | | |  |  |  |  | |\  \  |  | \   \       
                 \___/    |_|  |_| |__|  |__|  |_| \__\ |__|  \__/        
                                                                              
                      - O R C A' S   B I G   F R I E N D -                    
                                      &                                       
                       - I N T E G R A L  F E E D E R -                       
                                                                              
 v1 FN, 2020, v2 2021, v3 2022-2024                                           
------------------------------------------------------------------------------


----------------------
SHARK INTEGRAL PACKAGE
----------------------

Number of atoms                             ...     16
Number of basis functions                   ...    143
Number of shells                            ...     69
Maximum angular momentum                    ...      2
Integral batch strategy                     ... SHARK/LIBINT Hybrid
RI-J (if used) integral strategy            ... SPLIT-RIJ (Revised 2003 algorithm where possible)
Printlevel                                  ...      1
Contraction scheme used                     ... SEGMENTED contraction
Prescreening option                         ... SCHWARTZ
   Thresh                                   ... 2.500e-11
   Tcut                                     ... 2.500e-12
   Tpresel                                  ... 2.500e-12 
Coulomb Range Separation                    ... NOT USED
Exchange Range Separation                   ... NOT USED
Multipole approximations                    ... NOT USED
Finite Nucleus Model                        ... NOT USED
CABS basis                                  ... NOT available
Auxiliary Coulomb fitting basis             ... AVAILABLE
   # of basis functions in Aux-J            ...    442
   # of shells in Aux-J                     ...    150
   Maximum angular momentum in Aux-J        ...      4
Auxiliary J/K fitting basis                 ... NOT available
Auxiliary Correlation fitting basis         ... NOT available
Auxiliary 'external' fitting basis          ... NOT available

Checking pre-screening integrals            ... done (  0.0 sec) Dimension = 69
Check shell pair data                       ... done (  0.0 sec)
Shell pair information
Shell pair cut-off parameter TPreSel        ...   2.5e-12
Total number of shell pairs                 ...      2415
Shell pairs after pre-screening             ...      2219
Total number of primitive shell pairs       ...      8503
Primitive shell pairs kept                  ...      5909
          la=0 lb=0:    726 shell pairs
          la=1 lb=0:    833 shell pairs
          la=1 lb=1:    254 shell pairs
          la=2 lb=0:    242 shell pairs
          la=2 lb=1:    140 shell pairs
          la=2 lb=2:     24 shell pairs

Calculating one electron integrals          ... done (  0.0 sec)
Calculating RI/J V-Matrix + Cholesky decomp.... done (  0.0 sec)
Calculating Nuclear repulsion               ... done (  0.0 sec) ENN=    302.508069316000 Eh

Diagonalization of the overlap matrix:
Smallest eigenvalue                        ... 1.210e-03
Time for diagonalization                   ...    0.002 sec
Threshold for overlap eigenvalues          ... 1.000e-07
Number of eigenvalues below threshold      ... 0
Time for construction of square roots      ...    0.001 sec
Total time needed                          ...    0.003 sec

-------------------
DFT GRID GENERATION
-------------------

General Integration Accuracy     IntAcc      ... 4.388
Radial Grid Type                 RadialGrid  ... OptM3 with GC (2021)
Angular Grid (max. ang.)         AngularGrid ... 4 (Lebedev-302)
Angular grid pruning method      GridPruning ... 4 (adaptive)
Weight generation scheme         WeightScheme... mBecke (2022)
Basis function cutoff            BFCut       ... 1.0000e-11
Integration weight cutoff        WCut        ... 1.0000e-14
Partially contracted basis set               ... off
Rotationally invariant grid construction     ... off
Angular grids for H and He will be reduced by one unit

Total number of grid points                  ...    71163
Total number of batches                      ...     1120
Average number of points per batch           ...       63
Average number of grid points per atom       ...     4448

--------------------
COSX GRID GENERATION
--------------------

GRIDX 1
-------
General Integration Accuracy     IntAcc      ... 3.816
Radial Grid Type                 RadialGrid  ... OptM3 with GC (2021)
Angular Grid (max. ang.)         AngularGrid ... 1 (Lebedev-50)
Angular grid pruning method      GridPruning ... 4 (adaptive)
Weight generation scheme         WeightScheme... mBecke (2022)
Basis function cutoff            BFCut       ... 1.0000e-11
Integration weight cutoff        WCut        ... 1.0000e-14
Partially contracted basis set               ... on
Rotationally invariant grid construction     ... off
Angular grids for H and He will be reduced by one unit

Total number of grid points                  ...     9112
Total number of batches                      ...       82
Average number of points per batch           ...      111
Average number of grid points per atom       ...      570
UseSFitting                                  ... on

GRIDX 2
-------
General Integration Accuracy     IntAcc      ... 4.020
Radial Grid Type                 RadialGrid  ... OptM3 with GC (2021)
Angular Grid (max. ang.)         AngularGrid ... 2 (Lebedev-110)
Angular grid pruning method      GridPruning ... 4 (adaptive)
Weight generation scheme         WeightScheme... mBecke (2022)
Basis function cutoff            BFCut       ... 1.0000e-11
Integration weight cutoff        WCut        ... 1.0000e-14
Partially contracted basis set               ... on
Rotationally invariant grid construction     ... off
Angular grids for H and He will be reduced by one unit

Total number of grid points                  ...    19560
Total number of batches                      ...      161
Average number of points per batch           ...      121
Average number of grid points per atom       ...     1222
UseSFitting                                  ... on

GRIDX 3
-------
General Integration Accuracy     IntAcc      ... 4.338
Radial Grid Type                 RadialGrid  ... OptM3 with GC (2021)
Angular Grid (max. ang.)         AngularGrid ... 3 (Lebedev-194)
Angular grid pruning method      GridPruning ... 4 (adaptive)
Weight generation scheme         WeightScheme... mBecke (2022)
Basis function cutoff            BFCut       ... 1.0000e-11
Integration weight cutoff        WCut        ... 1.0000e-14
Partially contracted basis set               ... on
Rotationally invariant grid construction     ... off
Angular grids for H and He will be reduced by one unit

Total number of grid points                  ...    42901
Total number of batches                      ...      342
Average number of points per batch           ...      125
Average number of grid points per atom       ...     2681
UseSFitting                                  ... on
Initializing property integral containers    ... done (  0.0 sec)

SHARK setup successfully completed in   0.4 seconds

Maximum memory used throughout the entire STARTUP-calculation: 19.8 MB
[ga00:3796166] 9 more processes have sent help message help-mpi-btl-openib.txt / error in device init
[ga00:3796166] Set MCA parameter "orte_base_help_aggregate" to 0 to see all help / error messages
--------------------------------------------------------------------------
WARNING: There was an error initializing an OpenFabrics device.

  Local host:   ga00
  Local device: mlx5_0
--------------------------------------------------------------------------


           ************************************************************
           *        Program running with 10 parallel MPI-processes    *
           *              working on a common directory               *
           ************************************************************
-------------------------------------------------------------------------------
                                 ORCA GUESS
                   Start orbitals & Density for SCF / CASSCF
-------------------------------------------------------------------------------

------------
SCF SETTINGS
------------
Hamiltonian:
 Density Functional     Method          .... DFT(GTOs)
 Exchange Functional    Exchange        .... B88
   X-Alpha parameter    XAlpha          ....  0.666667
   Becke's b parameter  XBeta           ....  0.004200
 Correlation Functional Correlation     .... LYP
 LDA part of GGA corr.  LDAOpt          .... VWN-5
 Gradients option       PostSCFGGA      .... off
 Hybrid DFT is turned on
   Fraction HF Exchange ScalHFX         ....  0.200000
   Scaling of DF-GGA-X  ScalDFX         ....  0.720000
   Scaling of DF-GGA-C  ScalDFC         ....  0.810000
   Scaling of DF-LDA-C  ScalLDAC        ....  1.000000
   Perturbative correction              ....  0.000000
   NL short-range parameter             ....  4.800000
 RI-approximation to the Coulomb term is turned on
   Number of AuxJ basis functions       .... 442
   RIJ-COSX (HFX calculated with COS-X)).... on


General Settings:
 Integral files         IntName         .... 00_Aminobutyric-acid_zwitterion
 Hartree-Fock type      HFTyp           .... RHF
 Total Charge           Charge          ....    0
 Multiplicity           Mult            ....    1
 Number of Electrons    NEL             ....   56
 Basis Dimension        Dim             ....  143
 Nuclear Repulsion      ENuc            ....    302.5080693160 Eh

Convergence Acceleration:
 AO-DIIS                CNVDIIS         .... on
   Start iteration      DIISMaxIt       ....    12
   Startup error        DIISStart       ....  0.200000
   # of expansion vecs  DIISMaxEq       ....     5
   Bias factor          DIISBfac        ....   1.050
   Max. coefficient     DIISMaxC        ....  10.000
 MO-DIIS                CNVKDIIS        .... off
 Trust-Rad. Augm. Hess. CNVTRAH         .... auto
   Auto Start mean grad. ratio tolernc. ....  1.125000
   Auto Start start iteration           ....    50
   Auto Start num. interpolation iter.  ....    10
   Max. Number of Micro iterations      ....    24
   Max. Number of Macro iterations      .... Maxiter - #DIIS iter
   Number of Davidson start vectors     ....     2
   Converg. threshold    (grad. norm)   ....   1.000e-05
   Grad. Scal. Fac. for Micro threshold ....   0.100
   Minimum threshold for Micro iter.    ....   1.000e-02
   NR start threshold (gradient norm)   ....   1.000e-04
   Initial trust radius                 ....   0.400
   Minimum AH scaling param. (alpha)    ....   1.000
   Maximum AH scaling param. (alpha)    .... 1000.000
   Quad. conv. algorithm                .... NR
   White noise on init. David. guess    .... on
   Maximum white noise                  ....   0.010
   Pseudo random numbers                .... off
   Inactive MOs                         .... canonical
   Orbital update algorithm             .... Taylor
   Preconditioner                       .... Diag
   Full preconditioner red. dimension   ....   250
 SOSCF                  CNVSOSCF        .... on
   Start iteration      SOSCFMaxIt      ....   150
   Startup grad/error   SOSCFStart      ....  0.003300
   Hessian update       SOSCFHessUp     .... L-BFGS
 Level Shifting         CNVShift        .... on
   Level shift para.    LevelShift      ....    0.2500
   Turn off err/grad.   ShiftErr        ....    0.0010
 Zerner damping         CNVZerner       .... off
 Static damping         CNVDamp         .... on
   Fraction old density DampFac         ....    0.7000
   Max. Damping (<1)    DampMax         ....    0.9800
   Min. Damping (>=0)   DampMin         ....    0.0000
   Turn off err/grad.   DampErr         ....    0.1000

SCF Procedure:
 Maximum # iterations   MaxIter         ....   125
 SCF integral mode      SCFMode         .... Direct
   Integral package                     .... SHARK and LIBINT hybrid scheme
 Reset frequency        DirectResetFreq ....    20
 Integral Threshold     Thresh          ....  2.500e-11 Eh
 Primitive CutOff       TCut            ....  2.500e-12 Eh

Convergence Tolerance:
 Convergence Check Mode ConvCheckMode   .... Total+1el-Energy
 Convergence forced     ConvForced      .... 0
 Energy Change          TolE            ....  1.000e-08 Eh
 1-El. energy change                    ....  1.000e-05 Eh
 Orbital Gradient       TolG            ....  1.000e-05
 Orbital Rotation angle TolX            ....  1.000e-05
 DIIS Error             TolErr          ....  5.000e-07

------------------------------
INITIAL GUESS: MODEL POTENTIAL
------------------------------
Loading Hartree-Fock densities                     ... done
Calculating cut-offs                               ... done
Initializing the effective Hamiltonian             ... done
Setting up the integral package (SHARK)            ... done
Starting the Coulomb interaction                   ... done (   0.0 sec)
Making the grid                                    ... done (   0.1 sec)
Mapping shells                                     ... done
Starting the XC term evaluation                    ... done (   0.0 sec)
  promolecular density results
     # of electrons  =     55.998869519
     EX              =    -46.210112482
     EC              =     -1.890474849
     EX+EC           =    -48.100587332
Transforming the Hamiltonian                       ... done (   0.0 sec)
Diagonalizing the Hamiltonian                      ... done (   0.0 sec)
Back transforming the eigenvectors                 ... done (   0.0 sec)
Now organizing SCF variables                       ... done
                      ------------------
                      INITIAL GUESS DONE (   0.1 sec)
                      ------------------
             **** ENERGY FILE WAS UPDATED (00_Aminobutyric-acid_zwitterion.en.tmp) ****
Finished Guess after   0.4 sec
Maximum memory used throughout the entire GUESS-calculation: 11.0 MB
[ga00:3796223] 9 more processes have sent help message help-mpi-btl-openib.txt / error in device init
[ga00:3796223] Set MCA parameter "orte_base_help_aggregate" to 0 to see all help / error messages
--------------------------------------------------------------------------
WARNING: There was an error initializing an OpenFabrics device.

  Local host:   ga00
  Local device: mlx5_0
--------------------------------------------------------------------------


           ************************************************************
           *        Program running with 10 parallel MPI-processes    *
           *              working on a common directory               *
           ************************************************************

-------------------------------------------------------------------------------------------
                                      ORCA LEAN-SCF
                              memory conserving SCF solver
-------------------------------------------------------------------------------------------

--------------------
CPCM SOLVATION MODEL
--------------------
CPCM parameters:
  Epsilon                                         ...      80.1510
  Refrac                                          ...       1.3328
  Rsolv                                           ...       1.3000
  Surface type                                    ... GAUSSIAN VDW
  Discretization scheme                           ... Constant charge density
    Threshold for H atoms                         ...       5.0000 (charges/Ang^2)
    Threshold for non-H atoms                     ...       5.0000 (charges/Ang^2)
  Epsilon function type                           ...         CPCM
Solvent:                                          ... WATER
Radii:
  Scheme                                          ... Element-dependent radii
  Radius for N  used is    3.5149 Bohr (=   1.8600 Ang.)
  Radius for C  used is    3.8550 Bohr (=   2.0400 Ang.)
  Radius for O  used is    3.4469 Bohr (=   1.8240 Ang.)
  Radius for H  used is    2.4944 Bohr (=   1.3200 Ang.)
Calculating surface                               ...        done! (  0.0s)
Cavity surface points                             ...         1420
Cavity Volume                                     ...     905.6324
Cavity Surface-area                               ...     553.6672
Calculating surface distance matrix               ...        done! (  0.0s)
Performing Cholesky decomposition & store         ...        done! (  0.0s)
Overall time for CPCM initialization              ...                 0.1s

----------------------------------------D-I-I-S--------------------------------------------
Iteration    Energy (Eh)           Delta-E    RMSDP     MaxDP     DIISErr   Damp  Time(sec)
-------------------------------------------------------------------------------------------
               ***  Starting incremental Fock matrix formation  ***
    1    -362.3047801622856809     0.00e+00  5.75e-03  2.26e-01  3.07e-01  0.700   0.3
    2    -362.4380794072615686    -1.33e-01  4.02e-03  1.72e-01  1.37e-01  0.700   0.2
                               ***Turning on AO-DIIS***
    3    -362.4884084645769349    -5.03e-02  1.42e-03  4.47e-02  4.14e-02  0.700   0.2
    4    -362.5190961921538815    -3.07e-02  2.02e-03  4.14e-02  2.09e-02  0.000   0.2
    5    -362.5869994926748063    -6.79e-02  5.36e-04  2.37e-02  6.77e-03  0.000   0.2
                              *** Initializing SOSCF ***
---------------------------------------S-O-S-C-F--------------------------------------
Iteration    Energy (Eh)           Delta-E    RMSDP     MaxDP     MaxGrad    Time(sec)
--------------------------------------------------------------------------------------
    6    -362.5873097339037372    -3.10e-04  1.69e-04  6.75e-03  1.52e-03     0.2
               *** Restarting incremental Fock matrix formation ***
    7    -362.5873183400061066    -8.61e-06  1.22e-04  4.98e-03  2.02e-04     0.3
    8    -362.5873198111723354    -1.47e-06  1.98e-05  5.42e-04  2.38e-04     0.2
    9    -362.5873205714385108    -7.60e-07  1.62e-05  4.71e-04  7.52e-05     0.2
   10    -362.5873205324540436     3.90e-08  6.80e-06  1.63e-04  9.32e-05     0.2
   11    -362.5873206527738262    -1.20e-07  3.52e-06  1.15e-04  8.44e-06     0.2
   12    -362.5873206563565532    -3.58e-09  1.17e-06  3.57e-05  9.72e-06     0.2
                 **** Energy Check signals convergence ****

               *****************************************************
               *                     SUCCESS                       *
               *           SCF CONVERGED AFTER  12 CYCLES          *
               *****************************************************

Recomputing exchange energy using gridx3       ... done (    0.356 sec)
Old exchange energy                            :     -9.402917075 Eh
New exchange energy                            :     -9.402942455 Eh
Exchange energy change after final integration :     -0.000025380 Eh
Total energy after final integration           :   -362.587346037 Eh
             **** ENERGY FILE WAS UPDATED (00_Aminobutyric-acid_zwitterion.en.tmp) ****

----------------
TOTAL SCF ENERGY
----------------

Total Energy       :       -362.58734603653301 Eh           -9866.50329 eV

Components:
Nuclear Repulsion  :        302.50806931600010 Eh            8231.66306 eV
Electronic Energy  :       -664.96675079136139 Eh          -18094.66520 eV
One Electron Energy:      -1094.16551065296835 Eh          -29773.75721 eV
Two Electron Energy:        429.19875986160690 Eh           11679.09201 eV
CPCM Dielectric    :         -0.12863918099528 Eh              -3.50045 eV

Virial components:
Potential Energy   :       -721.87064607856291 Eh          -19643.09892 eV
Kinetic Energy     :        359.28330004202985 Eh            9776.59563 eV
Virial Ratio       :          2.00919621366792

DFT components:
N(Alpha)           :       27.999970899946 electrons
N(Beta)            :       27.999970899946 electrons
N(Total)           :       55.999941799892 electrons
E(X)               :      -37.358956459541 Eh       
E(C)               :       -2.236703864522 Eh       
E(XC)              :      -39.595660324063 Eh       

CPCM Solvation Model Properties:
Surface-charge          :         -0.01257418154430
Corrected charge        :         -0.00000000000000
Outlying charge corr.   :          0.00001206605915 Eh               0.00033 eV
Free-energy (cav+disp)  :  This term is not implemented in the current solvation scheme

---------------
SCF CONVERGENCE
---------------

  Last Energy change         ...    3.5827e-09  Tolerance :   1.0000e-08
  Last MAX-Density change    ...    3.5744e-05  Tolerance :   1.0000e-07
  Last RMS-Density change    ...    1.1734e-06  Tolerance :   5.0000e-09
  Last DIIS Error            ...    1.5230e-03  Tolerance :   5.0000e-07
  Last Orbital Gradient      ...    9.7206e-06  Tolerance :   1.0000e-05
  Last Orbital Rotation      ...    6.8113e-06  Tolerance :   1.0000e-05


----------------
ORBITAL ENERGIES
----------------

  NO   OCC          E(Eh)            E(eV) 
   0   2.0000     -19.036921      -518.0210 
   1   2.0000     -19.031177      -517.8647 
   2   2.0000     -14.441716      -392.9791 
   3   2.0000     -10.237955      -278.5889 
   4   2.0000     -10.233457      -278.4665 
   5   2.0000     -10.180596      -277.0281 
   6   2.0000     -10.160986      -276.4945 
   7   2.0000      -0.985004       -26.8033 
   8   2.0000      -0.972982       -26.4762 
   9   2.0000      -0.882020       -24.0010 
  10   2.0000      -0.781474       -21.2650 
  11   2.0000      -0.688190       -18.7266 
  12   2.0000      -0.610511       -16.6128 
  13   2.0000      -0.577451       -15.7132 
  14   2.0000      -0.557547       -15.1716 
  15   2.0000      -0.501703       -13.6520 
  16   2.0000      -0.464341       -12.6354 
  17   2.0000      -0.451863       -12.2958 
  18   2.0000      -0.405840       -11.0435 
  19   2.0000      -0.404216       -10.9993 
  20   2.0000      -0.386949       -10.5294 
  21   2.0000      -0.363112        -9.8808 
  22   2.0000      -0.352324        -9.5872 
  23   2.0000      -0.341290        -9.2870 
  24   2.0000      -0.318820        -8.6755 
  25   2.0000      -0.215394        -5.8612 
  26   2.0000      -0.207649        -5.6504 
  27   2.0000      -0.196324        -5.3422 
  28   0.0000       0.034096         0.9278 
  29   0.0000       0.076200         2.0735 
  30   0.0000       0.078834         2.1452 
  31   0.0000       0.090521         2.4632 
  32   0.0000       0.093489         2.5440 
  33   0.0000       0.132536         3.6065 
  34   0.0000       0.139618         3.7992 
  35   0.0000       0.140177         3.8144 
  36   0.0000       0.162364         4.4181 
  37   0.0000       0.166710         4.5364 
  38   0.0000       0.188444         5.1278 
*Only the first 10 virtual orbitals were printed.

                    ********************************
                    * MULLIKEN POPULATION ANALYSIS *
                    ********************************

-----------------------
MULLIKEN ATOMIC CHARGES
-----------------------
   0 N :    0.063056
   1 C :    0.079879
   2 C :    0.002298
   3 C :   -0.013924
   4 C :    0.028754
   5 O :   -0.452651
   6 O :   -0.472290
   7 H :    0.212633
   8 H :    0.212297
   9 H :    0.058746
  10 H :    0.058340
  11 H :    0.005795
  12 H :    0.006809
  13 H :   -0.004018
  14 H :    0.000294
  15 H :    0.213981
Sum of atomic charges:    0.0000000

--------------------------------
MULLIKEN REDUCED ORBITAL CHARGES
--------------------------------
  0 N s       :     3.286154  s :     3.286154
      pz      :     1.199214  p :     3.632608
      px      :     1.227742
      py      :     1.205652
      dz2     :     0.003685  d :     0.018182
      dxz     :     0.003765
      dyz     :     0.002589
      dx2y2   :     0.002892
      dxy     :     0.005252

  1 C s       :     3.010698  s :     3.010698
      pz      :     1.065452  p :     2.862807
      px      :     0.725541
      py      :     1.071815
      dz2     :     0.010284  d :     0.046616
      dxz     :     0.007716
      dyz     :     0.008654
      dx2y2   :     0.013970
      dxy     :     0.005992

  2 C s       :     3.005124  s :     3.005124
      pz      :     0.923692  p :     2.956508
      px      :     1.033247
      py      :     0.999569
      dz2     :     0.008759  d :     0.036070
      dxz     :     0.006028
      dyz     :     0.007232
      dx2y2   :     0.006269
      dxy     :     0.007782

  3 C s       :     3.001559  s :     3.001559
      pz      :     1.054425  p :     2.979033
      px      :     0.928759
      py      :     0.995848
      dz2     :     0.006718  d :     0.033332
      dxz     :     0.006483
      dyz     :     0.005754
      dx2y2   :     0.007009
      dxy     :     0.007368

  4 C s       :     3.063826  s :     3.063826
      pz      :     0.986056  p :     2.768957
      px      :     0.912121
      py      :     0.870781
      dz2     :     0.029572  d :     0.138463
      dxz     :     0.042969
      dyz     :     0.010593
      dx2y2   :     0.024655
      dxy     :     0.030674

  5 O s       :     3.731571  s :     3.731571
      pz      :     1.585463  p :     4.707329
      px      :     1.572114
      py      :     1.549752
      dz2     :     0.002478  d :     0.013751
      dxz     :     0.004857
      dyz     :     0.002106
      dx2y2   :     0.001954
      dxy     :     0.002356

  6 O s       :     3.729683  s :     3.729683
      pz      :     1.773565  p :     4.728965
      px      :     1.367848
      py      :     1.587552
      dz2     :     0.001806  d :     0.013642
      dxz     :     0.003105
      dyz     :     0.000137
      dx2y2   :     0.004856
      dxy     :     0.003738

  7 H s       :     0.742729  s :     0.742729
      pz      :     0.009054  p :     0.044637
      px      :     0.010517
      py      :     0.025065

  8 H s       :     0.743028  s :     0.743028
      pz      :     0.016773  p :     0.044675
      px      :     0.010745
      py      :     0.017158

  9 H s       :     0.919088  s :     0.919088
      pz      :     0.004484  p :     0.022166
      px      :     0.003952
      py      :     0.013730

 10 H s       :     0.919496  s :     0.919496
      pz      :     0.009025  p :     0.022164
      px      :     0.004026
      py      :     0.009114

 11 H s       :     0.971352  s :     0.971352
      pz      :     0.004829  p :     0.022853
      px      :     0.005488
      py      :     0.012536

 12 H s       :     0.970356  s :     0.970356
      pz      :     0.008697  p :     0.022835
      px      :     0.005468
      py      :     0.008671

 13 H s       :     0.980895  s :     0.980895
      pz      :     0.005099  p :     0.023123
      px      :     0.005904
      py      :     0.012120

 14 H s       :     0.976377  s :     0.976377
      pz      :     0.008440  p :     0.023329
      px      :     0.005855
      py      :     0.009033

 15 H s       :     0.741494  s :     0.741494
      pz      :     0.026201  p :     0.044526
      px      :     0.008004
      py      :     0.010320



                     *******************************
                     * LOEWDIN POPULATION ANALYSIS *
                     *******************************

----------------------
LOEWDIN ATOMIC CHARGES
----------------------
   0 N :    0.314005
   1 C :    0.070778
   2 C :   -0.038338
   3 C :   -0.082296
   4 C :   -0.046265
   5 O :   -0.414340
   6 O :   -0.430168
   7 H :    0.147817
   8 H :    0.147511
   9 H :    0.043534
  10 H :    0.043548
  11 H :    0.023391
  12 H :    0.023955
  13 H :    0.021965
  14 H :    0.024377
  15 H :    0.150525

-------------------------------
LOEWDIN REDUCED ORBITAL CHARGES
-------------------------------
  0 N s       :     2.994106  s :     2.994106
      pz      :     1.214626  p :     3.646329
      px      :     1.214968
      py      :     1.216735
      dz2     :     0.010211  d :     0.045559
      dxz     :     0.008175
      dyz     :     0.007329
      dx2y2   :     0.008609
      dxy     :     0.011234

  1 C s       :     2.842507  s :     2.842507
      pz      :     1.076696  p :     2.981913
      px      :     0.810878
      py      :     1.094338
      dz2     :     0.024329  d :     0.104802
      dxz     :     0.016404
      dyz     :     0.019280
      dx2y2   :     0.032023
      dxy     :     0.012765

  2 C s       :     2.836173  s :     2.836173
      pz      :     1.003518  p :     3.111554
      px      :     1.045989
      py      :     1.062047
      dz2     :     0.023206  d :     0.090611
      dxz     :     0.015253
      dyz     :     0.017939
      dx2y2   :     0.017014
      dxy     :     0.017199

  3 C s       :     2.858666  s :     2.858666
      pz      :     1.073880  p :     3.138391
      px      :     1.003330
      py      :     1.061181
      dz2     :     0.018807  d :     0.085238
      dxz     :     0.015638
      dyz     :     0.014780
      dx2y2   :     0.019652
      dxy     :     0.016361

  4 C s       :     2.862475  s :     2.862475
      pz      :     0.995672  p :     2.861721
      px      :     1.018097
      py      :     0.847953
      dz2     :     0.071012  d :     0.322069
      dxz     :     0.104060
      dyz     :     0.021099
      dx2y2   :     0.061316
      dxy     :     0.064582

  5 O s       :     3.571797  s :     3.571797
      pz      :     1.630597  p :     4.817867
      px      :     1.638258
      py      :     1.549012
      dz2     :     0.004011  d :     0.024676
      dxz     :     0.010028
      dyz     :     0.003302
      dx2y2   :     0.003653
      dxy     :     0.003681

  6 O s       :     3.571603  s :     3.571603
      pz      :     1.775275  p :     4.834120
      px      :     1.476437
      py      :     1.582409
      dz2     :     0.003509  d :     0.024444
      dxz     :     0.005372
      dyz     :     0.000150
      dx2y2   :     0.010468
      dxy     :     0.004945

  7 H s       :     0.740932  s :     0.740932
      pz      :     0.019274  p :     0.111251
      px      :     0.029930
      py      :     0.062047

  8 H s       :     0.741140  s :     0.741140
      pz      :     0.040128  p :     0.111349
      px      :     0.030557
      py      :     0.040664

  9 H s       :     0.888857  s :     0.888857
      pz      :     0.014864  p :     0.067609
      px      :     0.013108
      py      :     0.039637

 10 H s       :     0.888837  s :     0.888837
      pz      :     0.028238  p :     0.067615
      px      :     0.013330
      py      :     0.026046

 11 H s       :     0.909270  s :     0.909270
      pz      :     0.013630  p :     0.067338
      px      :     0.017785
      py      :     0.035923

 12 H s       :     0.909024  s :     0.909024
      pz      :     0.025843  p :     0.067021
      px      :     0.017648
      py      :     0.023529

 13 H s       :     0.909476  s :     0.909476
      pz      :     0.017054  p :     0.068559
      px      :     0.017586
      py      :     0.033919

 14 H s       :     0.907076  s :     0.907076
      pz      :     0.027090  p :     0.068548
      px      :     0.017296
      py      :     0.024161

 15 H s       :     0.737806  s :     0.737806
      pz      :     0.065497  p :     0.111669
      px      :     0.023170
      py      :     0.023002



                      *****************************
                      * MAYER POPULATION ANALYSIS *
                      *****************************

  NA   - Mulliken gross atomic population
  ZA   - Total nuclear charge
  QA   - Mulliken gross atomic charge
  VA   - Mayer's total valence
  BVA  - Mayer's bonded valence
  FA   - Mayer's free valence

  ATOM       NA         ZA         QA         VA         BVA        FA
  0 N      6.9369     7.0000     0.0631     3.7746     3.7746    -0.0000
  1 C      5.9201     6.0000     0.0799     3.9863     3.9863     0.0000
  2 C      5.9977     6.0000     0.0023     4.0710     4.0710     0.0000
  3 C      6.0139     6.0000    -0.0139     3.8040     3.8040    -0.0000
  4 C      5.9712     6.0000     0.0288     4.6241     4.6241    -0.0000
  5 O      8.4527     8.0000    -0.4527     2.0188     2.0188     0.0000
  6 O      8.4723     8.0000    -0.4723     1.9864     1.9864     0.0000
  7 H      0.7874     1.0000     0.2126     0.9647     0.9647    -0.0000
  8 H      0.7877     1.0000     0.2123     0.9649     0.9649     0.0000
  9 H      0.9413     1.0000     0.0587     0.9830     0.9830    -0.0000
 10 H      0.9417     1.0000     0.0583     0.9836     0.9836     0.0000
 11 H      0.9942     1.0000     0.0058     1.0026     1.0026     0.0000
 12 H      0.9932     1.0000     0.0068     0.9984     0.9984     0.0000
 13 H      1.0040     1.0000    -0.0040     1.0035     1.0035    -0.0000
 14 H      0.9997     1.0000     0.0003     1.0005     1.0005    -0.0000
 15 H      0.7860     1.0000     0.2140     0.9609     0.9609    -0.0000

  Mayer bond orders larger than 0.100000
B(  0-N ,  1-C ) :   0.9683 B(  0-N ,  7-H ) :   0.9338 B(  0-N ,  8-H ) :   0.9337 
B(  0-N , 15-H ) :   0.9297 B(  1-C ,  2-C ) :   1.0803 B(  1-C ,  9-H ) :   0.9456 
B(  1-C , 10-H ) :   0.9456 B(  2-C ,  3-C ) :   1.0551 B(  2-C , 11-H ) :   0.9364 
B(  2-C , 12-H ) :   0.9390 B(  3-C ,  4-C ) :   0.9065 B(  3-C , 13-H ) :   0.9351 
B(  3-C , 14-H ) :   0.9332 B(  4-C ,  5-O ) :   1.8460 B(  4-C ,  6-O ) :   1.8379 
B(  5-O ,  6-O ) :   0.1150 

-------------------------
CHELPG CHARGES GENERATION
-------------------------
Grid spacing                       ...     0.300000
Point Cut-Off                      ...     2.800000
Van-der-Waals Radii                ...        COSMO
Total charge                       ...            0
Dipole moment constraint           ...        FALSE


Number of points X direction       ...           36
Number of points Y direction       ...           26
Number of points Z direction       ...           35
Maximum number of possible points  ...        32760
Final number of points             ...        10880


Grid generated                     ...   0.0 sec
Potential calculated               ...   0.1 sec
RespFile stored                    ... ok
Charges calculated                 ...   0.0 sec
CHELPG Charges            
--------------------------------
  0   N   :      -0.386565
  1   C   :       0.146695
  2   C   :       0.056016
  3   C   :      -0.245911
  4   C   :       0.774992
  5   O   :      -0.799293
  6   O   :      -0.810205
  7   H   :       0.344167
  8   H   :       0.342763
  9   H   :       0.055105
 10   H   :       0.053183
 11   H   :       0.014199
 12   H   :       0.014051
 13   H   :       0.040186
 14   H   :       0.046161
 15   H   :       0.354458
--------------------------------
Total charge:     0.000000
--------------------------------

CHELPG charges calculated...

Timings:
Grid generation                 ...        0.001 sec (=   0.000 min)
Potential calculation           ...        0.080 sec (=   0.001 min)
Fit to the potential            ...        0.007 sec (=   0.000 min)
------------------------------------------------------------------------------

-------
TIMINGS
-------

Total SCF time: 0 days 0 hours 0 min 3 sec 

Total time                  ....       3.635 sec
Sum of individual times     ....       3.624 sec  ( 99.7%)

SCF preparation             ....       0.431 sec  ( 11.9%)
Fock matrix formation       ....       2.979 sec  ( 82.0%)
  Startup                   ....       0.005 sec  (  0.2% of F)
  Split-RI-J                ....       0.221 sec  (  7.4% of F)
  Chain of spheres X        ....       1.761 sec  ( 59.1% of F)
  XC integration            ....       0.486 sec  ( 16.3% of F)
    XC Preparation          ....       0.000 sec  (  0.0% of XC)
    Basis function eval.    ....       0.183 sec  ( 37.6% of XC)
    Density eval.           ....       0.080 sec  ( 16.4% of XC)
    XC-Functional eval.     ....       0.048 sec  (  9.9% of XC)
    XC-Potential eval.      ....       0.116 sec  ( 23.9% of XC)
  CPCM terms                ....       0.485 sec  ( 16.3% of F)
Diagonalization             ....       0.000 sec  (  0.0%)
Density matrix formation    ....       0.012 sec  (  0.3%)
Total Energy calculation    ....       0.011 sec  (  0.3%)
Population analysis         ....       0.109 sec  (  3.0%)
Orbital Transformation      ....       0.009 sec  (  0.3%)
Orbital Orthonormalization  ....       0.000 sec  (  0.0%)
DIIS solution               ....       0.047 sec  (  1.3%)
SOSCF solution              ....       0.026 sec  (  0.7%)
Finished LeanSCF after   3.7 sec

Maximum memory used throughout the entire LEANSCF-calculation: 14.9 MB
[ga00:3796279] 9 more processes have sent help message help-mpi-btl-openib.txt / error in device init
[ga00:3796279] Set MCA parameter "orte_base_help_aggregate" to 0 to see all help / error messages

-------------------------   --------------------
FINAL SINGLE POINT ENERGY      -362.587346036533
-------------------------   --------------------

--------------------------------------------------------------------------
WARNING: There was an error initializing an OpenFabrics device.

  Local host:   ga00
  Local device: mlx5_0
--------------------------------------------------------------------------


           ************************************************************
           *        Program running with 10 parallel MPI-processes    *
           *              working on a common directory               *
           ************************************************************

------------------------------------------------------------------------------
                              ORCA PROPERTY CALCULATIONS
------------------------------------------------------------------------------

GBWName                                 ... 00_Aminobutyric-acid_zwitterion.gbw
Number of atoms                         ...     16
Number of basis functions               ...    143
Max core memory                         ...   5000 MB

Electric properties:
Dipole moment                           ... YES
Quadrupole moment                       ...  NO
Static polarizability (Dipole/Dipole)   ...  NO
Static polarizability (Dipole/Quad.)    ...  NO
Static polarizability (Quad./Quad.)     ...  NO
Static polarizability (Velocity)        ...  NO

Atomic electric properties:
Dipole moment                           ...  NO
Quadrupole moment                       ...  NO
Static polarizability                   ...  NO

Choice of electric origin               ... Center of mass
Position of electric origin             ...     7.270158     1.021179    -3.061336

General magnetic properties:
Magnetizability                         ...  NO

EPR properties:
g-Tensor (aka g-matrix)                 ...  NO
Zero-Field splitting spin-orbit         ...  NO
Zero-field splitting spin-spin          ...  NO
Hyperfine couplings                     ...  NO (   0 nuclei)
Quadrupole couplings                    ...  NO (   0 nuclei)
Contact density                         ...  NO (   0 nuclei)

NMR properties:
Chemical shifts                         ...  NO (   0 nuclei)
Spin-rotation constants                 ...  NO (   0 nuclei)
Spin-spin couplings                     ...  NO (   0 nuclei,    0 pairs)

Choice of magnetic origin               ... GIAO
Position of magnetic origin             ...     0.000000     0.000000     0.000000

Properties with geometric perturbations:
SCF Hessian                             ...  NO
IR spectrum                             ...  NO
VCD spectrum                            ...  NO
X-ray spectroscopy properties:
SCF XES/XAS/RIXS spectra                ...  NO


-------------
DIPOLE MOMENT
-------------

Method             : SCF
Type of density    : Electron Density
Multiplicity       :   1
Irrep              :   0
Energy             :  -362.5873460365330061 Eh
Relativity type    : 
Basis              : AO
                                X                 Y                 Z
Electronic contribution:      2.401479007       1.287642743      -4.173410585
Nuclear contribution   :     -9.534167532      -3.460526178      11.297500918
                        -----------------------------------------
Total Dipole Moment    :     -7.132688525      -2.172883435       7.124090333
                        -----------------------------------------
Magnitude (a.u.)       :     10.312581204
Magnitude (Debye)      :     26.212498278



--------------------
Rotational spectrum 
--------------------
 
Rotational constants in cm-1:             0.269317             0.034772             0.031496 
Rotational constants in MHz :          8073.911709          1042.428682           944.219190 

Dipole components along the rotational axes: 
x,y,z [a.u.] :   -10.309048     0.269883     0.003736 
x,y,z [Debye]:   -26.203519     0.685987     0.009496 

 

Dipole moment calculation done in   0.0 sec 

Maximum memory used throughout the entire PROP-calculation: 6.9 MB
[ga00:3796368] 9 more processes have sent help message help-mpi-btl-openib.txt / error in device init
[ga00:3796368] Set MCA parameter "orte_base_help_aggregate" to 0 to see all help / error messages
--------------------------------------------------------------------------
WARNING: There was an error initializing an OpenFabrics device.

  Local host:   ga00
  Local device: mlx5_0
--------------------------------------------------------------------------
[ga00:3796420] 9 more processes have sent help message help-mpi-btl-openib.txt / error in device init
[ga00:3796420] Set MCA parameter "orte_base_help_aggregate" to 0 to see all help / error messages

--------------------------------
SUGGESTED CITATIONS FOR THIS RUN
--------------------------------

Below you find a list of papers that are relevant to this ORCA run
We neither can nor want to force you to cite these papers, but we appreciate if you do
You receive ORCA, which is the product of decades of hard work by many enthusiastic individuals, for free
The only thing we kindly ask in return is that you cite our papers,
We deeply appreciate it, if you show your appreciation for ORCA by not just citing the generic ORCA reference.

Please note that relegating all ORCA citations to the supporting information does *not* help us.
SI sections are not indexed - citations you put there will not count into any citation statistics
But we need these citations in order to attract the funding resources that allow us to do what we are doing

Therefore, if you are a happy ORCA user, please consider citing a few of the papers listed below in the main body of your paper

In addition to the list printed below, the program has created the file 00_Aminobutyric-acid_zwitterion.bibtex that contains the list in bibtex format
You can import this file easily into all common literature databanks and citation aid programs


List of essential papers. We consider these as the minimum necessary citations

  1. Neese,F.
     Software update: the ORCA program system, version 5.0
     WIRES Comput. Molec. Sci., 2022 12(1)e1606
     doi.org/10.1002/wcms.1606

List of papers to cite with high priority. The work reported in these papers was absolutely
necessary for this run to complete.
Our perspective: the developers of density functionals and basis sets usually get cited in chemistry papers
Good! But without the algorithms to do something with them, the functionals or basis sets would not do anything.
Hence, in our opinion, the algorithm design and method developments papers are equally worthy of getting cited

  1. Neese,F.
     An improvement of the resolution of the identity approximation for the formation of the Coulomb matrix
     J. Comp. Chem., 2003 24(14)1740-1747
     doi.org/10.1002/jcc.10318
  2. Neese,F.; Wennmohs,F.; Hansen,A.; Becker,U.
     Efficient, approximate and parallel Hartree-Fock and hybrid DFT calculations. A 'chain-of-spheres' algorithm for the Hartree-Fock exchange
     Chem. Phys., 2009 356(1-3)98-109
     doi.org/10.1016/j.chemphys.2008.10.036
  3. Garcia-Rates,M.; Neese,F.
     Effect of the Solute Cavity on the Solvation Energy and its Derivatives within the Framework of the Gaussian Charge Scheme
     J. Comput. Chem., 2020 41 922-939
     doi.org/10.1002/jcc.26139
  4. Helmich-Paris,B.; de Souza,B.; Neese,F.; Izsák,R.
     An improved chain of spheres for exchange algorithm
     J. Chem. Phys., 2021 155 104109
     doi.org/doi: 10.1063/5.0058766.
  5. Neese,F.
     The SHARK Integral Generation and Digestion System
     J. Comp. Chem., 2022  1-16
     doi.org/10.1002/jcc.26942

List of suggested additional citations. These are papers that are important in the 'surrounding' of 
of this run, or papers that preceded the highly important papers. If you like your results we are grateful for a citation.

  1. Izsak,R.; Neese,F.
     An overlap fitted chain of spheres exchange method
     J. Chem. Phys., 2011 135 144105
     doi.org/10.1063/1.3646921
  2. Izsak,R.; Hansen,A.; Neese,F.
     The resolution of identity and chain of spheres approximations for the LPNO-CCSD singles Fock term
     Molec. Phys., 2012 110 2413-2417
     doi.org/10.1080/00268976.2012.687466
  3. Neese,F.
     The ORCA program system
     WIRES Comput. Molec. Sci., 2012 2(1)73-78
     doi.org/10.1002/wcms.81
  4. Izsak,R.; Neese,F.; Klopper,W.
     Robust fitting techniques in the chain of spheres approximation to the Fock exchange: The role of the complementary space
     J. Chem. Phys., 2013 139 
     doi.org/10.1063/1.4819264
  5. Neese,F.
     Software update: the ORCA program system, version 4.0
     WIRES Comput. Molec. Sci., 2018 8(1)1-6
     doi.org/10.1002/wcms.1327
  6. Neese,F.; Wennmohs,F.; Becker,U.; Riplinger,C.
     The ORCA quantum chemistry program package
     J. Chem. Phys., 2020 152 Art. No. L224108
     doi.org/10.1063/5.0004608

List of optional additional citations

  1. Neese,F.
     Approximate second-order SCF convergence for spin unrestricted wavefunctions
     Chem. Phys. Lett., 2000 325(1-3)93-98
     doi.org/10.1016/s0009-2614(00)00662-x

Timings for individual modules:

Sum of individual times          ...        5.919 sec (=   0.099 min)
Startup calculation              ...        0.948 sec (=   0.016 min)  16.0 %
SCF iterations                   ...        4.444 sec (=   0.074 min)  75.1 %
Property calculations            ...        0.527 sec (=   0.009 min)   8.9 %
                             ****ORCA TERMINATED NORMALLY****
TOTAL RUN TIME: 0 days 0 hours 0 minutes 6 seconds 437 msec
