
                                 *****************
                                 * O   R   C   A *
                                 *****************

                                            #,                                       
                                            ###                                      
                                            ####                                     
                                            #####                                    
                                            ######                                   
                                           ########,                                 
                                     ,,################,,,,,                         
                               ,,#################################,,                 
                          ,,##########################################,,             
                       ,#########################################, ''#####,          
                    ,#############################################,,   '####,        
                  ,##################################################,,,,####,       
                ,###########''''           ''''###############################       
              ,#####''   ,,,,##########,,,,          '''####'''          '####       
            ,##' ,,,,###########################,,,                        '##       
           ' ,,###''''                  '''############,,,                           
         ,,##''                                '''############,,,,        ,,,,,,###''
      ,#''                                            '''#######################'''  
     '                                                          ''''####''''         
             ,#######,   #######,   ,#######,      ##                                
            ,#'     '#,  ##    ##  ,#'     '#,    #''#        ,####,   ,####,        
            ##       ##  ##   ,#'  ##            #'  '#       #'       #'  '#        
            ##       ##  #######   ##           ,######,      #####,   #    #        
            '#,     ,#'  ##    ##  '#,     ,#' ,#      #,     #,   #   #,  ,#        
             '#######'   ##     ##  '#######'  #'      '#     '####' # '####'        



                #########################################################
                #                        -***-                          #
                #          Department of theory and spectroscopy        #
                #                                                       #
                #                      Frank Neese                      #
                #                                                       #
                #     Directorship, Architecture, Infrastructure        #
                #                    SHARK, DRIVERS                     #
                #        Core code/Algorithms in most modules           #
                #                                                       #
                #        Max Planck Institute fuer Kohlenforschung      #
                #                Kaiser Wilhelm Platz 1                 #
                #                 D-45470 Muelheim/Ruhr                 #
                #                      Germany                          #
                #                                                       #
                #                  All rights reserved                  #
                #                        -***-                          #
                #########################################################


                         Program Version 6.0.1  -  RELEASE   -


 With contributions from (in alphabetic order):
[Max-Planck-Institut fuer Kohlenforschung]                               
  Daniel Aravena         : Magnetic Suceptibility                        
  Michael Atanasov       : Ab Initio Ligand Field Theory (pilot matlab implementation)
  Alexander A. Auer      : GIAO ZORA, VPT2 properties, NMR spectrum      
  Ute Becker             : All parallelization in ORCA, NUMFREQ, NUMCALC 
  Giovanni Bistoni       : ED, misc. LED, open-shell LED, HFLD           
  Martin Brehm           : Molecular dynamics                            
  Dmytro Bykov           : pre 5.0 version of the SCF Hessian            
  Marcos Casanova-Páez   : Triplet and SCS-CIS(D). UHF-(DLPNO)-IP/EA/STEOM-CCSD. UHF-CVS-IP/STEOM-CCSD   
  Vijay G. Chilkuri      : MRCI spin determinant printing, contributions to CSF-ICE 
  Pauline Colinet        : FMM embedding                                 
  Dipayan Datta          : RHF DLPNO-CCSD density                        
  Achintya Kumar Dutta   : EOM-CC, STEOM-CC                              
  Nicolas Foglia         : Exact transition moments, OPA infrastructure, MCD improvements    
  Dmitry Ganyushin       : Spin-Orbit,Spin-Spin,Magnetic field MRCI      
  Miquel Garcia-Rates    : C-PCM and meta-GGA Hessian, CCSD/C-PCM, Gaussian charge scheme 
  Tiago L. C. Gouveia    : GS-ROHF, GS-ROCIS                             
  Yang Guo               : DLPNO-NEVPT2, F12-NEVPT2, CIM, IAO-localization        
  Andreas Hansen         : Spin unrestricted coupled pair/coupled cluster methods 
  Ingolf Harden          : AUTO-CI MPn and infrastructure                
  Benjamin Helmich-Paris : MC-RPA, TRAH-(SCF,CASSCF), AVAS, COSX integrals, SCF dyn. polar. 
  Lee Huntington         : MR-EOM, pCC                                   
  Robert Izsak           : Overlap fitted RIJCOSX, COSX-SCS-MP3, EOM     
  Riya Kayal             : Wick's Theorem for AUTO-CI, AUTO-CI UHF-CCSDT 
  Emily Kempfer          : AUTO-CI, RHF CISDT and CCSDT                  
  Christian Kollmar      : KDIIS, OOCD, Brueckner-CCSD(T), CCSD density, CASPT2, CASPT2-K, improved NEVPT2 
  Axel Koslowski         : Symmetry handling                             
  Simone Kossmann        : meta-GGA functionals, TD-DFT gradient, OOMP2, (MP2 Hessian; deprecated post 5.0) 
  Lucas Lang             : DCDCAS                                        
  Marvin Lechner         : AUTO-CI (C++ implementation), FIC-MRCC        
  Spencer Leger          : CASSCF response                               
  Dagmar Lenk            : GEPOL surface, SMD, ORCA-2-JSON               
  Dimitrios Liakos       : Extrapolation schemes; Compound Job, initial MDCI parallelization 
  Dimitrios Manganas     : Further ROCIS development; embedding schemes. LFT, Crystal Embedding 
  Dimitrios Pantazis     : SARC Basis sets                               
  Anastasios Papadopoulos: AUTO-CI, single reference methods and gradients 
  Taras Petrenko         : pre 6.0 DFT Hessian and TD-DFT gradient, (ASA, deprecated), ECA, 1-Electron XAS/XES, NRVS 
  Peter Pinski           : DLPNO-MP2, DLPNO-MP2 Gradient                 
  Christoph Reimann      : Effective Core Potentials                     
  Marius Retegan         : Local ZFS, SOC                                
  Christoph Riplinger    : Optimizer, TS searches, QM/MM, DLPNO-CCSD(T), (RO)-DLPNO pert. Triples 
  Michael Roemelt        : Original ROCIS implementation                 
  Masaaki Saitow         : Open-shell DLPNO-CCSD energy and density      
  Barbara Sandhoefer     : DKH picture change effects                    
  Kantharuban Sivalingam : CASSCF convergence/infrastructure, NEVPT2 and variants, FIC-MRCI 
  Bernardo de Souza      : ESD, SOC TD-DFT                               
  Georgi L. Stoychev     : AutoAux, RI-MP2 NMR, DLPNO-MP2 response, X2C  
  Van Anh Tran           : RI-MP2 g-tensors                              
  Willem Van den Heuvel  : Paramagnetic NMR                              
  Zikuan Wang            : NOTCH, Electric field optimization            
  Frank Wennmohs         : Technical directorship and infrastructure     
  Hang Xu                : AUTO-CI-Response properties                   
                                                                         
[FACCTs GmbH]                                                            
  Markus Bursch, Miquel Garcia-Rates, Christoph Riplinger, Bernardo de Souza, Georgi L. Stoychev 
                                                                 
  APM, Basis sets (HGBS, AHGBS, def-TZVP (Ac-Lr), def2-XVPD (La-Lu)), CI-OPT, improved COSX, DLPNO-Multilevel,           
  DOCKER, DRACO, updates on ESD, GOAT, IRC, LR-CPCM, MBIS, meta-GGA TD-DFT gradient, ML-optimized integration grids, 
  MM, NACMEs, nearIR, NEB, NEB-TS, NL-DFT gradient (VV10), 2- and 3-layer-ONIOM, interface openCOSMO-RS, QMMM,   
  Crystal-QMMM, SF, symmetry and pop. for TD-DFT, r2SCAN hybrids, SOLVATOR                                   
                                                                         
[Other institutions]                                                     
  V. Asgeirsson          : NEB                                           
  Christoph Bannwarth    : sTDA-DFT, sTD-DFT, PBEh-3c, B97-3c, D3        
  Sebastian Ehlert       : rSCAN, r2SCAN, r2SCAN-3c, D4, dhf basis sets  
  Marvin Friede          : D4 for Fr, Ra, Ac-Lr                          
  Lars Goerigk           : TD-DFT with DH, B97 family of functionals     
  Stefan Grimme          : VdW corrections, initial TS optimization, DFT functionals, gCP, sTDA/sTD-DF 
  Waldemar Hujo          : DFT-NL                                        
  H. Jonsson             : NEB                                           
  Holger Kruse           : gCP                                           
  Marcel Mueller         : wB97X-3c, vDZP basis set                      
  Hagen Neugebauer       : wr2SCAN                                       
  Tobias Risthaus        : range-separated hybrid DFT                    
  Lukas Wittmann         : regularized MP2, r2SCAN double-hybrids, wr2SCAN        
                                                                         
We gratefully acknowledge several colleagues who have allowed us to      
interface, adapt or use parts of their codes:                            
  Ed Valeev, F. Pavosevic, A. Kumar             : LibInt (2-el integral package), F12 methods 
  Garnet Chan, S. Sharma, J. Yang, R. Olivares  : DMRG                   
  Ulf Ekstrom                                   : XCFun DFT Library      
  Mihaly Kallay                                 : mrcc  (arbitrary order and MRCC methods)
  Frank Weinhold                                : gennbo (NPA and NBO analysis)           
  Simon Mueller                                 : openCOSMO-RS                            
  Christopher J. Cramer and Donald G. Truhlar   : smd solvation model                     
  S Lehtola, MJT Oliveira, MAL Marques          : LibXC Library                           
  Liviu Ungur et al                             : ANISO software                          


 Your calculation uses the libint2 library for the computation of 2-el integrals
 For citations please refer to: http://libint.valeyev.net

 Your ORCA version has been built with support for libXC version: 6.2.2
 For citations please refer to: https://libxc.gitlab.io

 This ORCA versions uses:
   CBLAS   interface :  Fast vector & matrix operations
   LAPACKE interface :  Fast linear algebra routines
   SCALAPACK package :  Parallel linear algebra routines
   Shared memory     :  Shared parallel matrices
   BLAS/LAPACK       :  OpenBLAS 0.3.27  USE64BITINT DYNAMIC_ARCH NO_AFFINITY SkylakeX SINGLE_THREADED
        Core in use  :  SkylakeX
   Copyright (c) 2011-2014, The OpenBLAS Project


NOTE: MaxCore=5000 MB was set to SCF,MP2,MDCI,CIPSI,MRCI and CIS
      => If you want to overwrite this, your respective input block should be placed after the MaxCore statement
Warning: RI is on but no J-basis has been assigned. Assigning Def2/J (nothing to worry about!)
================================================================================

----- Orbital basis set information -----
Your calculation utilizes the basis: def2-SVP
   F. Weigend and R. Ahlrichs, Phys. Chem. Chem. Phys. 7, 3297 (2005).

----- AuxJ basis set information -----
Your calculation utilizes the auxiliary basis: def2/J
   F. Weigend, Phys. Chem. Chem. Phys. 8, 1057 (2006).

================================================================================
                                        WARNINGS
                       Please study these warnings very carefully!
================================================================================


================================================================================
                                       INPUT FILE
================================================================================
NAME = 00_Alanine_zwitterion.inp
|  1> ! B3LYP def2-SVP TightSCF CPCM(water) CHELPG
|  2> 
|  3> %maxcore 5000
|  4> 
|  5> %pal
|  6> nprocs 10
|  7> end
|  8> 
|  9> * xyz 0 1
| 10> C          -0.28049687842096      0.20791933931691     -1.43978550197807
| 11>   C          -1.24631081324305      0.95061260493719     -0.48799817774793
| 12>   O          -2.43286266225406      1.04821740420368     -0.88418834139283
| 13>   O          -0.77258697233184      1.38618587589972      0.59013268398889
| 14>   C           1.14902825020148      0.18814740398980     -0.94150483559759
| 15>   N           2.04432110256395     -0.52745149533953     -1.91908353806217
| 16>   H          -0.33324421346963      0.68764629292901     -2.42100860525963
| 17>   H          -0.65155657684896     -0.81314743331920     -1.56803405789209
| 18>   H           1.24528226074143     -0.33507775317588      0.00590867652137
| 19>   H           1.55473705988836      1.19041027624882     -0.83116555821255
| 20>   H           1.76177746192819     -1.50137797903618     -2.04193474455436
| 21>   H           2.02139583013576     -0.08415877080298     -2.83914663222709
| 22>   H           3.01511615110933     -0.52732576585139     -1.60289136758592
| 23> *
| 24> 
| 25>                          ****END OF INPUT****
================================================================================

                       ****************************
                       * Single Point Calculation *
                       ****************************

---------------------------------
CARTESIAN COORDINATES (ANGSTROEM)
---------------------------------
  C     -0.280497    0.207919   -1.439786
  C     -1.246311    0.950613   -0.487998
  O     -2.432863    1.048217   -0.884188
  O     -0.772587    1.386186    0.590133
  C      1.149028    0.188147   -0.941505
  N      2.044321   -0.527451   -1.919084
  H     -0.333244    0.687646   -2.421009
  H     -0.651557   -0.813147   -1.568034
  H      1.245282   -0.335078    0.005909
  H      1.554737    1.190410   -0.831166
  H      1.761777   -1.501378   -2.041935
  H      2.021396   -0.084159   -2.839147
  H      3.015116   -0.527326   -1.602891

----------------------------
CARTESIAN COORDINATES (A.U.)
----------------------------
  NO LB      ZA    FRAG     MASS         X           Y           Z
   0 C     6.0000    0    12.011   -0.530062    0.392911   -2.720800
   1 C     6.0000    0    12.011   -2.355186    1.796397   -0.922183
   2 O     8.0000    0    15.999   -4.597444    1.980844   -1.670874
   3 O     8.0000    0    15.999   -1.459978    2.619512    1.115189
   4 C     6.0000    0    12.011    2.171349    0.355547   -1.779186
   5 N     7.0000    0    14.007    3.863207   -0.996739   -3.626542
   6 H     1.0000    0     1.008   -0.629740    1.299463   -4.575043
   7 H     1.0000    0     1.008   -1.231263   -1.536626   -2.963155
   8 H     1.0000    0     1.008    2.353242   -0.633205    0.011166
   9 H     1.0000    0     1.008    2.938027    2.249549   -1.570675
  10 H     1.0000    0     1.008    3.329277   -2.837193   -3.858697
  11 H     1.0000    0     1.008    3.819885   -0.159037   -5.365210
  12 H     1.0000    0     1.008    5.697744   -0.996501   -3.029026

--------------------------------
INTERNAL COORDINATES (ANGSTROEM)
--------------------------------
 C      0   0   0     0.000000000000     0.00000000     0.00000000
 C      1   0   0     1.546055934971     0.00000000     0.00000000
 O      2   1   0     1.254750426579   115.70421145     0.00000000
 O      2   1   3     1.255589306602   117.35926615   179.80953668
 C      1   2   3     1.514006818108   113.17250002   176.90383580
 N      5   1   2     1.506416674007   110.71893113   180.93296761
 H      1   2   3     1.093489373424   108.15182816    54.41793486
 H      1   2   3     1.093942569824   107.97830176   299.27063348
 H      5   1   2     1.086564200856   112.14161683    62.10187417
 H      5   1   2     1.086878677452   111.95131711   299.46244928
 H      6   5   1     1.021497001193   111.50424248   298.70602109
 H      6   5   1     1.021543002026   111.40766798    58.69901977
 H      6   5   1     1.020989975836   111.35037133   178.66404444

---------------------------
INTERNAL COORDINATES (A.U.)
---------------------------
 C      0   0   0     0.000000000000     0.00000000     0.00000000
 C      1   0   0     2.921622304819     0.00000000     0.00000000
 O      2   1   0     2.371134672655   115.70421145     0.00000000
 O      2   1   3     2.372719926158   117.35926615   179.80953668
 C      1   2   3     2.861058251114   113.17250002   176.90383580
 N      5   1   2     2.846714957445   110.71893113   180.93296761
 H      1   2   3     2.066395446124   108.15182816    54.41793486
 H      1   2   3     2.067251863205   107.97830176   299.27063348
 H      5   1   2     2.053308766541   112.14161683    62.10187417
 H      5   1   2     2.053903041183   111.95131711   299.46244928
 H      6   5   1     1.930349578876   111.50424248   298.70602109
 H      6   5   1     1.930436507852   111.40766798    58.69901977
 H      6   5   1     1.929391439810   111.35037133   178.66404444

---------------------
BASIS SET INFORMATION
---------------------
There are 4 groups of distinct atoms

 Group   1 Type C   : 7s4p1d contracted to 3s2p1d pattern {511/31/1}
 Group   2 Type O   : 7s4p1d contracted to 3s2p1d pattern {511/31/1}
 Group   3 Type N   : 7s4p1d contracted to 3s2p1d pattern {511/31/1}
 Group   4 Type H   : 4s1p contracted to 2s1p pattern {31/1}

Atom   0C    basis set group =>   1
Atom   1C    basis set group =>   1
Atom   2O    basis set group =>   2
Atom   3O    basis set group =>   2
Atom   4C    basis set group =>   1
Atom   5N    basis set group =>   3
Atom   6H    basis set group =>   4
Atom   7H    basis set group =>   4
Atom   8H    basis set group =>   4
Atom   9H    basis set group =>   4
Atom  10H    basis set group =>   4
Atom  11H    basis set group =>   4
Atom  12H    basis set group =>   4
---------------------------------
AUXILIARY/J BASIS SET INFORMATION
---------------------------------
There are 4 groups of distinct atoms

 Group   1 Type C   : 12s5p4d2f1g contracted to 6s4p3d1f1g pattern {711111/2111/211/2/1}
 Group   2 Type O   : 12s5p4d2f1g contracted to 6s4p3d1f1g pattern {711111/2111/211/2/1}
 Group   3 Type N   : 12s5p4d2f1g contracted to 6s4p3d1f1g pattern {711111/2111/211/2/1}
 Group   4 Type H   : 5s2p1d contracted to 3s1p1d pattern {311/2/1}

Atom   0C    basis set group =>   1
Atom   1C    basis set group =>   1
Atom   2O    basis set group =>   2
Atom   3O    basis set group =>   2
Atom   4C    basis set group =>   1
Atom   5N    basis set group =>   3
Atom   6H    basis set group =>   4
Atom   7H    basis set group =>   4
Atom   8H    basis set group =>   4
Atom   9H    basis set group =>   4
Atom  10H    basis set group =>   4
Atom  11H    basis set group =>   4
Atom  12H    basis set group =>   4
--------------------------------------------------------------------------
WARNING: There was an error initializing an OpenFabrics device.

  Local host:   ga00
  Local device: mlx5_0
--------------------------------------------------------------------------


           ************************************************************
           *        Program running with 10 parallel MPI-processes    *
           *              working on a common directory               *
           ************************************************************
------------------------------------------------------------------------------
                             ORCA STARTUP CALCULATIONS
                           -- RI-GTO INTEGRALS CHOSEN --
------------------------------------------------------------------------------
------------------------------------------------------------------------------
                   ___                                                        
                  /   \      - P O W E R E D   B Y -                         
                 /     \                                                     
                 |  |  |   _    _      __       _____    __    __             
                 |  |  |  | |  | |    /  \     |  _  \  |  |  /  |          
                  \  \/   | |  | |   /    \    | | | |  |  | /  /          
                 / \  \   | |__| |  /  /\  \   | |_| |  |  |/  /          
                |  |  |   |  __  | /  /__\  \  |    /   |      \           
                |  |  |   | |  | | |   __   |  |    \   |  |\   \          
                \     /   | |  | | |  |  |  |  | |\  \  |  | \   \       
                 \___/    |_|  |_| |__|  |__|  |_| \__\ |__|  \__/        
                                                                              
                      - O R C A' S   B I G   F R I E N D -                    
                                      &                                       
                       - I N T E G R A L  F E E D E R -                       
                                                                              
 v1 FN, 2020, v2 2021, v3 2022-2024                                           
------------------------------------------------------------------------------


----------------------
SHARK INTEGRAL PACKAGE
----------------------

Number of atoms                             ...     13
Number of basis functions                   ...    119
Number of shells                            ...     57
Maximum angular momentum                    ...      2
Integral batch strategy                     ... SHARK/LIBINT Hybrid
RI-J (if used) integral strategy            ... SPLIT-RIJ (Revised 2003 algorithm where possible)
Printlevel                                  ...      1
Contraction scheme used                     ... SEGMENTED contraction
Prescreening option                         ... SCHWARTZ
   Thresh                                   ... 2.500e-11
   Tcut                                     ... 2.500e-12
   Tpresel                                  ... 2.500e-12 
Coulomb Range Separation                    ... NOT USED
Exchange Range Separation                   ... NOT USED
Multipole approximations                    ... NOT USED
Finite Nucleus Model                        ... NOT USED
CABS basis                                  ... NOT available
Auxiliary Coulomb fitting basis             ... AVAILABLE
   # of basis functions in Aux-J            ...    371
   # of shells in Aux-J                     ...    125
   Maximum angular momentum in Aux-J        ...      4
Auxiliary J/K fitting basis                 ... NOT available
Auxiliary Correlation fitting basis         ... NOT available
Auxiliary 'external' fitting basis          ... NOT available

Checking pre-screening integrals            ... done (  0.0 sec) Dimension = 57
Check shell pair data                       ... done (  0.0 sec)
Shell pair information
Shell pair cut-off parameter TPreSel        ...   2.5e-12
Total number of shell pairs                 ...      1653
Shell pairs after pre-screening             ...      1569
Total number of primitive shell pairs       ...      5877
Primitive shell pairs kept                  ...      4341
          la=0 lb=0:    503 shell pairs
          la=1 lb=0:    580 shell pairs
          la=1 lb=1:    183 shell pairs
          la=2 lb=0:    179 shell pairs
          la=2 lb=1:    105 shell pairs
          la=2 lb=2:     19 shell pairs

Calculating one electron integrals          ... done (  0.0 sec)
Calculating RI/J V-Matrix + Cholesky decomp.... done (  0.0 sec)
Calculating Nuclear repulsion               ... done (  0.0 sec) ENN=    238.665394729397 Eh

Diagonalization of the overlap matrix:
Smallest eigenvalue                        ... 1.570e-03
Time for diagonalization                   ...    0.001 sec
Threshold for overlap eigenvalues          ... 1.000e-07
Number of eigenvalues below threshold      ... 0
Time for construction of square roots      ...    0.001 sec
Total time needed                          ...    0.002 sec

-------------------
DFT GRID GENERATION
-------------------

General Integration Accuracy     IntAcc      ... 4.388
Radial Grid Type                 RadialGrid  ... OptM3 with GC (2021)
Angular Grid (max. ang.)         AngularGrid ... 4 (Lebedev-302)
Angular grid pruning method      GridPruning ... 4 (adaptive)
Weight generation scheme         WeightScheme... mBecke (2022)
Basis function cutoff            BFCut       ... 1.0000e-11
Integration weight cutoff        WCut        ... 1.0000e-14
Partially contracted basis set               ... off
Rotationally invariant grid construction     ... off
Angular grids for H and He will be reduced by one unit

Total number of grid points                  ...    58895
Total number of batches                      ...      925
Average number of points per batch           ...       63
Average number of grid points per atom       ...     4530

--------------------
COSX GRID GENERATION
--------------------

GRIDX 1
-------
General Integration Accuracy     IntAcc      ... 3.816
Radial Grid Type                 RadialGrid  ... OptM3 with GC (2021)
Angular Grid (max. ang.)         AngularGrid ... 1 (Lebedev-50)
Angular grid pruning method      GridPruning ... 4 (adaptive)
Weight generation scheme         WeightScheme... mBecke (2022)
Basis function cutoff            BFCut       ... 1.0000e-11
Integration weight cutoff        WCut        ... 1.0000e-14
Partially contracted basis set               ... on
Rotationally invariant grid construction     ... off
Angular grids for H and He will be reduced by one unit

Total number of grid points                  ...     7545
Total number of batches                      ...       67
Average number of points per batch           ...      112
Average number of grid points per atom       ...      580
UseSFitting                                  ... on

GRIDX 2
-------
General Integration Accuracy     IntAcc      ... 4.020
Radial Grid Type                 RadialGrid  ... OptM3 with GC (2021)
Angular Grid (max. ang.)         AngularGrid ... 2 (Lebedev-110)
Angular grid pruning method      GridPruning ... 4 (adaptive)
Weight generation scheme         WeightScheme... mBecke (2022)
Basis function cutoff            BFCut       ... 1.0000e-11
Integration weight cutoff        WCut        ... 1.0000e-14
Partially contracted basis set               ... on
Rotationally invariant grid construction     ... off
Angular grids for H and He will be reduced by one unit

Total number of grid points                  ...    16330
Total number of batches                      ...      134
Average number of points per batch           ...      121
Average number of grid points per atom       ...     1256
UseSFitting                                  ... on

GRIDX 3
-------
General Integration Accuracy     IntAcc      ... 4.338
Radial Grid Type                 RadialGrid  ... OptM3 with GC (2021)
Angular Grid (max. ang.)         AngularGrid ... 3 (Lebedev-194)
Angular grid pruning method      GridPruning ... 4 (adaptive)
Weight generation scheme         WeightScheme... mBecke (2022)
Basis function cutoff            BFCut       ... 1.0000e-11
Integration weight cutoff        WCut        ... 1.0000e-14
Partially contracted basis set               ... on
Rotationally invariant grid construction     ... off
Angular grids for H and He will be reduced by one unit

Total number of grid points                  ...    35913
Total number of batches                      ...      287
Average number of points per batch           ...      125
Average number of grid points per atom       ...     2763
UseSFitting                                  ... on
Initializing property integral containers    ... done (  0.0 sec)

SHARK setup successfully completed in   0.4 seconds

Maximum memory used throughout the entire STARTUP-calculation: 16.5 MB
[ga00:3795769] 9 more processes have sent help message help-mpi-btl-openib.txt / error in device init
[ga00:3795769] Set MCA parameter "orte_base_help_aggregate" to 0 to see all help / error messages
--------------------------------------------------------------------------
WARNING: There was an error initializing an OpenFabrics device.

  Local host:   ga00
  Local device: mlx5_0
--------------------------------------------------------------------------


           ************************************************************
           *        Program running with 10 parallel MPI-processes    *
           *              working on a common directory               *
           ************************************************************
-------------------------------------------------------------------------------
                                 ORCA GUESS
                   Start orbitals & Density for SCF / CASSCF
-------------------------------------------------------------------------------

------------
SCF SETTINGS
------------
Hamiltonian:
 Density Functional     Method          .... DFT(GTOs)
 Exchange Functional    Exchange        .... B88
   X-Alpha parameter    XAlpha          ....  0.666667
   Becke's b parameter  XBeta           ....  0.004200
 Correlation Functional Correlation     .... LYP
 LDA part of GGA corr.  LDAOpt          .... VWN-5
 Gradients option       PostSCFGGA      .... off
 Hybrid DFT is turned on
   Fraction HF Exchange ScalHFX         ....  0.200000
   Scaling of DF-GGA-X  ScalDFX         ....  0.720000
   Scaling of DF-GGA-C  ScalDFC         ....  0.810000
   Scaling of DF-LDA-C  ScalLDAC        ....  1.000000
   Perturbative correction              ....  0.000000
   NL short-range parameter             ....  4.800000
 RI-approximation to the Coulomb term is turned on
   Number of AuxJ basis functions       .... 371
   RIJ-COSX (HFX calculated with COS-X)).... on


General Settings:
 Integral files         IntName         .... 00_Alanine_zwitterion
 Hartree-Fock type      HFTyp           .... RHF
 Total Charge           Charge          ....    0
 Multiplicity           Mult            ....    1
 Number of Electrons    NEL             ....   48
 Basis Dimension        Dim             ....  119
 Nuclear Repulsion      ENuc            ....    238.6653947294 Eh

Convergence Acceleration:
 AO-DIIS                CNVDIIS         .... on
   Start iteration      DIISMaxIt       ....    12
   Startup error        DIISStart       ....  0.200000
   # of expansion vecs  DIISMaxEq       ....     5
   Bias factor          DIISBfac        ....   1.050
   Max. coefficient     DIISMaxC        ....  10.000
 MO-DIIS                CNVKDIIS        .... off
 Trust-Rad. Augm. Hess. CNVTRAH         .... auto
   Auto Start mean grad. ratio tolernc. ....  1.125000
   Auto Start start iteration           ....    50
   Auto Start num. interpolation iter.  ....    10
   Max. Number of Micro iterations      ....    24
   Max. Number of Macro iterations      .... Maxiter - #DIIS iter
   Number of Davidson start vectors     ....     2
   Converg. threshold    (grad. norm)   ....   1.000e-05
   Grad. Scal. Fac. for Micro threshold ....   0.100
   Minimum threshold for Micro iter.    ....   1.000e-02
   NR start threshold (gradient norm)   ....   1.000e-04
   Initial trust radius                 ....   0.400
   Minimum AH scaling param. (alpha)    ....   1.000
   Maximum AH scaling param. (alpha)    .... 1000.000
   Quad. conv. algorithm                .... NR
   White noise on init. David. guess    .... on
   Maximum white noise                  ....   0.010
   Pseudo random numbers                .... off
   Inactive MOs                         .... canonical
   Orbital update algorithm             .... Taylor
   Preconditioner                       .... Diag
   Full preconditioner red. dimension   ....   250
 SOSCF                  CNVSOSCF        .... on
   Start iteration      SOSCFMaxIt      ....   150
   Startup grad/error   SOSCFStart      ....  0.003300
   Hessian update       SOSCFHessUp     .... L-BFGS
 Level Shifting         CNVShift        .... on
   Level shift para.    LevelShift      ....    0.2500
   Turn off err/grad.   ShiftErr        ....    0.0010
 Zerner damping         CNVZerner       .... off
 Static damping         CNVDamp         .... on
   Fraction old density DampFac         ....    0.7000
   Max. Damping (<1)    DampMax         ....    0.9800
   Min. Damping (>=0)   DampMin         ....    0.0000
   Turn off err/grad.   DampErr         ....    0.1000

SCF Procedure:
 Maximum # iterations   MaxIter         ....   125
 SCF integral mode      SCFMode         .... Direct
   Integral package                     .... SHARK and LIBINT hybrid scheme
 Reset frequency        DirectResetFreq ....    20
 Integral Threshold     Thresh          ....  2.500e-11 Eh
 Primitive CutOff       TCut            ....  2.500e-12 Eh

Convergence Tolerance:
 Convergence Check Mode ConvCheckMode   .... Total+1el-Energy
 Convergence forced     ConvForced      .... 0
 Energy Change          TolE            ....  1.000e-08 Eh
 1-El. energy change                    ....  1.000e-05 Eh
 Orbital Gradient       TolG            ....  1.000e-05
 Orbital Rotation angle TolX            ....  1.000e-05
 DIIS Error             TolErr          ....  5.000e-07

------------------------------
INITIAL GUESS: MODEL POTENTIAL
------------------------------
Loading Hartree-Fock densities                     ... done
Calculating cut-offs                               ... done
Initializing the effective Hamiltonian             ... done
Setting up the integral package (SHARK)            ... done
Starting the Coulomb interaction                   ... done (   0.0 sec)
Making the grid                                    ... done (   0.0 sec)
Mapping shells                                     ... done
Starting the XC term evaluation                    ... done (   0.0 sec)
  promolecular density results
     # of electrons  =     47.996043348
     EX              =    -40.468864217
     EC              =     -1.633300134
     EX+EC           =    -42.102164352
Transforming the Hamiltonian                       ... done (   0.0 sec)
Diagonalizing the Hamiltonian                      ... done (   0.0 sec)
Back transforming the eigenvectors                 ... done (   0.0 sec)
Now organizing SCF variables                       ... done
                      ------------------
                      INITIAL GUESS DONE (   0.1 sec)
                      ------------------
             **** ENERGY FILE WAS UPDATED (00_Alanine_zwitterion.en.tmp) ****
Finished Guess after   0.5 sec
Maximum memory used throughout the entire GUESS-calculation: 9.3 MB
[ga00:3795821] 9 more processes have sent help message help-mpi-btl-openib.txt / error in device init
[ga00:3795821] Set MCA parameter "orte_base_help_aggregate" to 0 to see all help / error messages
--------------------------------------------------------------------------
WARNING: There was an error initializing an OpenFabrics device.

  Local host:   ga00
  Local device: mlx5_0
--------------------------------------------------------------------------


           ************************************************************
           *        Program running with 10 parallel MPI-processes    *
           *              working on a common directory               *
           ************************************************************

-------------------------------------------------------------------------------------------
                                      ORCA LEAN-SCF
                              memory conserving SCF solver
-------------------------------------------------------------------------------------------

--------------------
CPCM SOLVATION MODEL
--------------------
CPCM parameters:
  Epsilon                                         ...      80.1510
  Refrac                                          ...       1.3328
  Rsolv                                           ...       1.3000
  Surface type                                    ... GAUSSIAN VDW
  Discretization scheme                           ... Constant charge density
    Threshold for H atoms                         ...       5.0000 (charges/Ang^2)
    Threshold for non-H atoms                     ...       5.0000 (charges/Ang^2)
  Epsilon function type                           ...         CPCM
Solvent:                                          ... WATER
Radii:
  Scheme                                          ... Element-dependent radii
  Radius for C  used is    3.8550 Bohr (=   2.0400 Ang.)
  Radius for O  used is    3.4469 Bohr (=   1.8240 Ang.)
  Radius for N  used is    3.5149 Bohr (=   1.8600 Ang.)
  Radius for H  used is    2.4944 Bohr (=   1.3200 Ang.)
Calculating surface                               ...        done! (  0.0s)
Cavity surface points                             ...         1160
Cavity Volume                                     ...     763.0471
Cavity Surface-area                               ...     476.4772
Calculating surface distance matrix               ...        done! (  0.0s)
Performing Cholesky decomposition & store         ...        done! (  0.0s)
Overall time for CPCM initialization              ...                 0.1s

----------------------------------------D-I-I-S--------------------------------------------
Iteration    Energy (Eh)           Delta-E    RMSDP     MaxDP     DIISErr   Damp  Time(sec)
-------------------------------------------------------------------------------------------
               ***  Starting incremental Fock matrix formation  ***
    1    -323.0830936796388642     0.00e+00  6.57e-03  2.18e-01  3.05e-01  0.700   0.2
    2    -323.2019478718668779    -1.19e-01  4.58e-03  1.67e-01  1.34e-01  0.700   0.2
                               ***Turning on AO-DIIS***
    3    -323.2459038354592167    -4.40e-02  1.59e-03  4.28e-02  3.90e-02  0.700   0.1
    4    -323.2730110766621010    -2.71e-02  2.12e-03  2.73e-02  1.85e-02  0.000   0.1
    5    -323.3332752180384659    -6.03e-02  6.28e-04  2.38e-02  6.37e-03  0.000   0.2
                              *** Initializing SOSCF ***
---------------------------------------S-O-S-C-F--------------------------------------
Iteration    Energy (Eh)           Delta-E    RMSDP     MaxDP     MaxGrad    Time(sec)
--------------------------------------------------------------------------------------
    6    -323.3335333511409999    -2.58e-04  1.91e-04  6.41e-03  1.26e-03     0.1
               *** Restarting incremental Fock matrix formation ***
    7    -323.3335102263311001     2.31e-05  1.34e-04  4.16e-03  2.15e-04     0.2
    8    -323.3335116388524284    -1.41e-06  2.36e-05  4.79e-04  2.00e-04     0.2
    9    -323.3335121843841762    -5.46e-07  1.87e-05  4.07e-04  8.03e-05     0.2
   10    -323.3335121784920148     5.89e-09  7.66e-06  1.48e-04  8.43e-05     0.2
                 **** Energy Check signals convergence ****

               *****************************************************
               *                     SUCCESS                       *
               *           SCF CONVERGED AFTER  10 CYCLES          *
               *****************************************************

Recomputing exchange energy using gridx3       ... done (    0.237 sec)
Old exchange energy                            :     -8.222757268 Eh
New exchange energy                            :     -8.222720581 Eh
Exchange energy change after final integration :      0.000036687 Eh
Total energy after final integration           :   -323.333475492 Eh
             **** ENERGY FILE WAS UPDATED (00_Alanine_zwitterion.en.tmp) ****

----------------
TOTAL SCF ENERGY
----------------

Total Energy       :       -323.33347549156855 Eh           -8798.35117 eV

Components:
Nuclear Repulsion  :        238.66539472939698 Eh            6494.41556 eV
Electronic Energy  :       -561.89042289072358 Eh          -15289.81573 eV
One Electron Energy:       -914.51111653679504 Eh          -24885.11262 eV
Two Electron Energy:        352.62069364607140 Eh            9595.29689 eV
CPCM Dielectric    :         -0.10848401716532 Eh              -2.95200 eV

Virial components:
Potential Energy   :       -643.82481427179084 Eh          -17519.36386 eV
Kinetic Energy     :        320.49133878022229 Eh            8721.01270 eV
Virial Ratio       :          2.00886806090350

DFT components:
N(Alpha)           :       24.000001091727 electrons
N(Beta)            :       24.000001091727 electrons
N(Total)           :       48.000002183454 electrons
E(X)               :      -32.689502955858 Eh       
E(C)               :       -1.932742921015 Eh       
E(XC)              :      -34.622245876874 Eh       

CPCM Solvation Model Properties:
Surface-charge          :         -0.01008573870649
Corrected charge        :         -0.00000000000000
Outlying charge corr.   :          0.00000835447791 Eh               0.00023 eV
Free-energy (cav+disp)  :  This term is not implemented in the current solvation scheme

---------------
SCF CONVERGENCE
---------------

  Last Energy change         ...   -5.8922e-09  Tolerance :   1.0000e-08
  Last MAX-Density change    ...    1.4835e-04  Tolerance :   1.0000e-07
  Last RMS-Density change    ...    7.6604e-06  Tolerance :   5.0000e-09
  Last DIIS Error            ...    1.2626e-03  Tolerance :   5.0000e-07
  Last Orbital Gradient      ...    8.4258e-05  Tolerance :   1.0000e-05
  Last Orbital Rotation      ...    9.2838e-05  Tolerance :   1.0000e-05


----------------
ORBITAL ENERGIES
----------------

  NO   OCC          E(Eh)            E(eV) 
   0   2.0000     -19.043815      -518.2085 
   1   2.0000     -19.037804      -518.0450 
   2   2.0000     -14.438861      -392.9014 
   3   2.0000     -10.242264      -278.7062 
   4   2.0000     -10.232883      -278.4509 
   5   2.0000     -10.172022      -276.7948 
   6   2.0000      -0.983851       -26.7720 
   7   2.0000      -0.978887       -26.6369 
   8   2.0000      -0.890750       -24.2385 
   9   2.0000      -0.757372       -20.6092 
  10   2.0000      -0.642489       -17.4830 
  11   2.0000      -0.574552       -15.6343 
  12   2.0000      -0.568259       -15.4631 
  13   2.0000      -0.490156       -13.3378 
  14   2.0000      -0.459684       -12.5086 
  15   2.0000      -0.451211       -12.2781 
  16   2.0000      -0.402252       -10.9458 
  17   2.0000      -0.388638       -10.5754 
  18   2.0000      -0.379022       -10.3137 
  19   2.0000      -0.356101        -9.6900 
  20   2.0000      -0.331207        -9.0126 
  21   2.0000      -0.221630        -6.0309 
  22   2.0000      -0.214491        -5.8366 
  23   2.0000      -0.204249        -5.5579 
  24   0.0000       0.035042         0.9535 
  25   0.0000       0.075189         2.0460 
  26   0.0000       0.088811         2.4167 
  27   0.0000       0.100282         2.7288 
  28   0.0000       0.101807         2.7703 
  29   0.0000       0.135851         3.6967 
  30   0.0000       0.145811         3.9677 
  31   0.0000       0.175033         4.7629 
  32   0.0000       0.180869         4.9217 
  33   0.0000       0.227564         6.1923 
  34   0.0000       0.255710         6.9582 
*Only the first 10 virtual orbitals were printed.

                    ********************************
                    * MULLIKEN POPULATION ANALYSIS *
                    ********************************

-----------------------
MULLIKEN ATOMIC CHARGES
-----------------------
   0 C :   -0.050141
   1 C :    0.041927
   2 O :   -0.458818
   3 O :   -0.449045
   4 C :    0.098545
   5 N :    0.057054
   6 H :    0.017156
   7 H :    0.021207
   8 H :    0.045180
   9 H :    0.045913
  10 H :    0.210222
  11 H :    0.210050
  12 H :    0.210750
Sum of atomic charges:    0.0000000

--------------------------------
MULLIKEN REDUCED ORBITAL CHARGES
--------------------------------
  0 C s       :     3.009838  s :     3.009838
      pz      :     1.057715  p :     3.008250
      px      :     0.919432
      py      :     1.031103
      dz2     :     0.007163  d :     0.032053
      dxz     :     0.005691
      dyz     :     0.004966
      dx2y2   :     0.008452
      dxy     :     0.005781

  1 C s       :     3.056229  s :     3.056229
      pz      :     0.933083  p :     2.761597
      px      :     0.935821
      py      :     0.892693
      dz2     :     0.030850  d :     0.140247
      dxz     :     0.043847
      dyz     :     0.018838
      dx2y2   :     0.020378
      dxy     :     0.026333

  2 O s       :     3.729252  s :     3.729252
      pz      :     1.708174  p :     4.715611
      px      :     1.392671
      py      :     1.614767
      dz2     :     0.001726  d :     0.013955
      dxz     :     0.003837
      dyz     :     0.000453
      dx2y2   :     0.004504
      dxy     :     0.003436

  3 O s       :     3.737191  s :     3.737191
      pz      :     1.425971  p :     4.697958
      px      :     1.708876
      py      :     1.563111
      dz2     :     0.004792  d :     0.013896
      dxz     :     0.003469
      dyz     :     0.003709
      dx2y2   :     0.000780
      dxy     :     0.001145

  4 C s       :     2.998434  s :     2.998434
      pz      :     0.923856  p :     2.856468
      px      :     0.942403
      py      :     0.990209
      dz2     :     0.007927  d :     0.046553
      dxz     :     0.011491
      dyz     :     0.008941
      dx2y2   :     0.007935
      dxy     :     0.010260

  5 N s       :     3.289048  s :     3.289048
      pz      :     1.211866  p :     3.635607
      px      :     1.212699
      py      :     1.211043
      dz2     :     0.005358  d :     0.018290
      dxz     :     0.002287
      dyz     :     0.003117
      dx2y2   :     0.005863
      dxy     :     0.001665

  6 H s       :     0.959646  s :     0.959646
      pz      :     0.012217  p :     0.023198
      px      :     0.004086
      py      :     0.006895

  7 H s       :     0.955441  s :     0.955441
      pz      :     0.004992  p :     0.023352
      px      :     0.005367
      py      :     0.012992

  8 H s       :     0.932645  s :     0.932645
      pz      :     0.012446  p :     0.022175
      px      :     0.003375
      py      :     0.006354

  9 H s       :     0.931923  s :     0.931923
      pz      :     0.003896  p :     0.022164
      px      :     0.004515
      py      :     0.013753

 10 H s       :     0.745136  s :     0.745136
      pz      :     0.008238  p :     0.044642
      px      :     0.009668
      py      :     0.026736

 11 H s       :     0.745301  s :     0.745301
      pz      :     0.024288  p :     0.044649
      px      :     0.008133
      py      :     0.012228

 12 H s       :     0.744772  s :     0.744772
      pz      :     0.009918  p :     0.044479
      px      :     0.026373
      py      :     0.008187



                     *******************************
                     * LOEWDIN POPULATION ANALYSIS *
                     *******************************

----------------------
LOEWDIN ATOMIC CHARGES
----------------------
   0 C :   -0.093441
   1 C :   -0.041321
   2 O :   -0.415435
   3 O :   -0.406615
   4 C :    0.067019
   5 N :    0.311082
   6 H :    0.030174
   7 H :    0.032061
   8 H :    0.037695
   9 H :    0.038237
  10 H :    0.146107
  11 H :    0.145837
  12 H :    0.148600

-------------------------------
LOEWDIN REDUCED ORBITAL CHARGES
-------------------------------
  0 C s       :     2.860357  s :     2.860357
      pz      :     1.071659  p :     3.149168
      px      :     1.004926
      py      :     1.072583
      dz2     :     0.017856  d :     0.083916
      dxz     :     0.015793
      dyz     :     0.013064
      dx2y2   :     0.023031
      dxy     :     0.014172

  1 C s       :     2.858082  s :     2.858082
      pz      :     0.979118  p :     2.858088
      px      :     1.003049
      py      :     0.875920
      dz2     :     0.068002  d :     0.325151
      dxz     :     0.111901
      dyz     :     0.040539
      dx2y2   :     0.046909
      dxy     :     0.057801

  2 O s       :     3.569062  s :     3.569062
      pz      :     1.721645  p :     4.821465
      px      :     1.489355
      py      :     1.610464
      dz2     :     0.003238  d :     0.024908
      dxz     :     0.006854
      dyz     :     0.000632
      dx2y2   :     0.009421
      dxy     :     0.004762

  3 O s       :     3.572054  s :     3.572054
      pz      :     1.504842  p :     4.809672
      px      :     1.736539
      py      :     1.568290
      dz2     :     0.008564  d :     0.024889
      dxz     :     0.006647
      dyz     :     0.006632
      dx2y2   :     0.001231
      dxy     :     0.001815

  4 C s       :     2.843262  s :     2.843262
      pz      :     0.969267  p :     2.984223
      px      :     0.983845
      py      :     1.031111
      dz2     :     0.018299  d :     0.105496
      dxz     :     0.025167
      dyz     :     0.020440
      dx2y2   :     0.020020
      dxy     :     0.021570

  5 N s       :     2.994874  s :     2.994874
      pz      :     1.217343  p :     3.648202
      px      :     1.214182
      py      :     1.216676
      dz2     :     0.012424  d :     0.045842
      dxz     :     0.006361
      dyz     :     0.008097
      dx2y2   :     0.014513
      dxy     :     0.004446

  6 H s       :     0.900470  s :     0.900470
      pz      :     0.037221  p :     0.069356
      px      :     0.012705
      py      :     0.019430

  7 H s       :     0.898548  s :     0.898548
      pz      :     0.015374  p :     0.069391
      px      :     0.016637
      py      :     0.037381

  8 H s       :     0.894128  s :     0.894128
      pz      :     0.037796  p :     0.068177
      px      :     0.012162
      py      :     0.018219

  9 H s       :     0.893775  s :     0.893775
      pz      :     0.011795  p :     0.067988
      px      :     0.015455
      py      :     0.040738

 10 H s       :     0.742529  s :     0.742529
      pz      :     0.019839  p :     0.111363
      px      :     0.022672
      py      :     0.068852

 11 H s       :     0.742791  s :     0.742791
      pz      :     0.064146  p :     0.111373
      px      :     0.018716
      py      :     0.028511

 12 H s       :     0.739707  s :     0.739707
      pz      :     0.024028  p :     0.111693
      px      :     0.069005
      py      :     0.018660



                      *****************************
                      * MAYER POPULATION ANALYSIS *
                      *****************************

  NA   - Mulliken gross atomic population
  ZA   - Total nuclear charge
  QA   - Mulliken gross atomic charge
  VA   - Mayer's total valence
  BVA  - Mayer's bonded valence
  FA   - Mayer's free valence

  ATOM       NA         ZA         QA         VA         BVA        FA
  0 C      6.0501     6.0000    -0.0501     3.8217     3.8217     0.0000
  1 C      5.9581     6.0000     0.0419     4.6306     4.6306    -0.0000
  2 O      8.4588     8.0000    -0.4588     2.0077     2.0077     0.0000
  3 O      8.4490     8.0000    -0.4490     2.0198     2.0198     0.0000
  4 C      5.9015     6.0000     0.0985     3.9837     3.9837     0.0000
  5 N      6.9429     7.0000     0.0571     3.7652     3.7652    -0.0000
  6 H      0.9828     1.0000     0.0172     1.0035     1.0035     0.0000
  7 H      0.9788     1.0000     0.0212     1.0003     1.0003     0.0000
  8 H      0.9548     1.0000     0.0452     1.0022     1.0022     0.0000
  9 H      0.9541     1.0000     0.0459     0.9998     0.9998    -0.0000
 10 H      0.7898     1.0000     0.2102     0.9654     0.9654     0.0000
 11 H      0.7900     1.0000     0.2100     0.9658     0.9658     0.0000
 12 H      0.7893     1.0000     0.2107     0.9625     0.9625    -0.0000

  Mayer bond orders larger than 0.100000
B(  0-C ,  1-C ) :   0.9089 B(  0-C ,  4-C ) :   1.0644 B(  0-C ,  6-H ) :   0.9350 
B(  0-C ,  7-H ) :   0.9334 B(  1-C ,  2-O ) :   1.8531 B(  1-C ,  3-O ) :   1.8284 
B(  2-O ,  3-O ) :   0.1192 B(  4-C ,  5-N ) :   0.9484 B(  4-C ,  8-H ) :   0.9448 
B(  4-C ,  9-H ) :   0.9471 B(  5-N , 10-H ) :   0.9352 B(  5-N , 11-H ) :   0.9352 
B(  5-N , 12-H ) :   0.9308 

-------------------------
CHELPG CHARGES GENERATION
-------------------------
Grid spacing                       ...     0.300000
Point Cut-Off                      ...     2.800000
Van-der-Waals Radii                ...        COSMO
Total charge                       ...            0
Dipole moment constraint           ...        FALSE


Number of points X direction       ...           36
Number of points Y direction       ...           28
Number of points Z direction       ...           30
Maximum number of possible points  ...        30240
Final number of points             ...         9417


Grid generated                     ...   0.0 sec
Potential calculated               ...   0.1 sec
RespFile stored                    ... ok
Charges calculated                 ...   0.0 sec
CHELPG Charges            
--------------------------------
  0   C   :      -0.277438
  1   C   :       0.744468
  2   O   :      -0.784054
  3   O   :      -0.787205
  4   C   :       0.288386
  5   N   :      -0.413173
  6   H   :       0.067135
  7   H   :       0.070100
  8   H   :       0.022637
  9   H   :       0.022062
 10   H   :       0.349706
 11   H   :       0.350265
 12   H   :       0.347110
--------------------------------
Total charge:     0.000000
--------------------------------

CHELPG charges calculated...

Timings:
Grid generation                 ...        0.001 sec (=   0.000 min)
Potential calculation           ...        0.055 sec (=   0.001 min)
Fit to the potential            ...        0.002 sec (=   0.000 min)
------------------------------------------------------------------------------

-------
TIMINGS
-------

Total SCF time: 0 days 0 hours 0 min 2 sec 

Total time                  ....       2.421 sec
Sum of individual times     ....       2.412 sec  ( 99.6%)

SCF preparation             ....       0.422 sec  ( 17.4%)
Fock matrix formation       ....       1.840 sec  ( 76.0%)
  Startup                   ....       0.004 sec  (  0.2% of F)
  Split-RI-J                ....       0.127 sec  (  6.9% of F)
  Chain of spheres X        ....       1.104 sec  ( 60.0% of F)
  XC integration            ....       0.318 sec  ( 17.3% of F)
    XC Preparation          ....       0.000 sec  (  0.0% of XC)
    Basis function eval.    ....       0.114 sec  ( 35.7% of XC)
    Density eval.           ....       0.050 sec  ( 15.8% of XC)
    XC-Functional eval.     ....       0.033 sec  ( 10.4% of XC)
    XC-Potential eval.      ....       0.079 sec  ( 24.8% of XC)
  CPCM terms                ....       0.269 sec  ( 14.6% of F)
Diagonalization             ....       0.000 sec  (  0.0%)
Density matrix formation    ....       0.008 sec  (  0.3%)
Total Energy calculation    ....       0.008 sec  (  0.3%)
Population analysis         ....       0.075 sec  (  3.1%)
Orbital Transformation      ....       0.007 sec  (  0.3%)
Orbital Orthonormalization  ....       0.000 sec  (  0.0%)
DIIS solution               ....       0.038 sec  (  1.6%)
SOSCF solution              ....       0.014 sec  (  0.6%)
Finished LeanSCF after   2.4 sec

Maximum memory used throughout the entire LEANSCF-calculation: 12.3 MB
[ga00:3795871] 9 more processes have sent help message help-mpi-btl-openib.txt / error in device init
[ga00:3795871] Set MCA parameter "orte_base_help_aggregate" to 0 to see all help / error messages

-------------------------   --------------------
FINAL SINGLE POINT ENERGY      -323.333475491569
-------------------------   --------------------

--------------------------------------------------------------------------
WARNING: There was an error initializing an OpenFabrics device.

  Local host:   ga00
  Local device: mlx5_0
--------------------------------------------------------------------------


           ************************************************************
           *        Program running with 10 parallel MPI-processes    *
           *              working on a common directory               *
           ************************************************************

------------------------------------------------------------------------------
                              ORCA PROPERTY CALCULATIONS
------------------------------------------------------------------------------

GBWName                                 ... 00_Alanine_zwitterion.gbw
Number of atoms                         ...     13
Number of basis functions               ...    119
Max core memory                         ...   5000 MB

Electric properties:
Dipole moment                           ... YES
Quadrupole moment                       ...  NO
Static polarizability (Dipole/Dipole)   ...  NO
Static polarizability (Dipole/Quad.)    ...  NO
Static polarizability (Quad./Quad.)     ...  NO
Static polarizability (Velocity)        ...  NO

Atomic electric properties:
Dipole moment                           ...  NO
Quadrupole moment                       ...  NO
Static polarizability                   ...  NO

Choice of electric origin               ... Center of mass
Position of electric origin             ...    -0.392484     0.982912    -1.642473

General magnetic properties:
Magnetizability                         ...  NO

EPR properties:
g-Tensor (aka g-matrix)                 ...  NO
Zero-Field splitting spin-orbit         ...  NO
Zero-field splitting spin-spin          ...  NO
Hyperfine couplings                     ...  NO (   0 nuclei)
Quadrupole couplings                    ...  NO (   0 nuclei)
Contact density                         ...  NO (   0 nuclei)

NMR properties:
Chemical shifts                         ...  NO (   0 nuclei)
Spin-rotation constants                 ...  NO (   0 nuclei)
Spin-spin couplings                     ...  NO (   0 nuclei,    0 pairs)

Choice of magnetic origin               ... GIAO
Position of magnetic origin             ...     0.000000     0.000000     0.000000

Properties with geometric perturbations:
SCF Hessian                             ...  NO
IR spectrum                             ...  NO
VCD spectrum                            ...  NO
X-ray spectroscopy properties:
SCF XES/XAS/RIXS spectra                ...  NO


-------------
DIPOLE MOMENT
-------------

Method             : SCF
Type of density    : Electron Density
Multiplicity       :   1
Irrep              :   0
Energy             :  -323.3334754915685494 Eh
Relativity type    : 
Basis              : AO
                                X                 Y                 Z
Electronic contribution:     -2.775989140       1.454795834       1.546395144
Nuclear contribution   :      9.416102353      -4.698523964      -4.876220964
                        -----------------------------------------
Total Dipole Moment    :      6.640113213      -3.243728130      -3.329825819
                        -----------------------------------------
Magnitude (a.u.)       :      8.105591629
Magnitude (Debye)      :     20.602776590



--------------------
Rotational spectrum 
--------------------
 
Rotational constants in cm-1:             0.307125             0.061321             0.052557 
Rotational constants in MHz :          9207.380268          1838.346909          1575.608975 

Dipole components along the rotational axes: 
x,y,z [a.u.] :     8.061769    -0.841627    -0.012617 
x,y,z [Debye]:    20.491388    -2.139246    -0.032069 

 

Dipole moment calculation done in   0.0 sec 

Maximum memory used throughout the entire PROP-calculation: 5.9 MB
[ga00:3795959] 9 more processes have sent help message help-mpi-btl-openib.txt / error in device init
[ga00:3795959] Set MCA parameter "orte_base_help_aggregate" to 0 to see all help / error messages
--------------------------------------------------------------------------
WARNING: There was an error initializing an OpenFabrics device.

  Local host:   ga00
  Local device: mlx5_0
--------------------------------------------------------------------------
[ga00:3796009] 9 more processes have sent help message help-mpi-btl-openib.txt / error in device init
[ga00:3796009] Set MCA parameter "orte_base_help_aggregate" to 0 to see all help / error messages

--------------------------------
SUGGESTED CITATIONS FOR THIS RUN
--------------------------------

Below you find a list of papers that are relevant to this ORCA run
We neither can nor want to force you to cite these papers, but we appreciate if you do
You receive ORCA, which is the product of decades of hard work by many enthusiastic individuals, for free
The only thing we kindly ask in return is that you cite our papers,
We deeply appreciate it, if you show your appreciation for ORCA by not just citing the generic ORCA reference.

Please note that relegating all ORCA citations to the supporting information does *not* help us.
SI sections are not indexed - citations you put there will not count into any citation statistics
But we need these citations in order to attract the funding resources that allow us to do what we are doing

Therefore, if you are a happy ORCA user, please consider citing a few of the papers listed below in the main body of your paper

In addition to the list printed below, the program has created the file 00_Alanine_zwitterion.bibtex that contains the list in bibtex format
You can import this file easily into all common literature databanks and citation aid programs


List of essential papers. We consider these as the minimum necessary citations

  1. Neese,F.
     Software update: the ORCA program system, version 5.0
     WIRES Comput. Molec. Sci., 2022 12(1)e1606
     doi.org/10.1002/wcms.1606

List of papers to cite with high priority. The work reported in these papers was absolutely
necessary for this run to complete.
Our perspective: the developers of density functionals and basis sets usually get cited in chemistry papers
Good! But without the algorithms to do something with them, the functionals or basis sets would not do anything.
Hence, in our opinion, the algorithm design and method developments papers are equally worthy of getting cited

  1. Neese,F.
     An improvement of the resolution of the identity approximation for the formation of the Coulomb matrix
     J. Comp. Chem., 2003 24(14)1740-1747
     doi.org/10.1002/jcc.10318
  2. Neese,F.; Wennmohs,F.; Hansen,A.; Becker,U.
     Efficient, approximate and parallel Hartree-Fock and hybrid DFT calculations. A 'chain-of-spheres' algorithm for the Hartree-Fock exchange
     Chem. Phys., 2009 356(1-3)98-109
     doi.org/10.1016/j.chemphys.2008.10.036
  3. Garcia-Rates,M.; Neese,F.
     Effect of the Solute Cavity on the Solvation Energy and its Derivatives within the Framework of the Gaussian Charge Scheme
     J. Comput. Chem., 2020 41 922-939
     doi.org/10.1002/jcc.26139
  4. Helmich-Paris,B.; de Souza,B.; Neese,F.; Izsák,R.
     An improved chain of spheres for exchange algorithm
     J. Chem. Phys., 2021 155 104109
     doi.org/doi: 10.1063/5.0058766.
  5. Neese,F.
     The SHARK Integral Generation and Digestion System
     J. Comp. Chem., 2022  1-16
     doi.org/10.1002/jcc.26942

List of suggested additional citations. These are papers that are important in the 'surrounding' of 
of this run, or papers that preceded the highly important papers. If you like your results we are grateful for a citation.

  1. Izsak,R.; Neese,F.
     An overlap fitted chain of spheres exchange method
     J. Chem. Phys., 2011 135 144105
     doi.org/10.1063/1.3646921
  2. Izsak,R.; Hansen,A.; Neese,F.
     The resolution of identity and chain of spheres approximations for the LPNO-CCSD singles Fock term
     Molec. Phys., 2012 110 2413-2417
     doi.org/10.1080/00268976.2012.687466
  3. Neese,F.
     The ORCA program system
     WIRES Comput. Molec. Sci., 2012 2(1)73-78
     doi.org/10.1002/wcms.81
  4. Izsak,R.; Neese,F.; Klopper,W.
     Robust fitting techniques in the chain of spheres approximation to the Fock exchange: The role of the complementary space
     J. Chem. Phys., 2013 139 
     doi.org/10.1063/1.4819264
  5. Neese,F.
     Software update: the ORCA program system, version 4.0
     WIRES Comput. Molec. Sci., 2018 8(1)1-6
     doi.org/10.1002/wcms.1327
  6. Neese,F.; Wennmohs,F.; Becker,U.; Riplinger,C.
     The ORCA quantum chemistry program package
     J. Chem. Phys., 2020 152 Art. No. L224108
     doi.org/10.1063/5.0004608

List of optional additional citations

  1. Neese,F.
     Approximate second-order SCF convergence for spin unrestricted wavefunctions
     Chem. Phys. Lett., 2000 325(1-3)93-98
     doi.org/10.1016/s0009-2614(00)00662-x

Timings for individual modules:

Sum of individual times          ...        4.836 sec (=   0.081 min)
Startup calculation              ...        0.952 sec (=   0.016 min)  19.7 %
SCF iterations                   ...        3.336 sec (=   0.056 min)  69.0 %
Property calculations            ...        0.547 sec (=   0.009 min)  11.3 %
                             ****ORCA TERMINATED NORMALLY****
TOTAL RUN TIME: 0 days 0 hours 0 minutes 5 seconds 367 msec
