34
 energy: -56.585298899250 gnorm: 0.182891230798 xtb: 6.7.1 (edcfbbe)
H            1.51131700000000       -0.30682800000000       -0.55501400000000
C            0.42356400000000       -0.53272100000000       -0.60971700000000
H            0.15351800000000        0.48284000000000       -2.37712700000000
H            0.30622500000000       -1.51992900000000       -1.10801900000000
N           -0.26687200000000        0.47309100000000       -1.42055200000000
H            0.31243500000000       -1.51306200000000        1.31258500000000
C           -0.16516600000000       -0.64664900000000        0.80679900000000
O            0.75046400000000        1.63132300000000        1.24106600000000
C            0.05694300000000        0.56251400000000        1.67849900000000
H           -0.17036900000000        1.42768900000000       -1.01141000000000
O           -0.37805100000000        0.56237000000000        2.81853100000000
H           -1.27994500000000        0.22829700000000       -1.50380900000000
H           -1.25406300000000       -0.84893600000000        0.72816900000000
O           -2.36588900000000       -3.77122900000000        0.33064900000000
H           -3.09548900000000       -3.28089400000000        0.78657200000000
H           -2.20031100000000       -4.56038800000000        0.90547500000000
O            0.78154100000000       -5.30241700000000       -2.12828200000000
H           -0.16615300000000       -5.08624400000000       -1.93919000000000
H            1.09286800000000       -4.56457200000000       -2.71075400000000
O           -2.20613100000000       -3.80806700000000        2.96743900000000
H           -2.39979700000000       -3.09708000000000        3.62895400000000
H           -1.22689600000000       -3.94267000000000        3.02739800000000
O            2.46326200000000       -3.98948900000000        1.30803500000000
H            2.70303200000000       -3.06108500000000        1.55539500000000
H            2.85944100000000       -4.11703100000000        0.40948800000000
O            0.62201900000000       -4.38786100000000        0.11579200000000
H            0.93032100000000       -3.75103000000000       -0.57703300000000
H            0.30464800000000       -3.81332500000000        0.85727500000000
O           -3.37474600000000       -3.15271000000000       -2.02359700000000
H           -3.18213100000000       -2.25842200000000       -2.40275300000000
H           -2.48274300000000       -3.55401700000000       -1.86901300000000
O           -0.25444400000000       -2.73634800000000       -4.56356400000000
H            0.52626300000000       -2.47032400000000       -5.11159600000000
H           -0.81409400000000       -3.27777100000000       -5.17533700000000
34
 energy: -56.617335225801 gnorm: 0.090969848300 xtb: 6.7.1 (edcfbbe)
H            1.49451671517886       -0.30041353323776       -0.55054517287042
C            0.42727683522316       -0.54696129659113       -0.61655719683267
H            0.14502829060776        0.49794271271811       -2.37000385803453
H            0.30764761241427       -1.51922268459076       -1.11110036601433
N           -0.26263452138109        0.47219825391648       -1.42194879669681
H            0.30107281444930       -1.49603951965915        1.31058142931128
C           -0.15586872284983       -0.64358255282807        0.79285624685599
O            0.71377470346577        1.58663082356283        1.19787348121885
C            0.07198125705494        0.57045197183990        1.68342554685665
H           -0.15913403811767        1.40646526323528       -0.98826683402743
O           -0.38388248721870        0.56742771716374        2.83458168579456
H           -1.26656086872091        0.24238063030197       -1.49579524256357
H           -1.23446114659317       -0.84378434572874        0.74439541869393
O           -2.35536644339821       -3.76826462479761        0.33166567054417
H           -3.08125078159929       -3.29728077286780        0.77142704777274
H           -2.20184629766315       -4.54670133516946        0.89060393375198
O            0.77454269820606       -5.33278175873017       -2.21746788946742
H           -0.13608746972359       -5.10767886136020       -1.94570133449510
H            1.07728477887956       -4.56509864202517       -2.73394139844916
O           -2.19890397127745       -3.80670052671120        3.00151745366419
H           -2.39307710642416       -3.10172444904203        3.63853327404841
H           -1.23822226831608       -3.93948001299409        3.04750553209287
O            2.58070415949372       -3.97449235707356        1.37118911302233
H            2.75675170922812       -3.03792727208600        1.56228445016139
H            2.88337208272125       -4.11446915874800        0.45228035450838
O            0.48923651395713       -4.37473068844677        0.08880568787530
H            0.90677366631760       -3.75907770098484       -0.54952739360130
H            0.26979293496736       -3.81217708668025        0.85271063292255
O           -3.38102890745159       -3.15110577773394       -2.07360430795618
H           -3.17913139006168       -2.26287027123803       -2.41024413429635
H           -2.51475008463577       -3.53872736802723       -1.84681291467885
O           -0.24572492227199       -2.74692826794023       -4.56929096041972
H            0.51092617876160       -2.47258803202791       -5.11305273761239
H           -0.80818052322221       -3.26566347541827       -5.16702242107927
34
 energy: -56.628384953247 gnorm: 0.032734406738 xtb: 6.7.1 (edcfbbe)
H            1.48257045262348       -0.29471994740691       -0.54441454416685
C            0.42993396620339       -0.56039802303045       -0.61729809412374
H            0.13962497964989        0.52346769016451       -2.35842265760509
H            0.30855924711209       -1.51895335835103       -1.11627310849284
N           -0.25767389918095        0.47587771945518       -1.41579179763721
H            0.29368890048162       -1.48573220221649        1.31824221495218
C           -0.15867304070001       -0.65307019101029        0.78150275315240
O            0.69910551417703        1.54073889731309        1.15324763030808
C            0.05176308481790        0.60138670442743        1.65628585022140
H           -0.13937585411635        1.38546884026260       -0.94331833818547
O           -0.36734347518720        0.55829724461572        2.83357369377754
H           -1.25704426673123        0.26392646832754       -1.47990736208279
H           -1.22944570177826       -0.85238678228440        0.75381642174755
O           -2.34396248094461       -3.75684817056202        0.32130585015813
H           -3.07321820759434       -3.30916943777881        0.75213226691186
H           -2.19012718321107       -4.53392790174072        0.86007192628995
O            0.79068269274304       -5.34988457894013       -2.29767383072164
H           -0.09783060134160       -5.16069198095307       -1.96187122241533
H            1.05105050425463       -4.56961655064863       -2.79484420630880
O           -2.19074668193574       -3.80057787467126        3.04246527435084
H           -2.39201988457528       -3.10595057394765        3.66800691025368
H           -1.24547010933108       -3.94714719465535        3.08961964995349
O            2.62083975404565       -3.94165860268072        1.39852000821491
H            2.81694885401870       -3.02313703399187        1.57198581971061
H            2.92176030048532       -4.13644193895974        0.50568855328842
O            0.44346571517810       -4.34788653803848        0.09965056690911
H            0.86556189085414       -3.75296200591827       -0.52513530133530
H            0.23556099111170       -3.81139078492235        0.86316117468413
O           -3.40275600155306       -3.14713741240628       -2.13950381112310
H           -3.17849418903511       -2.26230630041186       -2.43621815257317
H           -2.56823202553521       -3.52517995863564       -1.80084461039024
O           -0.23543088520777       -2.75354145764317       -4.57377259511241
H            0.50066292049015       -2.47318878410678       -5.12060496921054
H           -0.80936428028820       -3.25823297865388       -5.15202796339958
34
 energy: -56.634221270995 gnorm: 0.047531071504 xtb: 6.7.1 (edcfbbe)
H            1.47833836262846       -0.30825923873727       -0.53804241174320
C            0.42808093418874       -0.57787564912567       -0.61377648563877
H            0.13817328613911        0.55321644344419       -2.33910009770900
H            0.30294602397877       -1.52595884155513       -1.12960044530652
N           -0.25230665537933        0.48322842978629       -1.39581512240922
H            0.29586956821888       -1.50268966582182        1.32611208211402
C           -0.15730587547886       -0.67747087579057        0.78391356202635
O            0.62067864532302        1.56708818155029        1.06295106061932
C            0.10522960148594        0.59410516418715        1.64997437488132
H           -0.11094302473412        1.37130628588079       -0.88512713508830
O           -0.36691391808213        0.57658593017575        2.80929740476699
H           -1.25519087264017        0.29170366634933       -1.45401257463549
H           -1.23070529140556       -0.86081587786354        0.76997995021021
O           -2.33081984097729       -3.73245171520260        0.30221041426076
H           -3.08004038825553       -3.31565454245269        0.73161814073285
H           -2.16800922960646       -4.52459800171952        0.81699070097629
O            0.81543815519818       -5.37586823173869       -2.39328753713284
H           -0.05083592306217       -5.22380754747582       -1.96033748443646
H            1.01784075812738       -4.55688335207635       -2.86512155569165
O           -2.18603015523463       -3.79420199670740        3.08002928992921
H           -2.39638973469082       -3.10495367161011        3.70765956474521
H           -1.24585546842704       -3.96200639945275        3.14402139022051
O            2.64606005901851       -3.91127263427153        1.43107010782852
H            2.88327121380994       -2.99458458977827        1.56919594935754
H            2.94895027583470       -4.17533931584854        0.55508662601418
O            0.37930687842944       -4.32942694495138        0.10012591380612
H            0.86449652942861       -3.74765538413391       -0.49871716865080
H            0.21352678882712       -3.80556681353911        0.88637907924535
O           -3.43674849850324       -3.14654597843492       -2.21126169415117
H           -3.17568162446956       -2.25456828043733       -2.46392325442180
H           -2.63833258328365       -3.51830404135505       -1.74413111045114
O           -0.21116567921306       -2.77561777124705       -4.56713743658828
H            0.49352634125249       -2.46660407711351       -5.14245860044469
H           -0.82388765844612       -3.25122766293363       -5.13341149723514
34
 energy: -56.638920904216 gnorm: 0.046503414323 xtb: 6.7.1 (edcfbbe)
H            1.47428729893056       -0.33052030365774       -0.53173821885460
C            0.42228576987713       -0.59916160665063       -0.61192113785082
H            0.13792604380542        0.58974451302761       -2.31399400398054
H            0.29537639431651       -1.53839007322167       -1.14821303189893
N           -0.24790423074285        0.49191768534349       -1.36933551868620
H            0.30698728436737       -1.50420542366668        1.34488751983526
C           -0.16308338405600       -0.69780670490142        0.78615951297452
O            0.57076923308717        1.58647388644808        0.97727420152870
C            0.08178607728682        0.62189902692628        1.61290778992952
H           -0.07715691586041        1.35508229076193       -0.81134035699016
O           -0.31698340875319        0.58514054080612        2.79796997039510
H           -1.25707621650240        0.32435362432817       -1.42335491073649
H           -1.23519898260593       -0.88587365865870        0.77880088986540
O           -2.32662573182894       -3.69887308744410        0.27773669615019
H           -3.09685243033818       -3.31967916902263        0.71737708716366
H           -2.13862726739970       -4.50930321673782        0.76527817210724
O            0.84593860240986       -5.39105442012226       -2.45997494413079
H           -0.00460691920312       -5.28957311407861       -1.99196709802049
H            0.99152909485206       -4.56507163025873       -2.94480837271169
O           -2.18152962266963       -3.78060479891290        3.10741383758338
H           -2.40597700639047       -3.10532421580821        3.75167429599269
H           -1.24534036735507       -3.98056775892064        3.20936279090591
O            2.66940463554849       -3.87457003245863        1.47337914876408
H            2.96709678359723       -2.95743442225597        1.56360980813274
H            2.97502061032810       -4.21909976796839        0.61446423962469
O            0.30150370468015       -4.31555550522118        0.08944871928426
H            0.86756482863084       -3.74955059824139       -0.47813710577742
H            0.19391514635115       -3.80133631444814        0.90618625086159
O           -3.46588390452592       -3.12117328041089       -2.18702133525824
H           -3.19458421200641       -2.25909555205312       -2.49817790386987
H           -2.70894659709773       -3.53396215464048       -1.77980708729854
O           -0.17507518053076       -2.80254073807163       -4.55568613440943
H            0.49099337806481       -2.46012088918128       -5.17114784676537
H           -0.83636150826770       -3.24713813062853       -5.10595192385865
34
 energy: -56.641279961251 gnorm: 0.068804167157 xtb: 6.7.1 (edcfbbe)
H            1.47709137698614       -0.36668875848867       -0.53699051774264
C            0.41846317247317       -0.62083547478646       -0.61796618152718
H            0.14192068960789        0.62132854899831       -2.29198019920039
H            0.28316307828552       -1.55427449917313       -1.16956445414503
N           -0.24080018117194        0.49753985474222       -1.34663238451241
H            0.32263912230583       -1.49697676097010        1.36037476860767
C           -0.16369283276874       -0.70820321970113        0.78373368846587
O            0.52961722746826        1.60685208096233        0.92391983970250
C            0.02696455257003        0.65470499958700        1.57112862229659
H           -0.03907250391834        1.33622482676064       -0.74222939002901
O           -0.26351912449844        0.59164059666207        2.78917040350529
H           -1.25652298617958        0.35265399107841       -1.39676323854386
H           -1.23292648771419       -0.91186650137922        0.77468835859487
O           -2.36021444922664       -3.67981453460393        0.23364017440220
H           -3.11447628973175       -3.31440166528564        0.71499295353104
H           -2.10658084090134       -4.48180643840741        0.71857191461129
O            0.87013854482224       -5.38954924673268       -2.49177749366964
H            0.03530327383692       -5.32444931328023       -2.02840203917347
H            0.97013929835968       -4.58224598372329       -3.01403279012689
O           -2.17652815089888       -3.77138838459076        3.12191121299109
H           -2.41405945184783       -3.11761784405179        3.79367681484919
H           -1.24471431244368       -4.00325928842842        3.27041068206457
O            2.71005028310403       -3.84810732037790        1.51214382710117
H            3.04677559850311       -2.93705027396673        1.58527031017668
H            3.01116264458990       -4.21365979239935        0.66357505884707
O            0.28916057113257       -4.31758186555049        0.08332143611373
H            0.82488831111011       -3.75794914072503       -0.48307121422178
H            0.16456426602818       -3.82648431795611        0.90433710980306
O           -3.51075603030116       -3.13510179263371       -2.29536924317640
H           -3.18070707958072       -2.24404073962590       -2.51294762797676
H           -2.79838832084471       -3.51393391656340       -1.66375781735962
O           -0.16584191146845       -2.80093889842636       -4.55628440432568
H            0.49448748779601       -2.46690960915485       -5.18020947071535
H           -0.83315754548382       -3.25878431780907       -5.08553470921714
34
 energy: -56.645188033248 gnorm: 0.046930989217 xtb: 6.7.1 (edcfbbe)
H            1.48197201603014       -0.40007311907989       -0.55090465462542
C            0.41818745550164       -0.63103296914794       -0.62449401630554
H            0.14543809823575        0.63785145917998       -2.27786704669120
H            0.26348178184211       -1.56014912367535       -1.17703657280515
N           -0.23342293585126        0.50096557011215       -1.33490320955244
H            0.32726114965787       -1.49198422352840        1.36216000902186
C           -0.15404583482326       -0.70621962685716        0.78125414868623
O            0.47148120831536        1.63076208231250        0.91434148582418
C            0.03892142186886        0.64726058583736        1.57342659539836
H           -0.01286990234157        1.32317870659351       -0.70381853883541
O           -0.27229439084572        0.60943338018810        2.77448114789443
H           -1.25014210951132        0.36974260590406       -1.38002278591063
H           -1.22280631567001       -0.91379773607989        0.77374647157687
O           -2.39505290435974       -3.67034569112412        0.20483216058304
H           -3.12204881983988       -3.30456741946815        0.71971101209549
H           -2.09532055454789       -4.45331060333738        0.69418958646791
O            0.89513208731284       -5.39447631568409       -2.52794222012780
H            0.07574920062818       -5.35200059720432       -2.01474876107953
H            0.93867136278803       -4.58693184293061       -3.06851355769326
O           -2.17273103150643       -3.76759949013047        3.13420173148404
H           -2.41837747127102       -3.12698707564727        3.81497458364363
H           -1.24792683126467       -4.00259179351228        3.30213900357924
O            2.72538678969350       -3.83512789974501        1.52115427396146
H            3.08233469089130       -2.94793801615610        1.62512195628500
H            3.04994422284618       -4.17759381732118        0.69286847816781
O            0.30590524292488       -4.32431996118006        0.07420602348973
H            0.80018816858391       -3.76784497724180       -0.49631513158420
H            0.14447978409391       -3.85076378630204        0.88220545778313
O           -3.53150285205012       -3.11654873913475       -2.24144069371627
H           -3.21778237799986       -2.25944141366189       -2.53914649319783
H           -2.82971017650169       -3.51414757228911       -1.70874086571798
O           -0.16471446675903       -2.79153981370164       -4.56068732131945
H            0.50393255839423       -2.48077363805418       -5.17249333681139
H           -0.81314726446591       -3.27406212793334       -5.07458491996818
34
 energy: -56.647538511872 gnorm: 0.058671217396 xtb: 6.7.1 (edcfbbe)
H            1.48732470134193       -0.43680376006797       -0.57177657819491
C            0.41773337446216       -0.63684927033284       -0.63031273616589
H            0.15503352429568        0.65408108546638       -2.26440939997088
H            0.23572726060642       -1.56216039868176       -1.17648941867453
N           -0.22213083743456        0.50454376968072       -1.32762841670577
H            0.33355321487592       -1.47988352701768        1.36402687415118
C           -0.14505596610109       -0.70026559793942        0.77862585532992
O            0.41643476379330        1.64447918543283        0.92206201373813
C            0.05075204126690        0.63532587445458        1.58065977525369
H            0.01063851991953        1.30837313345298       -0.66895170913127
O           -0.27335549612780        0.61816323760388        2.76851477399395
H           -1.23615230236649        0.38415108397187       -1.36857475385639
H           -1.21256887774058       -0.91685720104108        0.77497408431518
O           -2.41378063362059       -3.64804534139826        0.18514593204683
H           -3.13111298682251       -3.29720336461847        0.71886319893726
H           -2.09600525398329       -4.42386023225489        0.66090450802089
O            0.91047810295544       -5.39785447078912       -2.57608698620874
H            0.11482545762063       -5.35206524621099       -2.01381582192069
H            0.91883661040187       -4.59462591542542       -3.11902167954181
O           -2.16716984662054       -3.76713285740207        3.15150183937694
H           -2.42466471977247       -3.13837796242232        3.83231569892207
H           -1.25332555808610       -3.99748363064145        3.33498961322817
O            2.67428057892249       -3.79621354164605        1.51377018645188
H            3.14388938586362       -2.95193854515146        1.63059696644796
H            3.08608014954614       -4.21288681402770        0.73927458198884
O            0.22642338780146       -4.32790057115523        0.03662466210836
H            0.89731438897647       -3.78110393273316       -0.47230284559539
H            0.17408674886014       -3.85017602155630        0.88592487504600
O           -3.56812733497788       -3.12217069701205       -2.26362580312843
H           -3.24874737540704       -2.26874002730033       -2.55442711298647
H           -2.88598697564442       -3.49418822738814       -1.68636042222682
O           -0.13048452542160       -2.83389380603369       -4.54420503861259
H            0.49024172179036       -2.47320833890753       -5.19404455333063
H           -0.82041424317443       -3.27020307090868       -5.05538816310504
34
 energy: -56.651273792372 gnorm: 0.036239589868 xtb: 6.7.1 (edcfbbe)
H            1.48812509508150       -0.46453720760269       -0.58701191981297
C            0.41230709960639       -0.64191685441073       -0.63315029571002
H            0.16674598651715        0.67287293515920       -2.25382465275014
H            0.21043743992887       -1.56584277510453       -1.17683653894652
N           -0.21321100997455        0.51090369151767       -1.32113035030746
H            0.34686938100786       -1.47124560926169        1.36985053371208
C           -0.14306842846927       -0.70053775696390        0.78039025071100
O            0.36939722437024        1.66123170660842        0.90197350342373
C            0.03235077006174        0.64087791354522        1.57113908892541
H            0.02568426694073        1.30071132775515       -0.63990646160946
O           -0.23812949498597        0.61635349011367        2.77730003783030
H           -1.22698992707543        0.39945493568921       -1.36350395420379
H           -1.20936101736950       -0.92876257583472        0.77990781296125
O           -2.42713204040351       -3.61425346454631        0.17369743671790
H           -3.15476775410152       -3.29815976125122        0.72603443626046
H           -2.09022538052817       -4.40217661975007        0.61982919988330
O            0.92451182632868       -5.40332110073568       -2.60375670186676
H            0.14622702707915       -5.36181217825425       -2.03240932443702
H            0.90551087361686       -4.61086556966305       -3.15927153993279
O           -2.15846456554889       -3.75848710247092        3.15693936370076
H           -2.43216992932979       -3.14718423109228        3.85013268332674
H           -1.25217958176252       -4.00633003144360        3.37507504394470
O            2.70715657274113       -3.76807072449126        1.54002874462601
H            3.18649432075119       -2.93252001408539        1.65213941830517
H            3.11608607169861       -4.20297389006775        0.77200004788763
O            0.25905227541008       -4.34193695719964        0.03715010263776
H            0.84171115117200       -3.79785795821231       -0.49991265250018
H            0.16698859864955       -3.87802005521163        0.87507608359235
O           -3.60413319794559       -3.12960340459707       -2.30222609352166
H           -3.27199669948159       -2.26755482590052       -2.56414968348143
H           -2.94547715601528       -3.47616391228543       -1.65834145946657
O           -0.09532392335022       -2.87039646207817       -4.52874116799695
H            0.49260167128001       -2.47511823333972       -5.20441601739781
H           -0.82105654590098       -3.26973172453466       -5.03872097450408
34
 energy: -56.650894860390 gnorm: 0.072342144595 xtb: 6.7.1 (edcfbbe)
H            1.48483027293371       -0.50164131216536       -0.61118407991116
C            0.40065082628113       -0.64558322907928       -0.63908253301702
H            0.18936574822142        0.69952460821279       -2.24435567246557
H            0.16954532429770       -1.57030450808884       -1.17348347954557
N           -0.20158509537874        0.51984139613270       -1.32028545065611
H            0.36313821583293       -1.45538736487484        1.37617330720596
C           -0.14387192789923       -0.69586441297836        0.78195917634486
O            0.33163826785984        1.66958698070662        0.90233057985938
C           -0.00624633076230        0.65215146495500        1.55636725096162
H            0.03253350952429        1.29222465544923       -0.60906190550531
O           -0.18061437731908        0.60445816139349        2.79597324590948
H           -1.21394812686829        0.41634393204660       -1.37069790508012
H           -1.20764647153141       -0.94333655597530        0.78278408477455
O           -2.45133495189377       -3.56878817373434        0.15508433109139
H           -3.17987068036236       -3.29193632254042        0.73531926270978
H           -2.08539451629836       -4.36635107040023        0.56443208697307
O            0.94780014224554       -5.40665010146415       -2.65594261829958
H            0.20232034882176       -5.37652456250288       -2.03597863689107
H            0.86609412877371       -4.61673203438155       -3.22172361861865
O           -2.14687706047801       -3.75144542311524        3.16920263929751
H           -2.44304623511001       -3.15484537926670        3.86733623201394
H           -1.25173508821973       -4.01690311168748        3.42258773153146
O            2.74381985013617       -3.75055676795659        1.55507356344881
H            3.21299178792324       -2.93858984226685        1.70858474756776
H            3.14564044926885       -4.15678928488309        0.79630518903118
O            0.26319278741633       -4.35888375408581        0.02029536974036
H            0.83377410539017       -3.82573995502014       -0.51550116662593
H            0.18712669718736       -3.90899257050635        0.86775178454020
O           -3.65599133234728       -3.14243033296157       -2.34874241350365
H           -3.30644510906304       -2.26613102202490       -2.56997299614542
H           -3.03594343917096       -3.45575445828095       -1.62504681083155
O           -0.13880941434116       -2.79998728577171       -4.55708539395396
H            0.54996064265560       -2.54703177565212       -5.13280621999247
H           -0.76049194772624       -3.32392558723209       -5.03525568195736
34
 energy: -56.653807911451 gnorm: 0.054111215473 xtb: 6.7.1 (edcfbbe)
H            1.48167845157836       -0.52220552307313       -0.62282604587705
C            0.39526847554272       -0.64840872435133       -0.64093961474188
H            0.20334470704155        0.71106834780149       -2.23776358161392
H            0.14522343730322       -1.57174108975929       -1.17033322925839
N           -0.19490068991508        0.52447175369889       -1.31901689502656
H            0.37186753236434       -1.45415614879646        1.37595712195092
C           -0.13739733577544       -0.69502156977078        0.78590058212709
O            0.29394553627885        1.68244974959326        0.90378827061332
C            0.00664705009905        0.64189647592382        1.56447015680593
H            0.03367099218806        1.29076776999130       -0.59813443999364
O           -0.16992275041518        0.60371836339119        2.79745790602781
H           -1.20680297765819        0.42614360924758       -1.37708694857311
H           -1.20042247639513       -0.94715161154921        0.79186969814703
O           -2.47292296137073       -3.54861942086920        0.13799305073444
H           -3.18391029033903       -3.27767849510771        0.73582541550361
H           -2.08657086722731       -4.33874642996374        0.53877632900241
O            0.95086760194426       -5.40564626799514       -2.67051786991297
H            0.21840657936692       -5.36124432192013       -2.07877186592695
H            0.87830800728828       -4.63851427991378       -3.24054380288025
O           -2.14262364393927       -3.75194278911490        3.18341147286729
H           -2.44840898020282       -3.15709779600734        3.87537809584601
H           -1.25446771446568       -4.01972935622303        3.44455127096893
O            2.71774382406695       -3.70376561914565        1.56196597674660
H            3.28687780891910       -2.92309491304363        1.71909747943267
H            3.17180922502271       -4.18816031912182        0.84085570569078
O            0.24455893497597       -4.36861077977495        0.00852823504440
H            0.84697958742047       -3.84819830330928       -0.51970076031381
H            0.18907251337510       -3.91981771195870        0.85674128121544
O           -3.68950572154457       -3.13004954094020       -2.32873858649103
H           -3.33634762469126       -2.27402126305240       -2.59328012252389
H           -3.08780444153013       -3.45388239644402       -1.63237015405293
O           -0.10712631892191       -2.82003271882024       -4.54314092967209
H            0.55980637640680       -2.56080069031960       -5.15614022317378
H           -0.76237084679108       -3.33515298930268       -5.00190897869155
34