34
 energy: -56.594945191682 gnorm: 0.175996961880 xtb: 6.7.1 (edcfbbe)
C            0.00071700000000       -0.52255800000000        0.67804400000000
C            0.00015500000000        0.09392700000000        2.05036800000000
O           -0.00019500000000       -0.63013100000000        3.03226200000000
O           -0.00079700000000        1.43155900000000        2.21643300000000
C            0.00098900000000        0.52531100000000       -0.44326000000000
N           -0.00030100000000       -0.11659100000000       -1.75665200000000
H            0.90259300000000       -1.16292800000000        0.57888800000000
H           -0.90264000000000       -1.16023800000000        0.57901700000000
H           -0.90200200000000        1.16741300000000       -0.35103700000000
H            0.90366600000000        1.16894900000000       -0.35172000000000
H           -0.85706900000000       -0.70553200000000       -1.86752300000000
H            0.85322800000000       -0.71006900000000       -1.86779500000000
H            0.00165600000000        0.62088700000000       -2.49702600000000
O            1.76729300000000       -3.66382800000000        3.79969700000000
H            1.33771000000000       -4.25900400000000        3.13499100000000
H            2.46464400000000       -3.18226400000000        3.28743700000000
O           -3.62481400000000        1.19908200000000       -1.49853000000000
H           -3.91172000000000        0.35928400000000       -1.05917200000000
H           -3.57311500000000        0.97060000000000       -2.46068200000000
O           -3.20368100000000        1.21751600000000        4.44210700000000
H           -3.61558600000000        0.66953600000000        3.72749900000000
H           -2.96986400000000        0.56628500000000        5.15051300000000
O           -1.31513800000000       -3.82336700000000        3.89378900000000
H           -2.21546300000000       -3.71812500000000        3.49510200000000
H           -0.95351700000000       -4.64534200000000        3.47641700000000
O           -0.91355100000000        1.62044200000000        5.33926600000000
H           -0.02012900000000        1.39115000000000        5.69959000000000
H           -0.72462200000000        2.09424900000000        4.49048700000000
O           -2.59365200000000        3.94922500000000        2.27546300000000
H           -2.87832500000000        3.08174700000000        1.89198600000000
H           -1.62916300000000        4.01127900000000        2.05977300000000
O            3.38740400000000       -0.79343200000000        3.91789600000000
H            3.10749500000000       -0.02659900000000        4.47845700000000
H            3.31512200000000       -1.57836300000000        4.51728900000000
34
 energy: -56.618108461331 gnorm: 0.090721129925 xtb: 6.7.1 (edcfbbe)
C            0.00073459423048       -0.50280832887476        0.66794541601482
C            0.00249271408983        0.11076962063170        2.06145243871444
O            0.00610843690037       -0.63258530948075        3.04688063620320
O           -0.00428177046778        1.40174093898830        2.16737502292053
C           -0.00098814688225        0.53553217918900       -0.44723045696005
N            0.00130032919808       -0.11449548279436       -1.76947503486000
H            0.88887979063383       -1.14456531346171        0.59852080947578
H           -0.88493034956941       -1.14754263191794        0.59761329525479
H           -0.88849820160939        1.16953615630787       -0.34398457770641
H            0.88291922412589        1.17322342300550       -0.33830239212816
H           -0.84003462149554       -0.70253080605266       -1.87540743699357
H            0.84152862010837       -0.70539287914464       -1.87529993580587
H            0.00235285018012        0.60639401723468       -2.50749387583291
O            1.81366917976729       -3.69980770195347        3.80155835848160
H            1.34894938302621       -4.24124041183618        3.14068487343644
H            2.44408553618648       -3.16774187883893        3.28244382334589
O           -3.56777807802187        1.16895172844935       -1.49538994983320
H           -3.94045766187803        0.37390288006211       -1.07027664706007
H           -3.60829425386316        0.97895547863958       -2.45299869657592
O           -3.29187819066211        1.21003346450836        4.43989453445750
H           -3.62534646959037        0.63678828616181        3.72838024757339
H           -2.95565051899150        0.59330641069344        5.12022812318954
O           -1.33151182677082       -3.83775001357184        3.88766068525660
H           -2.21681536862461       -3.72841765183578        3.50375213474564
H           -0.97749972870725       -4.64868503794021        3.48725390711276
O           -0.87699249734075        1.67802931213159        5.38569533260174
H            0.00051756346578        1.39078065460614        5.69074070352990
H           -0.72100544083354        2.03027525516948        4.48256788524331
O           -2.59057699429920        3.97264699783302        2.23738312110460
H           -2.86599934354511        3.09648134310470        1.91881881613368
H           -1.63119272599957        3.99769018988644        2.07697528840534
O            3.41797840127216       -0.80236460857916        3.93438964088891
H            3.10912359456201       -0.04196730502658        4.45323607957121
H            3.29641997140532       -1.56707297529421        4.52378183009474
34
 energy: -56.626051992947 gnorm: 0.029985892145 xtb: 6.7.1 (edcfbbe)
C            0.00157251385901       -0.49123834613482        0.65633417710166
C           -0.00013509355662        0.14498414900911        2.06982206145150
O            0.02029157043519       -0.63392192380488        3.04175947725853
O           -0.01936421944770        1.38364889803926        2.13934382874371
C           -0.00432432595873        0.54662495222505       -0.44611524198280
N            0.00414580456310       -0.10821778158590       -1.77812391425231
H            0.88733614784945       -1.12483796786573        0.61259770511750
H           -0.87276824046854       -1.13984102194453        0.61088692322329
H           -0.88834376598429        1.16914763108227       -0.34686912897977
H            0.86770769419626        1.18206002930331       -0.33237336307068
H           -0.82586048687529       -0.69713059821434       -1.87720686768366
H            0.83565553318036       -0.69726093198427       -1.87635754390520
H            0.00304853863675        0.60072130115680       -2.51505272402932
O            1.86473343403526       -3.72333069548072        3.80091537618711
H            1.37143848367781       -4.23133908931469        3.15294535846088
H            2.44108001489763       -3.15101441130759        3.28052622746945
O           -3.53731638074295        1.14065443093338       -1.49459840204478
H           -3.95593663365728        0.38446311726271       -1.07051496444453
H           -3.63279379320411        0.98701430846771       -2.44366966621065
O           -3.34181196121288        1.19550918627671        4.40947694944040
H           -3.66082072960092        0.59464494747102        3.73590904781983
H           -2.95888460890206        0.64353833137847        5.10390019665283
O           -1.35413969727040       -3.85770250177495        3.87875390551076
H           -2.23498292882458       -3.74365789322207        3.52036760931589
H           -1.01245197477922       -4.67180607337613        3.50670894865140
O           -0.84468126490741        1.66968850825263        5.38288872167082
H            0.01213136266389        1.39732831527810        5.69941212288376
H           -0.70900507656294        2.00706946913132        4.49589088646321
O           -2.57815334357530        3.99385602502708        2.21063235075992
H           -2.86078446631187        3.11665683654996        1.94227346563870
H           -1.62647405184374        3.99554809136693        2.08214428062347
O            3.43450858348433       -0.82448218607081        3.94543674251027
H            3.12803721204611       -0.05249661227180        4.42182563423619
H            3.28467415016149       -1.56481049385880        4.53950381941295
34
 energy: -56.626943267432 gnorm: 0.099499106797 xtb: 6.7.1 (edcfbbe)
C            0.00503608821037       -0.49024992133565        0.65218077440227
C            0.00280328548432        0.17779817237316        2.07206262379519
O            0.03725294331497       -0.61609029491706        3.03481564859845
O           -0.04569982408623        1.40827287318148        2.12052582562941
C           -0.00835012603818        0.54883880630856       -0.44619246142733
N            0.00706602573244       -0.10322433420234       -1.78474177790490
H            0.89817086237625       -1.11205417397842        0.62069151727528
H           -0.86733797124995       -1.14040371324823        0.62130282491086
H           -0.89948540284228        1.16391488604891       -0.35415483275951
H            0.85983903082403        1.19108332831605       -0.33409940588805
H           -0.82001828147695       -0.69643311222469       -1.87982901245131
H            0.83993131410082       -0.69066521896874       -1.87709044625530
H            0.00324755266388        0.60394587778893       -2.52313617198553
O            1.95928319011320       -3.78836909190837        3.81821515692120
H            1.37215318307802       -4.20783768675330        3.15730732635993
H            2.42828033398158       -3.10690272366991        3.26943415088228
O           -3.43210765236503        1.09368198615206       -1.48540857094739
H           -4.01467136183382        0.39830435410143       -1.07101172632584
H           -3.69264267387561        1.00275746576914       -2.44829208207032
O           -3.43833837016284        1.19923716298539        4.39242757102768
H           -3.68024085533992        0.52583802292035        3.73451031606760
H           -2.91920932050266        0.70906924429882        5.08309402801765
O           -1.36950045820593       -3.87163017919607        3.86396621430622
H           -2.26727647808860       -3.76197351564529        3.54411794737480
H           -1.05492922633907       -4.71680594614354        3.53174631002472
O           -0.82534628436348        1.75302785723619        5.44517160626844
H            0.03090991543703        1.37566383720040        5.69781298620256
H           -0.71558757282079        1.91062020330327        4.45964313871611
O           -2.57411945748350        4.05230317321371        2.14032993703980
H           -2.85874648342669        3.12537396439443        1.99628180612470
H           -1.59985976194338        3.98379734875850        2.10819841570602
O            3.49470736275352       -0.85455182919294        3.96214443545892
H            3.13488199548961       -0.05339611981543        4.36832070129119
H            3.24723247888456       -1.57287070315130        4.56902922561489
34
 energy: -56.630908362613 gnorm: 0.060083369210 xtb: 6.7.1 (edcfbbe)
C            0.00896717500491       -0.48848349168668        0.65223597199012
C            0.00526321679535        0.19445855990055        2.07340239406283
O            0.05238646858029       -0.59797812328609        3.03541525735778
O           -0.07055230233876        1.43645007342967        2.10959376045315
C           -0.01157389022054        0.54772533849242       -0.44963834325992
N            0.00864523993954       -0.10145373103873       -1.79064609650344
H            0.90780534910159       -1.10269813897677        0.62532275176278
H           -0.86206393569286       -1.14131173895574        0.62818370073014
H           -0.90886775500395        1.15861762535283       -0.36003309515397
H            0.85394236106765        1.19786880307625       -0.33773379207504
H           -0.81868335817877       -0.69775755097946       -1.88422081119518
H            0.84482281089018       -0.68755246442801       -1.88009763761217
H            0.00270981501888        0.60666301740765       -2.53059554372281
O            1.95707044426415       -3.75526058221766        3.80573966377690
H            1.39684219839080       -4.21356943737033        3.17004180000936
H            2.46492417382271       -3.12561503985620        3.28223812511296
O           -3.53938223952465        1.10996034259760       -1.49858080480801
H           -3.96523079841121        0.38889430080964       -1.05788170273363
H           -3.63986682189200        0.99079110381147       -2.43239476075558
O           -3.46554961914792        1.19667843688553        4.37080246373569
H           -3.70427512351332        0.49992447053143        3.73258168848853
H           -2.93726997744094        0.74044355276810        5.07174894648951
O           -1.37408700104533       -3.87734640167775        3.84823705553187
H           -2.29117421027489       -3.77903990514377        3.56397147529485
H           -1.08705111159813       -4.75465833763427        3.55253913177258
O           -0.81294050422996        1.73215403378497        5.43622211345827
H            0.03988262038407        1.36600060830749        5.70729773209121
H           -0.70507138047726        1.91270751594862        4.47382837764251
O           -2.55897804470730        4.05982028827835        2.14232590071894
H           -2.86188454418278        3.14471910519718        2.00145933487430
H           -1.59090701808373        3.99033283535158        2.10206573169415
O            3.51778132086473       -0.87619821001114        3.96842911750673
H            3.14646444760848       -0.05627968796386        4.34014742310601
H            3.23522999423058       -1.57893717070548        4.58736667015940
34
 energy: -56.626474741690 gnorm: 0.108242373739 xtb: 6.7.1 (edcfbbe)
C            0.01246486329590       -0.47990659847015        0.65459313228759
C           -0.00523967517948        0.20597122009257        2.07553279293519
O            0.07468413879655       -0.57529234771864        3.03976224318257
O           -0.09178220588000        1.46265272758319        2.11057521548197
C           -0.01526839020428        0.54741983206606       -0.45702714192999
N            0.01040553129988       -0.10157249382732       -1.79683416328188
H            0.91676538121253       -1.08774806316459        0.63100312642441
H           -0.85437773469148       -1.13918446309224        0.63262913836141
H           -0.91836311850345        1.15403130093301       -0.36735167179380
H            0.84631373725677        1.20723386400459       -0.34526647149611
H           -0.81775764056561       -0.70110704998874       -1.89085248821737
H            0.85158227969756       -0.68509357137892       -1.88408056474714
H            0.00263466148589        0.60828196683136       -2.53846474923113
O            1.97548098002147       -3.73961442104200        3.79907960858703
H            1.41530021204605       -4.21097837311376        3.18554676834048
H            2.49127392552743       -3.12875439834821        3.29194043843831
O           -3.44633953620384        1.07469968328412       -1.48260116682945
H           -4.01666682363105        0.40321739052151       -1.04847300913053
H           -3.69468805522353        1.01098090226102       -2.43375600485313
O           -3.39718284512024        1.17802719025370        4.33203192910813
H           -3.75168600113868        0.52939592458450        3.73799229380983
H           -3.03265672935197        0.73868306274888        5.06298935640180
O           -1.38351137092873       -3.89531289593590        3.84102031800537
H           -2.31228553829246       -3.80215632716002        3.58235144160202
H           -1.11756229041494       -4.78852652015443        3.56685406530955
O           -0.80198255459305        1.62100452645336        5.35918508279053
H            0.03531280601510        1.36894882967135        5.73220774230131
H           -0.67488987873465        1.98444994974731        4.52902287423596
O           -2.52618723256150        4.03155623240907        2.20091004453633
H           -2.86720746021745        3.18437926306876        1.97367569779051
H           -1.59158928704376        4.01458003753449        2.07174655646007
O            3.46044458252428       -0.89557701960579        3.95543203322655
H            3.18553563455510       -0.07121423720464        4.35014842395605
H            3.27635363474487       -1.58340512384392        4.58785110793803
34
 energy: -56.633178270240 gnorm: 0.051575771255 xtb: 6.7.1 (edcfbbe)
C            0.01240080791884       -0.47019302510873        0.65452080614120
C           -0.00833325212739        0.21532298332283        2.07341797207356
O            0.08273754572086       -0.56323347919138        3.03822000146966
O           -0.09127735210681        1.46197785491891        2.11109573238015
C           -0.01849763806377        0.55276071144060       -0.45988174293656
N            0.01032201603069       -0.10094486031802       -1.79710838901552
H            0.91831582721560       -1.07576705097051        0.63397459016000
H           -0.85081968535240       -1.13424240184689        0.63456264378853
H           -0.92361303118274        1.15447436614828       -0.37206543171629
H            0.83976800510169        1.21507127950289       -0.34991585047557
H           -0.81574027399634       -0.70167646364256       -1.89219117889988
H            0.85237179131130       -0.68193321758170       -1.88339469355163
H            0.00175198940219        0.60714911976383       -2.53925235089904
O            2.03877311256280       -3.79427880461145        3.82112336661723
H            1.40647523281865       -4.19285765744706        3.18623804911196
H            2.47053259566824       -3.08683166926057        3.27815756206547
O           -3.49108134447657        1.08077529846365       -1.48902741549768
H           -3.99417614980213        0.39533797259358       -1.04525245075497
H           -3.67467395554467        1.00202989884331       -2.42982055764885
O           -3.43069314611590        1.18392019307771        4.29932214996359
H           -3.77801166740394        0.47288669326994        3.74701228408749
H           -3.00038980265090        0.79231369666242        5.06850718261734
O           -1.39787541384320       -3.91679410897398        3.84854492242784
H           -2.32007088757842       -3.81341378127566        3.58657552370230
H           -1.13186131967386       -4.80044711204415        3.56705109539621
O           -0.80234906461238        1.64150431696271        5.38549011313831
H            0.03936204177521        1.36507089741574        5.73686511818363
H           -0.67848816127226        1.94721329432961        4.50257919192562
O           -2.52269405393329        4.07220564341201        2.16383429579187
H           -2.87359097721143        3.18931553470202        2.00881881871604
H           -1.56834958373834        3.99618679015707        2.08198290755198
O            3.46676148326098       -0.91143511793893        3.95334831711976
H            3.19954021559410       -0.07380384405772        4.33381501412638
H            3.27080209630496       -1.58759395071823        4.60222640284067
34
 energy: -56.619933095251 gnorm: 0.149889332623 xtb: 6.7.1 (edcfbbe)
C            0.01397853220825       -0.45673317111991        0.65338276198255
C            0.00395410467920        0.23128442257459        2.06814257132472
O            0.09434769508027       -0.54495974759795        3.03300627788636
O           -0.10329707464287        1.45805004152348        2.10891106567812
C           -0.02315537585126        0.56136556757027       -0.46303703879267
N            0.00978905052135       -0.10031811968030       -1.79621910449008
H            0.92092107946491       -1.05974164303290        0.63518567370691
H           -0.84549754673857       -1.12601550213263        0.63944611407200
H           -0.93118407517399        1.15502676741135       -0.37888825023389
H            0.83019894050417        1.22649864125741       -0.35798239292527
H           -0.81272866939390       -0.70206632701639       -1.89332332386625
H            0.85225310160470       -0.67755194375017       -1.88166752613027
H            0.00034885616253        0.60471325657543       -2.53874600263076
O            1.94530474367059       -3.67251888751717        3.78460021410010
H            1.46778154474683       -4.23194589738313        3.20769908055716
H            2.55039261141390       -3.15243019068576        3.31599498615708
O           -3.45887469167768        1.06085182944971       -1.48876259927725
H           -4.01188821880483        0.39963944016193       -1.04528565457107
H           -3.69452787835273        1.00178103633610       -2.42985050314307
O           -3.50773758943225        1.20018788766382        4.27509926879324
H           -3.80232865310311        0.41262953043102        3.75195485791460
H           -2.93652157920086        0.84431205867765        5.05424654868511
O           -1.41159246514389       -3.93956114612524        3.84280765231076
H           -2.33490658614772       -3.83366939624132        3.59958482158238
H           -1.16022699653867       -4.82902108428028        3.57769023278633
O           -0.80554732484948        1.75820754654034        5.48319913182482
H            0.05042560280027        1.34086886714609        5.73083821973886
H           -0.69066574271105        1.82400336828709        4.41844023337937
O           -2.52274156191159        4.13703872029414        2.09948200435183
H           -2.87503919787335        3.19145043369234        2.06473256042344
H           -1.53369279955972        3.96936495537959        2.10719069669916
O            3.51684085807022       -0.93991191266330        3.95812505472617
H            3.20734387817754       -0.07508771516795        4.28743825180431
H            3.23560142800175       -1.59567168657844        4.63593811557634
34
 energy: -56.635753048201 gnorm: 0.048574508013 xtb: 6.7.1 (edcfbbe)
C            0.01706177434362       -0.45534797781820        0.65403390086029
C            0.00569012000255        0.23375379406491        2.06991226002138
O            0.10310452688528       -0.53991169914524        3.03610497616719
O           -0.11428720984750        1.47454674336825        2.10772655331542
C           -0.02391830575582        0.56186313257450       -0.46480562539925
N            0.01025301848399       -0.09959941581783       -1.79774010409307
H            0.92540149201109       -1.05636934581186        0.63434317779588
H           -0.84272450100043       -1.12441063954342        0.64111821804296
H           -0.93435126984302        1.15522258716394       -0.38112227067372
H            0.82863516766843        1.23136612494145       -0.36071251450582
H           -0.81305894514556       -0.70305030494175       -1.89359870603190
H            0.85460272544117       -0.67677167970352       -1.88152005814473
H            0.00003125389626        0.60561708231064       -2.54192323840059
O            1.99091831424594       -3.71156923182682        3.80406724628989
H            1.45775264028580       -4.22245809982995        3.20754440528190
H            2.53747696687252       -3.11971783875174        3.30419216194980
O           -3.45670085610802        1.05745551603168       -1.48684422302848
H           -4.01334256895723        0.40360354391151       -1.03968236063299
H           -3.69629490558848        1.00486527574238       -2.42535971840293
O           -3.48657265739687        1.19509918989362        4.27961222460825
H           -3.80933248156727        0.44278507181125        3.75502782478849
H           -2.97352840588572        0.82587879238581        5.03505256661244
O           -1.41456913290394       -3.94589258736762        3.84155274327929
H           -2.34297052445475       -3.83993423120436        3.60524391350679
H           -1.16926726886795       -4.84215564243493        3.58172075882543
O           -0.80547095734369        1.66701221701403        5.41678983947057
H            0.04039046515968        1.35201817873545        5.74046907297385
H           -0.68343812180154        1.88588624874654        4.46827832202360
O           -2.50585016269443        4.09665459336100        2.15439711590762
H           -2.87132783657722        3.21171959333974        2.03063484657129
H           -1.54948839158969        3.99305373358927        2.08426985102418
O            3.52300430328529       -0.94263057711044        3.96227870677068
H            3.21064549707459       -0.08286519662110        4.28654601819730
H            3.23885423767179       -1.59564695105767        4.63176611502993
34
 energy: -56.630192286420 gnorm: 0.124901454507 xtb: 6.7.1 (edcfbbe)
C            0.01922254215878       -0.44607700997328        0.65422524452630
C           -0.00831042370764        0.25534930651539        2.07333708553723
O            0.13497132675874       -0.51946705229329        3.03858461793004
O           -0.13323304663575        1.50051664031891        2.10215653349037
C           -0.03086639220466        0.56635788249386       -0.46851091206530
N            0.00951143648533       -0.09763705378785       -1.80177686955940
H            0.93375706158362       -1.03804613714739        0.63926761181950
H           -0.83568388447938       -1.12005394747731        0.64695782354902
H           -0.94813055142573        1.15228779106620       -0.38939671801265
H            0.81615393326135        1.24570337799756       -0.36760981825309
H           -0.81238852554662       -0.70488677310503       -1.89479986998913
H            0.85671981917168       -0.67264731376767       -1.88024220027110
H           -0.00309585109002        0.60550663741557       -2.54876641641904
O            2.10843188070898       -3.79870732174916        3.84273246278181
H            1.43455405799775       -4.17778745212490        3.21296251637840
H            2.51451792747089       -3.06330086359064        3.28599635143306
O           -3.48074670394969        1.04513221697206       -1.49115227517552
H           -4.00182660819407        0.40417885886658       -1.02738656095469
H           -3.68987372909620        1.00446425862070       -2.41564737901715
O           -3.45345649136447        1.18434544182598        4.27720804789526
H           -3.82728922121023        0.49986223286206        3.75388656802068
H           -3.03998462408801        0.79854048757557        4.98766387005215
O           -1.42547915389638       -3.96717380593705        3.82593263487882
H           -2.36886849398465       -3.86580312969530        3.62644517589033
H           -1.20811588762810       -4.88996021634672        3.60256557038401
O           -0.80224462793809        1.68842874936305        5.40440849332402
H            0.02280033786535        1.31058596520268        5.73192341947215
H           -0.66150677465334        1.85773426611589        4.47964295793030
O           -2.49398879294009        4.15132562185576        2.08206385807816
H           -2.86465106627888        3.22822636632758        2.09484518996235
H           -1.52413586385126        3.97175052839058        2.10884089278485
O            3.48839711921555       -0.95202938346176        3.95821734125938
H            3.22867868534014       -0.11369963966158        4.30718872203499
H            3.28348858614432       -1.60294952966742        4.60761003030489
34
 energy: -56.639026471568 gnorm: 0.042970489062 xtb: 6.7.1 (edcfbbe)
C            0.02082500780362       -0.43845514180455        0.65591867973048
C           -0.00171736216591        0.26237884106026        2.07170152934720
O            0.13937400316437       -0.50757032688233        3.03903439190795
O           -0.14108394284887        1.50329815337899        2.10291888891683
C           -0.03284875959325        0.57051261795294       -0.46999447356045
N            0.00925174729491       -0.09712841326253       -1.80084296945571
H            0.93605490334946       -1.02952338357462        0.64011490326105
H           -0.83225912251883       -1.11561669695041        0.65014833945998
H           -0.95156916128773        1.15312506549129       -0.39177202349647
H            0.81170779263748        1.25218970829842       -0.37112832171477
H           -0.81135390328791       -0.70532622571886       -1.89473496341181
H            0.85729473316153       -0.67033947336436       -1.87897670650759
H           -0.00392435824520        0.60467253370222       -2.54874415954231
O            2.08933727216872       -3.76724477159274        3.83432610591185
H            1.45877422355851       -4.18716323883728        3.22098449286734
H            2.53581356917170       -3.07842907114838        3.29737163573126
O           -3.44572284952619        1.03255463708362       -1.48661211373587
H           -4.01781880732015        0.40951104031997       -1.02472915442395
H           -3.70940332838078        1.00872953914659       -2.41647364111524
O           -3.50851231691393        1.19672718589211        4.24956625838807
H           -3.85203312010067        0.43570976781565        3.76142253146982
H           -2.97870835159215        0.85686194830474        4.99247240783803
O           -1.43786065062869       -3.98646411285039        3.83427012612981
H           -2.37312512815729       -3.87217022448097        3.62734822143635
H           -1.21738138243568       -4.89793802217031        3.60148021913694
O           -0.80812620738082        1.68970316897052        5.40710798790531
H            0.01523467949902        1.30048822820404        5.73415254025088
H           -0.65741847582238        1.84302317956029        4.46563369896076
O           -2.47478678341944        4.10887715197563        2.15678427831560
H           -2.86152783110764        3.24983899796022        2.05054605565407
H           -1.53523525047896        4.00147301014400        2.08066059126026
O            3.51062471572259       -0.96572089695814        3.95894684064028
H            3.23298199358517       -0.11236208649621        4.28635484479456
H            3.27247045209416       -1.60815268916975        4.62411695765049
34