49
 energy: -80.189159951238 gnorm: 0.080335032423 xtb: 6.7.1 (edcfbbe)
N           -0.04110811240000       -0.66958297120000        1.44370582250000
C           -1.12595475150000       -0.13128404280000        0.57575275660000
C           -0.59119996060000        0.84090244000000       -0.46110819190000
C           -1.69511389060000        1.34555016310000       -1.39710088720000
C           -2.37614785150000        0.21800776100000       -2.16415299080000
O           -3.59743038910000        0.01324988680000       -1.97872122270000
O           -1.64117798790000       -0.46262697980000       -2.95434461570000
H            0.71071087450000       -1.10600133080000        0.87242834750000
H            0.37698947390000        0.06886345160000        2.03417280530000
H           -1.85872688420000        0.34481798530000        1.22590940550000
H           -1.60056684600000       -0.99320944590000        0.10729737410000
H            0.19697116300000        0.36185900690000       -1.04589606340000
H           -0.13341404660000        1.69573390620000        0.04354798420000
H           -2.44043861370000        1.90385665450000       -0.82971048830000
H           -1.24975460460000        2.02323541440000       -2.12943205300000
H           -0.42031213580000       -1.42360193800000        2.04250169210000
O           -5.57750439820000        1.10707625980000       -3.34378784090000
H           -4.88745682620000        0.88340878990000       -2.70380012240000
H           -5.75510570750000        2.06178698650000       -3.16731951480000
O           -3.90740995310000       -2.22362870070000       -0.23473081940000
H           -3.87415478550000       -1.44602841820000       -0.83864932510000
H           -4.70028366140000       -2.71907806900000       -0.50491003250000
O            0.68087460360000        0.61605073590000       -4.01444607010000
H            0.44989239560000        1.50477797220000       -4.30964615090000
H           -0.14395861790000        0.26378732220000       -3.61271724420000
O           -0.10560521280000       -2.60376012420000       -2.05812409560000
H            0.41902976010000       -2.88035979310000       -2.81916868000000
H           -0.61108921770000       -1.81200534740000       -2.33951641490000
O           -4.94919089940000        0.61817290270000        0.33900592410000
H           -4.28908954460000        0.80503956360000        1.01720313310000
H           -4.43760320820000        0.47756685380000       -0.48681350990000
O            1.04128215420000        1.41897211070000        3.10460059220000
H            0.48956775850000        1.55581522760000        3.88696465460000
H            1.00951947300000        2.25880581910000        2.62701163540000
O            1.85788285380000       -2.02540793160000       -0.16960582370000
H            1.20772675440000       -2.27163320100000       -0.86345027340000
H            2.13299944320000       -2.86244754650000        0.22781782760000
O           -2.50916012760000       -2.85382719520000       -4.07005077260000
H           -1.89329401400000       -3.45373446880000       -3.63010221240000
H           -2.23284501030000       -1.95415815370000       -3.77018573010000
O           -0.89514077330000       -3.13233259200000        2.57067145490000
H           -1.70932468640000       -3.13692592490000        3.08932414580000
H           -1.15548623950000       -3.45034110730000        1.67221265650000
O           -4.87002206160000       -2.29564773770000       -2.70626778970000
H           -4.14862082370000       -2.69889828690000       -3.22957455310000
H           -4.53159403980000       -1.38742127360000       -2.55521793840000
H           -3.17448572470000        1.57451200120000       -5.21063380060000
O           -2.65221241930000        0.76025845340000       -5.01475665930000
H           -2.43491669990000        0.85127613370000       -4.07654557310000
49
 energy: -80.203591271471 gnorm: 0.043188014440 xtb: 6.7.1 (edcfbbe)
N           -0.03405569337773       -0.67106797798045        1.44206045922622
C           -1.12191107350827       -0.14307159596794        0.58317437460332
C           -0.58002416673433        0.83586479154207       -0.44927092547564
C           -1.68271658807674        1.35344747452712       -1.37782989584703
C           -2.34928386997964        0.20326759990775       -2.12016280516090
O           -3.57435783386933        0.00784254775772       -1.94793819856770
O           -1.62476717043882       -0.48651357307220       -2.88990903130275
H            0.71988485950227       -1.09702356348138        0.86296149069710
H            0.38519147584373        0.06983750745790        2.03134841783878
H           -1.85930927657957        0.34589216776562        1.21977686196451
H           -1.60702331158584       -0.98943272176099        0.09348634499878
H            0.19527647136734        0.35321437938140       -1.04810725452062
H           -0.12915835868116        1.69624198882337        0.04687248800250
H           -2.44303216573270        1.90315490702366       -0.82151417381368
H           -1.24340284159429        2.02234810419461       -2.12170777270444
H           -0.39980667701909       -1.43132395642210        2.04423166098996
O           -5.57717726447703        1.15213574333808       -3.38382406377726
H           -4.91636678769791        0.85760342574269       -2.73107599408805
H           -5.77382901699684        2.07252199204412       -3.13629686759075
O           -3.89512991784358       -2.22881796084915       -0.16500053701747
H           -3.84269221434667       -1.46838662005992       -0.76782383858144
H           -4.66266128820531       -2.72311293884690       -0.48511028474213
O            0.69483804078782        0.63135239687871       -3.96526303895142
H            0.45359988943366        1.49028749568900       -4.33488230541538
H           -0.15103106872117        0.25100026491551       -3.64183435575198
O           -0.08091316687062       -2.60639480734379       -2.05810178955251
H            0.42434265482863       -2.87654073951285       -2.83122476016176
H           -0.59794775847415       -1.82828244057553       -2.33272887734871
O           -4.95930253990224        0.67081761840394        0.34518723421379
H           -4.29458418707865        0.79627633649412        1.03351103144976
H           -4.45528606759788        0.47121819041173       -0.46815064724540
O            0.99350202763076        1.40800453976324        3.07831889617183
H            0.50532837138846        1.55769643408155        3.89986861705555
H            1.02941290221087        2.26950064081892        2.64066814025914
O            1.82748849617660       -2.01918751619716       -0.15094794513542
H            1.20244308918579       -2.26953957251849       -0.86178687166865
H            2.14195164929645       -2.85176739993025        0.22097348400808
O           -2.50712097151292       -2.85519374929358       -4.06582827111710
H           -1.89900987954362       -3.45643362845958       -3.61837505926003
H           -2.23027683220957       -1.95717344904898       -3.78105467127859
O           -0.91481539931090       -3.08749548838344        2.54560225617176
H           -1.70649767768724       -3.15272208706549        3.09457740210749
H           -1.16479191374598       -3.47273916202360        1.68710098135741
O           -4.89690504501719       -2.30465421248737       -2.76704901914375
H           -4.16562874285597       -2.70886799269375       -3.26971828461412
H           -4.57286598633230       -1.39538981832324       -2.61689379402698
H           -3.21224278692713        1.59550130651830       -5.23115014315484
O           -2.63421333553227        0.82494808863878       -5.09665245341174
H           -2.45657507088703        0.82059825197824       -4.14286545878744
49
 energy: -80.210749749441 gnorm: 0.037408824205 xtb: 6.7.1 (edcfbbe)
N           -0.02650451806132       -0.67679264524677        1.44140114692062
C           -1.11014193083105       -0.15266364732577        0.59294387358784
C           -0.56357770837354        0.83487934957302       -0.43409979099996
C           -1.66959727885445        1.35855640017793       -1.35422632043024
C           -2.33399202828658        0.20770287218373       -2.09605993823693
O           -3.56050496833982        0.01154446816115       -1.91753962932139
O           -1.62366471412714       -0.49859239753595       -2.84786959431424
H            0.73195626235784       -1.08877969309386        0.85196778112800
H            0.38939619531190        0.06786753248902        2.03248843122289
H           -1.85406898506121        0.34283755179403        1.21802443479609
H           -1.60080245214449       -0.98600048913120        0.08443709905902
H            0.19603016213746        0.34802014339679       -1.04857296779159
H           -0.11057791326679        1.69009905760645        0.06390991407194
H           -2.43712933968352        1.89968703234142       -0.79986304016482
H           -1.23609576771686        2.02510061757271       -2.10198454372013
H           -0.37893629807666       -1.44928050015248        2.04176166886279
O           -5.57071255785231        1.20394343351444       -3.42599115992908
H           -4.94250579641010        0.84285151724089       -2.76726435857161
H           -5.80279723391097        2.08700205483764       -3.10282342554678
O           -3.88124303388644       -2.23481644896364       -0.12755652460814
H           -3.82862039972707       -1.50206689373825       -0.75049199641928
H           -4.63000415370592       -2.74002287270141       -0.45957717690587
O            0.70428679556448        0.64035895508315       -3.93273882917036
H            0.45202733773623        1.46956080131001       -4.36373479724413
H           -0.13801384638654        0.23786417523125       -3.64325162040327
O           -0.05048293826658       -2.61504112140579       -2.06777238650345
H            0.44001158926437       -2.86482234696493       -2.85613736082954
H           -0.58129940875272       -1.84332395662497       -2.32369425240287
O           -4.97441922402879        0.74656145842446        0.35314331003593
H           -4.30902998583152        0.77897192188460        1.06144124810017
H           -4.47652422768784        0.47939194830119       -0.44468038838399
O            0.95226888544298        1.40265103366696        3.05705675406329
H            0.51547998561984        1.55367951948426        3.90710285092754
H            1.04755073301759        2.27642923493311        2.65123704977681
O            1.79761506072740       -2.00688101960355       -0.13620739723160
H            1.18484651958771       -2.26341331734797       -0.85270946427833
H            2.15236662124722       -2.83071879008674        0.21673955296605
O           -2.50355432097266       -2.86254032063296       -4.06201989547726
H           -1.91113830869959       -3.46709177183469       -3.59875341355069
H           -2.23064593540258       -1.96755652911300       -3.78682930041955
O           -0.93440232269426       -3.06200212369418        2.52758750104046
H           -1.70317503668711       -3.16251351549560        3.10287602827510
H           -1.17776788164022       -3.47782625736736        1.69635617610903
O           -4.90318335550845       -2.33253711905039       -2.77159226161534
H           -4.20000405972400       -2.70705104731121       -3.33375335729111
H           -4.61192802225309       -1.41485618912154       -2.63752458596972
H           -3.24635874757137        1.61062267147361       -5.26712030783470
O           -2.60604209343590        0.88872139715579       -5.18224490322009
H           -2.48784337345374        0.78172708750660       -4.21614908025700
49
 energy: -80.215016265938 gnorm: 0.027172117976 xtb: 6.7.1 (edcfbbe)
N           -0.01693690863517       -0.68287402389218        1.44416120665602
C           -1.09524737919598       -0.15979897972968        0.60218305202823
C           -0.54733100976806        0.83371122812496       -0.42133396075486
C           -1.65970055261202        1.36140364938609       -1.33059588422447
C           -2.32634305759197        0.20776455499570       -2.06832866014271
O           -3.55793780267233        0.01908060611528       -1.89185663267419
O           -1.63234773199212       -0.50086667802251       -2.82723082941222
H            0.74627506376927       -1.08461516983161        0.84755549030567
H            0.39276408706283        0.06448117673730        2.03800020722625
H           -1.84469624366470        0.33707856961662        1.22013697950348
H           -1.58722414969874       -0.98534311717619        0.08247917785477
H            0.20162532592066        0.34487637205869       -1.04615568610971
H           -0.08737022101460        1.68036598800387        0.08246382505071
H           -2.42732185533770        1.89600540433460       -0.77080588776302
H           -1.23195061790003        2.03008066368517       -2.07900038822708
H           -0.36086782771716       -1.46557277048176        2.03895598873894
O           -5.55349753975780        1.25350389428125       -3.46398259851760
H           -4.94942719323317        0.85579259116667       -2.81081090230054
H           -5.85019188423110        2.09331308731208       -3.06767403446436
O           -3.86710566556861       -2.23751107697925       -0.07438726302229
H           -3.80133345645139       -1.52863471765742       -0.72356936381168
H           -4.58942492670559       -2.76833952816575       -0.42860970715213
O            0.71193902858578        0.64663924236404       -3.90648506621834
H            0.45628833827805        1.44571154460516       -4.38939062012330
H           -0.12248639223304        0.22764537920214       -3.63757307778253
O           -0.01979790811706       -2.62727227379408       -2.08627008768656
H            0.46442067314175       -2.84577046871424       -2.88856829946455
H           -0.56517353377043       -1.85701435467103       -2.31587339613623
O           -4.98631343983422        0.79688583746371        0.36901224459673
H           -4.33659071615088        0.78854299428812        1.08606611327716
H           -4.49873505738432        0.50330900841911       -0.42020201572508
O            0.93082396369217        1.40949507188921        3.04957603831431
H            0.51701507335950        1.54651305233708        3.90687899115228
H            1.05547492559964        2.27769638848150        2.65531665394590
O            1.77688588250982       -1.99089226028076       -0.13157288495661
H            1.16821371813774       -2.25717358848576       -0.84743579679188
H            2.16435780084058       -2.80167733760605        0.21387502152569
O           -2.49999429632482       -2.87254614395816       -4.06473125200380
H           -1.93277519062627       -3.48338860982339       -3.57684925114159
H           -2.23151458182641       -1.98151728189105       -3.78754839806024
O           -0.95820784134531       -3.03766033717072        2.51386559170788
H           -1.70251522594445       -3.16129153480696        3.11421464668054
H           -1.19179333303976       -3.50557000124941        1.70753976912024
O           -4.92695512640541       -2.35443854419118       -2.80909139668391
H           -4.22737354258470       -2.71559799901551       -3.38376933969275
H           -4.65741416728434       -1.43636843367601       -2.66341599406781
H           -3.28028275182427        1.61036628494858       -5.31728798405387
O           -2.61325788448462        0.92307355627352       -5.24817767025478
H           -2.49210088726642        0.76784030698023       -4.30405591636372
49
 energy: -80.214997359815 gnorm: 0.074726568878 xtb: 6.7.1 (edcfbbe)
N           -0.00633143881035       -0.69231829667200        1.45013373784337
C           -1.07929267069601       -0.16756750312612        0.61025486990529
C           -0.53176871493079        0.82938262253056       -0.41080708815761
C           -1.65262429608474        1.35968710704965       -1.30721224481156
C           -2.32903326950807        0.21112011102805       -2.04815080953121
O           -3.56321966958864        0.02600460632491       -1.86758995899238
O           -1.64685050237541       -0.50156095122774       -2.81708910047675
H            0.76173251857704       -1.08718244429294        0.84978014716188
H            0.39422178725509        0.05576708525754        2.04693928247341
H           -1.83282223672559        0.32717313762117        1.22496718890642
H           -1.56960399654833       -0.98979991646688        0.08608078953140
H            0.21140097074349        0.34193089823590       -1.04222839124965
H           -0.06202702408964        1.66687173861203        0.09994558104966
H           -2.41434323903681        1.88959015826401       -0.73556163516368
H           -1.23141251845343        2.03503530897691       -2.05314794826455
H           -0.34775502541215       -1.48293588268347        2.03572985829240
O           -5.55741246391955        1.29619526978693       -3.46880442649527
H           -4.94917312081625        0.88729585937874       -2.85003657855459
H           -5.87175601248292        2.10351971589316       -3.07337727251757
O           -3.83680662792124       -2.25180090249384       -0.04275136102694
H           -3.77993335196819       -1.54448507433840       -0.69503575634557
H           -4.55198751212525       -2.79747455631637       -0.38196455244340
O            0.72016719575469        0.65418932674775       -3.87517893120642
H            0.46876007246381        1.41756657501941       -4.41327552211659
H           -0.11073012015247        0.21770223862603       -3.63318588872488
O            0.00847310843552       -2.64173076486920       -2.11247850844078
H            0.49673899061222       -2.82020456080804       -2.92390777377664
H           -0.54719145729743       -1.86893566515149       -2.31199332499283
O           -5.00041039730550        0.87520201515376        0.38175061073382
H           -4.37536316422867        0.78929901953015        1.12113973244103
H           -4.51750952639587        0.52822701613138       -0.39108312540611
O            0.89252196907287        1.41530313831254        3.03652809946416
H            0.52876374023574        1.54498348782248        3.91985243776401
H            1.07891367118507        2.28985992858193        2.67283524157041
O            1.76527899020987       -1.97290564281861       -0.13778427013464
H            1.15655274514347       -2.25336517851240       -0.84956195926354
H            2.18086708572346       -2.76647103154838        0.20921083787141
O           -2.49803893638776       -2.88688137111985       -4.06780226162410
H           -1.95821707981869       -3.50333367514694       -3.55422529338179
H           -2.23326519209809       -1.99854921637903       -3.78335695657046
O           -0.98398881383538       -3.03061228821893        2.50818852537627
H           -1.70408031918098       -3.14949839499441        3.12933550380450
H           -1.20977099140171       -3.53205886122668        1.72011719422453
O           -4.95013938192367       -2.38387033434951       -2.84031113301078
H           -4.25556717443111       -2.72565528882997       -3.43347798614287
H           -4.70877399943250       -1.46156599889763       -2.68559971432363
H           -3.37381108568423        1.59271540415222       -5.35248291325576
O           -2.53766628748097        1.01510326207362       -5.35483824412676
H           -2.52916924615927        0.72047999117820       -4.39884795598396
49
 energy: -80.218791341461 gnorm: 0.036062204243 xtb: 6.7.1 (edcfbbe)
N           -0.00115687577614       -0.69726972787644        1.45497858118156
C           -1.07407054336835       -0.17102364102995        0.61186926392183
C           -0.52752571215906        0.82480973992490       -0.40879605528876
C           -1.65201238713711        1.35651654373676       -1.29935277002642
C           -2.33827628557476        0.21916814412438       -2.05007680741330
O           -3.56931803472983        0.02814430704893       -1.85934936435052
O           -1.65550649179035       -0.49794236143855       -2.82122349694701
H            0.76767757927807       -1.09247198975339        0.85592205867496
H            0.39474415945943        0.04943799088708        2.05247778960300
H           -1.82713542832712        0.32095746626642        1.22890885270178
H           -1.56176322991459       -0.99587044979498        0.09124013696262
H            0.21748917110189        0.34056696317502       -1.04012679789949
H           -0.05332367959603        1.66006145210560        0.10396671368856
H           -2.40774615590784        1.88588437710825       -0.71891771700289
H           -1.23377961103120        2.03740339193519       -2.04229768762792
H           -0.34660545995248       -1.48787984851602        2.03531820147163
O           -5.53382152637074        1.32738930149016       -3.49409236761147
H           -4.95952293834200        0.89173930776025       -2.85499363864844
H           -5.88297816508095        2.10716542453495       -3.06186867855490
O           -3.81503387748789       -2.26294287413158       -0.04598561188165
H           -3.77739302885105       -1.54243944504414       -0.68454622306897
H           -4.53894872080882       -2.80930118750969       -0.35483855444441
O            0.72391696575819        0.65872354629676       -3.85883594005413
H            0.47805130663667        1.40436528922178       -4.42193680207232
H           -0.11130287874133        0.21501901788868       -3.63350581436343
O            0.01549712818755       -2.64562995681012       -2.12771318002152
H            0.51340432042400       -2.80614821736833       -2.93694898472002
H           -0.53950124222538       -1.87006548947253       -2.31646543840095
O           -5.00611320523816        0.91316542694009        0.38640253929848
H           -4.39581906808243        0.79014973897875        1.13869980835631
H           -4.52332920598124        0.54027607223215       -0.37921644005354
O            0.87058244551090        1.41755047109473        3.02898584028091
H            0.53997125106526        1.54961635390764        3.93256024453109
H            1.09562819209002        2.30076457205678        2.68609351059355
O            1.76785591636715       -1.96613518569617       -0.14731076477023
H            1.15693755445882       -2.25536758050920       -0.85542800654837
H            2.19104939866610       -2.75179722449566        0.20514527683663
O           -2.49867597595396       -2.89413804394860       -4.06696905886913
H           -1.96831605635678       -3.51178696083293       -3.54673622034755
H           -2.23312656530969       -2.00567536245420       -3.77604799367370
O           -0.99437060806331       -3.03953652470217        2.51089740425992
H           -1.70518536071532       -3.14394613079639        3.14065626827153
H           -1.22226624254976       -3.53776698401359        1.72595315794298
O           -4.95653178982734       -2.39941562598960       -2.84415597404504
H           -4.26665998624284       -2.72842514156434       -3.45181247041948
H           -4.72960203674197       -1.47168327623781       -2.69173476219592
H           -3.33102568117416        1.61741704896536       -5.40174721880670
O           -2.61687869950526        0.98687094280528       -5.36256699015149
H           -2.52163665338299        0.72093756130065       -4.44483706639690
49
 energy: -80.211966705730 gnorm: 0.103083478501 xtb: 6.7.1 (edcfbbe)
N            0.00670039386274       -0.69805179781750        1.46307875075641
C           -1.07002429722752       -0.17503651837014        0.61391177330472
C           -0.52730081519014        0.81730178595957       -0.40920645797796
C           -1.65430448264890        1.35096228904240       -1.29514411350248
C           -2.34852503907298        0.22062920353480       -2.04976919161583
O           -3.57634038073851        0.02897226094073       -1.85391176221157
O           -1.66674459807546       -0.48779862015510       -2.83374896219536
H            0.77320929189540       -1.09695049543904        0.86580950089635
H            0.40121211312813        0.04843425902140        2.06036304679443
H           -1.82064763840787        0.31617988888990        1.23427241964754
H           -1.55515885168511       -1.00533774349975        0.09953274015135
H            0.22091160088160        0.33639799400764       -1.04007983986477
H           -0.05260248078786        1.65483267391240        0.10114456834940
H           -2.40479460868160        1.88011716596062       -0.70664301962248
H           -1.24017852099599        2.03639351805791       -2.03693721064220
H           -0.34561291068507       -1.48467396116305        2.04073270636539
O           -5.44248543605286        1.38535822925699       -3.58697373581736
H           -4.98247679263705        0.87429335356303       -2.84940631859891
H           -5.93076154338712        2.10293295098095       -2.98729123307128
O           -3.80187708075153       -2.25825675311507       -0.04481738762181
H           -3.77993226700911       -1.54529466156763       -0.69725324476038
H           -4.51862465176895       -2.83020402796576       -0.33625142018462
O            0.72142339319622        0.65645054248585       -3.85356897275242
H            0.49020495431714        1.39235522520670       -4.42602258390205
H           -0.11390995954710        0.22054002394520       -3.62202763377870
O            0.01918151295538       -2.63976096804802       -2.14443724170631
H            0.52896308538777       -2.79056085841143       -2.94628220134650
H           -0.53455120159494       -1.86509349722904       -2.33159493910323
O           -5.00185240038941        0.87050010607486        0.40614448039517
H           -4.41549979827730        0.84455421812083        1.13677970158559
H           -4.53393972654900        0.57361688182505       -0.37654160905303
O            0.90574293299960        1.44236468654606        3.05677529425635
H            0.52694304927753        1.54795843141639        3.92254533879616
H            1.07124383780395        2.28879308313872        2.67360021656360
O            1.77405484376341       -1.96169410172300       -0.15850514692417
H            1.16296800816147       -2.26009678396024       -0.86370337368724
H            2.20675405411070       -2.74314485799447        0.19509466103686
O           -2.50064640474836       -2.89781225280447       -4.06409486248508
H           -1.97583403410632       -3.51718202566470       -3.54405861082749
H           -2.23400691924104       -2.01044422841599       -3.76180584841646
O           -1.00587551574605       -3.03334520330460        2.50987138170875
H           -1.70143474765406       -3.15435603065298        3.16663984511750
H           -1.24697302923700       -3.55260434698908        1.73651877262860
O           -4.96255845679229       -2.41033728076182       -2.84466055209213
H           -4.27076334666160       -2.73325425161845       -3.45076996524582
H           -4.74028749178721       -1.48176109795843       -2.68872494400300
H           -3.34955916181020        1.61474442408585       -5.42064079551734
O           -2.61093765081802        1.00442577272064       -5.39154007767592
H           -2.53594485027110        0.70338461773561       -4.47676119024922
49
 energy: -80.219235019951 gnorm: 0.046397735216 xtb: 6.7.1 (edcfbbe)
N            0.00881773702316       -0.69989642284179        1.46480915350945
C           -1.06899144125449       -0.17840297322318        0.61489352554349
C           -0.52732297922116        0.81382371763621       -0.40861678290691
C           -1.65470801511586        1.34886880057833       -1.29324313564795
C           -2.34858501951177        0.21628963402312       -2.04494945972107
O           -3.57715749249342        0.02927353931292       -1.85372440322253
O           -1.67048886979395       -0.48300816008428       -2.83838189436669
H            0.77484538550245       -1.09817407060746        0.86707018311098
H            0.40267513774934        0.04728922652948        2.06207497402347
H           -1.81894405833297        0.31376290292662        1.23544159413726
H           -1.55418638672569       -1.00933722967898        0.10068810314681
H            0.22058752234669        0.33332469988869       -1.04070975044179
H           -0.05374554958049        1.65271413684471        0.10019018702793
H           -2.40492790164579        1.87720578479531       -0.70330763976718
H           -1.24231488653928        2.03495259086452       -2.03550551753516
H           -0.34441539356705       -1.48589433715967        2.04248485215376
O           -5.51667574324231        1.35809939261771       -3.50226523614015
H           -4.95208837888565        0.90336072598250       -2.86618631235995
H           -5.87961648570207        2.11892805036094       -3.05966667412933
O           -3.79941398731524       -2.25310680079617       -0.03770030632531
H           -3.77994186288200       -1.54826821746961       -0.70088673615046
H           -4.50924823089022       -2.83734444468204       -0.33205636943186
O            0.72189788587983        0.65648342176949       -3.84536092659057
H            0.49400831701627        1.38512401649540       -4.43376679384212
H           -0.11494457448184        0.22386770964500       -3.61615005157293
O            0.02198425217780       -2.63615857790070       -2.14953160987859
H            0.53312372073450       -2.78545296068383       -2.95011321447005
H           -0.53365175981029       -1.86364423634097       -2.33707842124926
O           -5.00467778967930        0.88896189316805        0.40282311500235
H           -4.42444867956913        0.83777565315420        1.14601466129550
H           -4.53156054556333        0.58122412935835       -0.37420532641675
O            0.90759745737463        1.44690341200145        3.06135437027988
H            0.52597109053039        1.54996366986198        3.92291461082219
H            1.07242258864934        2.28901801236557        2.67507602855010