[Molden Format]
[Title]
 Molden file created by orca_2mkl for BaseName=input

[Atoms] AU
H    1   1          1.6076105304        -0.7543400371        -1.2754000513 
C    2   6          0.0488237063        -1.9945039955        -0.7625236142 
H    3   1         -1.4813924800        -0.8796559351        -4.1311615871 
H    4   1          0.5857782450        -3.9472149332        -1.0944794694 
N    5   7         -2.1454094162        -1.3578717675        -2.3484078850 
H    6   1          0.8370556602        -2.6725572015         3.1672746329 
C    7   6         -0.5265401040        -1.6402299443         2.0264586182 
O    8   8         -0.7189298134         2.8424733694         1.3340231699 
C    9   6         -0.4704813314         1.0889890007         2.8816146110 
H   10   1         -3.0978022022         0.1435033024        -1.5621584442 
O   11   8         -0.1404669146         1.5066675756         5.2244918382 
H   12   1         -3.4576434087        -2.8085843216        -2.4418246338 
H   13   1         -2.4094445562        -2.3537419646         2.4554278323 
[GTO]
  1 0 
s   3 1.0  
       34.0613410000         0.0254393072 
        5.1235746000         0.1900859489 
        1.1646626000         0.8524411301 
s   1 1.0  
        0.3272304100         1.0000000002 
s   1 1.0  
        0.1030724100         1.0000000001 
p   1 1.0  
        0.8000000000         1.0000000000 

  2 0 
s   6 1.0  
    13575.3496820000         0.0006064549 
     2035.2333680000         0.0046979088 
      463.2256235900         0.0243324776 
      131.2001959800         0.0973999683 
       42.8530158910         0.3019558425 
       15.5841857660         0.6623360915 
s   2 1.0  
        6.2067138508         0.6559530853 
        2.5764896527         0.3758563329 
s   1 1.0  
        0.5769633942         1.0000000000 
s   1 1.0  
        0.2297283136         1.0000000000 
s   1 1.0  
        0.0951644400         1.0000000003 
p   4 1.0  
       34.6972322440         0.0113272200 
        7.9582622826         0.0761696592 
        2.3780826883         0.3019225220 
        0.8143320818         0.7278502735 
p   1 1.0  
        0.2888754725         0.9999999999 
p   1 1.0  
        0.1005682367         0.9999999995 
d   1 1.0  
        1.0970000000         1.0000000000 
d   1 1.0  
        0.3180000000         1.0000000000 
f   1 1.0  
        0.7610000000         1.0000000000 

  3 0 
s   3 1.0  
       34.0613410000         0.0254393072 
        5.1235746000         0.1900859489 
        1.1646626000         0.8524411301 
s   1 1.0  
        0.3272304100         1.0000000002 
s   1 1.0  
        0.1030724100         1.0000000001 
p   1 1.0  
        0.8000000000         1.0000000000 

  4 0 
s   3 1.0  
       34.0613410000         0.0254393072 
        5.1235746000         0.1900859489 
        1.1646626000         0.8524411301 
s   1 1.0  
        0.3272304100         1.0000000002 
s   1 1.0  
        0.1030724100         1.0000000001 
p   1 1.0  
        0.8000000000         1.0000000000 

  5 0 
s   6 1.0  
    19730.8006470000         0.0005862639 
     2957.8958745000         0.0045428821 
      673.2213359500         0.0235584136 
      190.6824949400         0.0947091933 
       62.2954418980         0.2971978492 
       22.6541611820         0.6691624689 
s   2 1.0  
        8.9791477428         0.6459668363 
        3.6863002370         0.3870057440 
s   1 1.0  
        0.8466007680         1.0000000000 
s   1 1.0  
        0.3364713377         0.9999999998 
s   1 1.0  
        0.1364765367         1.0000000003 
p   4 1.0  
       49.2003805100         0.0114488252 
       11.3467905370         0.0784223379 
        3.4273972411         0.3081809474 
        1.1785525134         0.7202719637 
p   1 1.0  
        0.4164220497         0.9999999999 
p   1 1.0  
        0.1426082601         0.9999999997 
d   1 1.0  
        1.6540000000         1.0000000000 
d   1 1.0  
        0.4690000000         1.0000000000 
f   1 1.0  
        1.0930000000         1.0000000000 

  6 0 
s   3 1.0  
       34.0613410000         0.0254393072 
        5.1235746000         0.1900859489 
        1.1646626000         0.8524411301 
s   1 1.0  
        0.3272304100         1.0000000002 
s   1 1.0  
        0.1030724100         1.0000000001 
p   1 1.0  
        0.8000000000         1.0000000000 

  7 0 
s   6 1.0  
    13575.3496820000         0.0006064549 
     2035.2333680000         0.0046979088 
      463.2256235900         0.0243324776 
      131.2001959800         0.0973999683 
       42.8530158910         0.3019558425 
       15.5841857660         0.6623360915 
s   2 1.0  
        6.2067138508         0.6559530853 
        2.5764896527         0.3758563329 
s   1 1.0  
        0.5769633942         1.0000000000 
s   1 1.0  
        0.2297283136         1.0000000000 
s   1 1.0  
        0.0951644400         1.0000000003 
p   4 1.0  
       34.6972322440         0.0113272200 
        7.9582622826         0.0761696592 
        2.3780826883         0.3019225220 
        0.8143320818         0.7278502735 
p   1 1.0  
        0.2888754725         0.9999999999 
p   1 1.0  
        0.1005682367         0.9999999995 
d   1 1.0  
        1.0970000000         1.0000000000 
d   1 1.0  
        0.3180000000         1.0000000000 
f   1 1.0  
        0.7610000000         1.0000000000 

  8 0 
s   6 1.0  
    27032.3826310000         0.0005722733 
     4052.3871392000         0.0044353233 
      922.3272271000         0.0230201076 
      261.2407098900         0.0928224906 
       85.3546413510         0.2937850002 
       31.0350352450         0.6740160450 
s   2 1.0  
       12.2608607280         0.6383993703 
        4.9987076005         0.3953458713 
s   1 1.0  
        1.1703108158         1.0000000000 
s   1 1.0  
        0.4647474099         1.0000000000 
s   1 1.0  
        0.1850453636         0.9999999999 
p   4 1.0  
       63.2749548010         0.0120183321 
       14.6270493790         0.0830054217 
        4.4501223456         0.3199174393 
        1.5275799647         0.7071554292 
p   1 1.0  
        0.5293511794         1.0000000000 
p   1 1.0  
        0.1747842127         1.0000000000 
d   1 1.0  
        2.3140000000         1.0000000000 
d   1 1.0  
        0.6450000000         1.0000000000 
f   1 1.0  
        1.4280000000         1.0000000000 

  9 0 
s   6 1.0  
    13575.3496820000         0.0006064549 
     2035.2333680000         0.0046979088 
      463.2256235900         0.0243324776 
      131.2001959800         0.0973999683 
       42.8530158910         0.3019558425 
       15.5841857660         0.6623360915 
s   2 1.0  
        6.2067138508         0.6559530853 
        2.5764896527         0.3758563329 
s   1 1.0  
        0.5769633942         1.0000000000 
s   1 1.0  
        0.2297283136         1.0000000000 
s   1 1.0  
        0.0951644400         1.0000000003 
p   4 1.0  
       34.6972322440         0.0113272200 
        7.9582622826         0.0761696592 
        2.3780826883         0.3019225220 
        0.8143320818         0.7278502735 
p   1 1.0  
        0.2888754725         0.9999999999 
p   1 1.0  
        0.1005682367         0.9999999995 
d   1 1.0  
        1.0970000000         1.0000000000 
d   1 1.0  
        0.3180000000         1.0000000000 
f   1 1.0  
        0.7610000000         1.0000000000 

 10 0 
s   3 1.0  
       34.0613410000         0.0254393072 
        5.1235746000         0.1900859489 
        1.1646626000         0.8524411301 
s   1 1.0  
        0.3272304100         1.0000000002 
s   1 1.0  
        0.1030724100         1.0000000001 
p   1 1.0  
        0.8000000000         1.0000000000 

 11 0 
s   6 1.0  
    27032.3826310000         0.0005722733 
     4052.3871392000         0.0044353233 
      922.3272271000         0.0230201076 
      261.2407098900         0.0928224906 
       85.3546413510         0.2937850002 
       31.0350352450         0.6740160450 
s   2 1.0  
       12.2608607280         0.6383993703 
        4.9987076005         0.3953458713 
s   1 1.0  
        1.1703108158         1.0000000000 
s   1 1.0  
        0.4647474099         1.0000000000 
s   1 1.0  
        0.1850453636         0.9999999999 
p   4 1.0  
       63.2749548010         0.0120183321 
       14.6270493790         0.0830054217 
        4.4501223456         0.3199174393 
        1.5275799647         0.7071554292 
p   1 1.0  
        0.5293511794         1.0000000000 
p   1 1.0  
        0.1747842127         1.0000000000 
d   1 1.0  
        2.3140000000         1.0000000000 
d   1 1.0  
        0.6450000000         1.0000000000 
f   1 1.0  
        1.4280000000         1.0000000000 

 12 0 
s   3 1.0  
       34.0613410000         0.0254393072 
        5.1235746000         0.1900859489 
        1.1646626000         0.8524411301 
s   1 1.0  
        0.3272304100         1.0000000002 
s   1 1.0  
        0.1030724100         1.0000000001 
p   1 1.0  
        0.8000000000         1.0000000000 

 13 0 
s   3 1.0  
       34.0613410000         0.0254393072 
        5.1235746000         0.1900859489 
        1.1646626000         0.8524411301 
s   1 1.0  
        0.3272304100         1.0000000002 
s   1 1.0  
        0.1030724100         1.0000000001 
p   1 1.0  
        0.8000000000         1.0000000000 

[5D]
[9G]
[MO]
 Sym=     1a
 Ene= -1.90595010028344E+01
 Spin= Alpha
 Occup= 2.000000
  1       0.000040075230
  2      -0.000761492131
  3      -0.001826749569
  4       0.000118248570
  5      -0.000075418047
  6      -0.000125101971
  7      -0.000000495658
  8       0.000000309861
  9       0.000317237929
 10      -0.002769516507
 11       0.010748225379
 12      -0.000035870516
 13      -0.000046213255
 14       0.000016187481
 15       0.000905337396
 16      -0.000243331690
 17      -0.001508951730
 18      -0.001164884881
 19       0.000946391718
 20       0.001032863059
 21      -0.000025249759
 22      -0.000002805483
 23      -0.000048500930
 24       0.000036399086
 25       0.000023952249
 26      -0.000586829655
 27       0.000323593927
 28       0.000136795765
 29      -0.000388282161
 30       0.000109629205
 31      -0.000042828423
 32       0.000074193129
 33       0.000004648272
 34       0.000035838797
 35       0.000026453038
 36      -0.000028652907
 37       0.000015293313
 38      -0.000044228238
 39       0.000244662783
 40       0.000024455834
 41       0.000014166092
 42      -0.000009757578
 43       0.000019636349
 44       0.000008224385
 45      -0.000732632520
 46      -0.000669890138
 47       0.000049290487
 48      -0.000090910865
 49       0.000059095782
 50      -0.000001082725
 51       0.000005951354
 52      -0.000034187245
 53       0.000408632614
 54      -0.003245833769
 55      -0.000016400867
 56       0.000048705494
 57       0.000008842722
 58       0.000280540754
 59      -0.000340581628
 60       0.000022395806
 61      -0.001086665245
 62       0.000269085758
 63      -0.000451541260
 64      -0.000016705250
 65       0.000014512456
 66      -0.000001251598
 67       0.000000020455
 68       0.000010769996
 69       0.000122818614
 70       0.000041222615
 71      -0.000126725657
 72       0.000100050937
 73      -0.000022653572
 74       0.000016424776
 75       0.000003488426
 76      -0.000018626286
 77       0.000025550716
 78       0.000004818927
 79      -0.000014203887
 80       0.000006787258
 81      -0.000055481516
 82      -0.000276346977
 83       0.000093998344
 84       0.000147701797
 85       0.000024183954
 86      -0.000100108510
 87      -0.000019427210
 88       0.000094364153
 89      -0.000444432507
 90      -0.001132712994
 91      -0.003148804005
 92      -0.000048559220
 93      -0.000101338147
 94       0.000069459521
 95       0.000852673796
 96      -0.002315905147
 97      -0.001557102605
 98       0.000115892431
 99       0.000711415676
100       0.003713891126
101      -0.000026384711
102      -0.000069684981
103      -0.000063360181
104       0.000154113406
105       0.000002192906
106       0.001737371391
107       0.000461665825
108       0.000144455750
109       0.000023335089
110      -0.000264850958
111       0.000039660938
112       0.000005990051
113       0.000054050775
114       0.000030845108
115       0.000016227360
116       0.000045750498
117       0.000006608239
118      -0.435084698344
119      -0.639509927342
120      -0.036446261941
121       0.030591427596
122      -0.013141744202
123      -0.000196987619
124       0.001544508763
125      -0.001244675048
126       0.000674391518
127      -0.004797972468
128       0.003941839442
129      -0.000186482437
130       0.001155663759
131      -0.000338059837
132      -0.000015967066
133      -0.000027909511
134       0.000282426239
135       0.000095069453
136       0.000035866944
137       0.000136939622
138       0.000167657016
139      -0.001424330544
140      -0.000626205491
141      -0.000209081186
142      -0.000059621469
143       0.000013050537
144      -0.000105321884
145      -0.000145512152
146      -0.000047511567
147      -0.000031027172
148       0.000063859963
149      -0.000046535502
150       0.000272150301
151      -0.000478071370
152      -0.003814169420
153       0.002605261184
154       0.000093068299
155      -0.000374609398
156       0.000416481341
157       0.000673354386
158      -0.006884616884
159       0.004439358313
160      -0.000761025638
161       0.004135935776
162      -0.005083167396
163      -0.000047541481
164      -0.000082804159
165       0.000374111713
166       0.000322852783
167       0.000039000627
168      -0.000789411024
169      -0.000353624009
170       0.004779207330
171       0.001010209777
172       0.000803150210
173       0.000181319596
174       0.000102124540
175       0.000001152142
176      -0.000121802306
177      -0.000038501347
178      -0.000018698117
179       0.000257221956
180      -0.000021011337
181       0.000435187752
182      -0.000595113862
183       0.000162674680
184      -0.000076401425
185      -0.000062225414
186       0.000202052511
187       0.000284909006
188       0.000256212780
189      -0.001847779105
190       0.002623609008
191       0.000017362843
192       0.000027014080
193       0.000099730205
194       0.000016629633
195      -0.000261191800
196       0.000229037018
197       0.000011882765
198      -0.001059216211
199       0.000060063700
200      -0.000035142397
201      -0.000024056355
202      -0.000029925476
203       0.000084142604
204      -0.000000207904
205      -0.000011276117
206       0.000064071756
207       0.000163317841
208      -0.000349481048
209       0.000006589900
210      -0.000013842899
211      -0.000029435220
212       0.000046684678
213       0.000089164465
214       0.000014038721
215       0.000014675333
216       0.000014495799
217       0.000003111198
218       0.000171440360
219      -0.000136071237
220       0.000027050228
221       0.000024343937
222      -0.000005532124
223       0.000124166768
224       0.001136988356
225      -0.000215333655
226       0.000147926160
227       0.000129467519
228       0.000006861862
 Sym=     1a
 Ene= -1.90484931210212E+01
 Spin= Alpha
 Occup= 2.000000
  1      -0.000021471839
  2       0.000255850377
  3       0.000591953664
  4      -0.000044337103
  5       0.000025554427
  6       0.000036966713
  7       0.000005298003
  8      -0.000026136661
  9       0.000049469999
 10       0.001459894731
 11      -0.000255827593
 12       0.000030324541
 13       0.000058858077
 14       0.000027190198
 15      -0.000643368713
 16       0.000098684963
 17       0.000915727410
 18       0.000006872968
 19      -0.002476774624
 20       0.000033685990
 21       0.000008227509
 22       0.000018928836
 23       0.000092007593
 24      -0.000039842730
 25      -0.000035452902
 26       0.000367929681
 27      -0.000337849481
 28      -0.000309791328
 29       0.000383359580
 30       0.000052424391
 31       0.000003330737
 32      -0.000053492135
 33      -0.000011393154
 34       0.000016383461
 35      -0.000044847822
 36       0.000003247248
 37      -0.000005824549
 38       0.000017632251
 39      -0.000154488168
 40       0.000195200003
 41       0.000023100464
 42      -0.000002903280
 43      -0.000026663248
 44       0.000057158812
 45       0.000275076049
 46      -0.001328754198
 47      -0.000012410196
 48       0.000065290166
 49      -0.000029017495
 50       0.000000711822
 51      -0.000004027892
 52      -0.000020769991
 53      -0.000074193018
 54       0.001930402617
 55       0.000007783464
 56      -0.000011145668
 57      -0.000011700622
 58      -0.000153780438
 59       0.000197664549
 60       0.000020491412
 61      -0.000008747104
 62       0.000666879407
 63       0.000559451069
 64      -0.000006211998
 65       0.000006448137
 66      -0.000014191821
 67      -0.000001454464
 68      -0.000005092543
 69      -0.000014729063
 70      -0.000103443320
 71       0.000165298025
 72      -0.000059086087
 73      -0.000052515864
 74      -0.000024039479
 75      -0.000002625968
 76       0.000023250542
 77      -0.000010100057
 78      -0.000015854035
 79       0.000013668399
 80       0.000001329998
 81       0.000072099582
 82       0.000297501215
 83       0.000108919847
 84      -0.000096600462
 85       0.000058565749
 86       0.000096280551
 87       0.000015604539
 88      -0.000074755366
 89       0.000165737960
 90       0.002660248164
 91      -0.003504565562
 92       0.000051894772
 93       0.000082136737
 94       0.000003700033
 95      -0.000447253066
 96       0.002300596065
 97       0.001650428852
 98       0.001195590072
 99       0.000457667449
100       0.002116146063
101       0.000077721331
102       0.000060396200
103       0.000070392084
104      -0.000107235729
105      -0.000019571386
106      -0.001422997284
107      -0.000444739862
108       0.000318601690
109      -0.000332211636
110       0.000338350628
111      -0.000048659791
112      -0.000020668628
113      -0.000129437389
114      -0.000039308316
115      -0.000023426883
116      -0.000051366359
117      -0.000051887092
118       0.000200215515
119       0.000307874729
120      -0.000266849964
121       0.002150863794
122      -0.002922228200
123       0.000008265545
124      -0.000084567837
125       0.000036991691
126       0.000052584308
127      -0.000026934772
128       0.000519118785
129       0.000083209787
130       0.000604980919
131       0.000569311442
132       0.000028049732
133       0.000022904522
134       0.000000031044
135      -0.000079956469
136      -0.000000117261
137      -0.000013876766
138      -0.000066479706
139      -0.000150635668
140       0.000287286774
141      -0.000008378526
142      -0.000081654017
143      -0.000034157166
144      -0.000003346031
145       0.000011382039
146       0.000016813007
147       0.000006914281
148      -0.000048104911
149       0.000051266313
150      -0.000291269194
151       0.000491111200
152       0.002495780140
153      -0.002204008849
154       0.000055041496
155       0.000008228813
156       0.000417845861
157       0.001120838612
158       0.002802547923
159       0.008435758712
160      -0.001108237480
161       0.000034620753
162      -0.007539308068
163       0.000489433260
164       0.000142650904
165       0.000192283885
166      -0.000046890190
167       0.000036466909
168       0.004571164243
169       0.000909532458
170       0.000951790798
171       0.001310098452
172       0.000209496299
173       0.000217017394
174       0.000168332357
175       0.000067480465
176      -0.000381653144
177      -0.000020224620
178      -0.000069685905
179      -0.000057434640
180       0.000029130129
181      -0.000824383666
182      -0.000746789411
183      -0.000137670107
184       0.000130711745
185      -0.000001275674
186       0.435092548972
187       0.639529642501
188       0.036338326259
189      -0.030174390762
190       0.012943079896
191      -0.000280160617
192      -0.000370790497
193      -0.001886609833
194       0.000891073317
195       0.001185437917
196       0.006086979660
197      -0.000139485955
198      -0.000341109553
199      -0.000861635412
200       0.000262666501
201       0.000062285431
202       0.000094262880
203       0.000038335027
204       0.000014865010
205      -0.001522692991
206      -0.000382659354
207      -0.000516799142
208      -0.000093487382
209      -0.000075404177
210       0.000194355828
211       0.000076107490
212       0.000081884066
213      -0.000003326932
214       0.000017534588
215      -0.000000705726
216      -0.000002073971
217       0.000005502099
218      -0.000084750095
219       0.000026556505
220      -0.000005758236
221      -0.000015996980
222      -0.000006645060
223      -0.000149770256
224      -0.000438441233
225       0.001618976981
226      -0.000087664962
227      -0.000051865667
228      -0.000031454646
 Sym=     1a
 Ene= -1.44261490272847E+01
 Spin= Alpha
 Occup= 2.000000
  1       0.000034412349
  2      -0.000986893986
  3      -0.002742036589
  4      -0.000116563026
  5       0.000002696445
  6      -0.000255567190
  7      -0.000006505643
  8       0.000033279681
  9       0.001716901096
 10      -0.008418955929
 11       0.016436865055
 12      -0.000090575764
 13       0.000073060860
 14       0.000024860505
 15       0.005157271879
 16      -0.001676616946
 17       0.002898426313
 18      -0.001955709701
 19       0.002450862215
 20       0.000494114294
 21      -0.000047745742
 22      -0.000264119442
 23       0.000059350510
 24      -0.000094777408
 25       0.000051005105
 26       0.000255700961
 27      -0.001787584042
 28       0.000476742222
 29      -0.001723529351
 30       0.001263278904
 31      -0.000061059751
 32       0.000090404481
 33      -0.000052884344
 34       0.000097953344
 35      -0.000051456949
 36       0.000073906041
 37      -0.000107284130
 38      -0.000243457883
 39       0.000669697987
 40       0.001650056351
 41      -0.000185756239
 42      -0.000082618444
 43       0.000440609743
 44      -0.000053227831
 45      -0.000434373044
 46      -0.001151695057
 47      -0.000128994594
 48       0.000056628539
 49      -0.000219984194
 50      -0.448313000404
 51      -0.626800192126
 52      -0.037265930144
 53       0.031106541432
 54      -0.023098271139
 55      -0.000541776760
 56       0.000143424068
 57      -0.000462269247
 58       0.004246249606
 59      -0.001125006491
 60       0.003429297908
 61      -0.000725437417
 62      -0.000566174458
 63      -0.001794343400
 64       0.000009734990
 65      -0.000069955735
 66       0.000037117159
 67      -0.000069119167
 68       0.000025487428
 69       0.000104700523
 70       0.001699022773
 71      -0.000534720107
 72       0.001000503961
 73      -0.000608957745
 74      -0.000004916307
 75       0.000019486162
 76      -0.000105567236
 77       0.000208217601
 78      -0.000012187256
 79      -0.000034684756
 80      -0.000055115011
 81      -0.000081306412
 82      -0.000235419678
 83       0.000826348649
 84      -0.000001294891
 85      -0.000074043903
 86      -0.000066150034
 87      -0.000001103290
 88       0.000005979930
 89       0.000049540443
 90      -0.001725577217
 91      -0.002667348461
 92       0.000086447262
 93       0.000076003971
 94       0.000108375282
 95      -0.000291727613
 96      -0.000865454687
 97      -0.000544770914
 98      -0.000986090894
 99       0.000969424906
100       0.001025750946
101       0.000003504834
102      -0.000041425228
103       0.000039271875
104      -0.000034985009
105       0.000015826393
106       0.000638202202
107       0.000831154272
108      -0.000557859698
109       0.000541096418
110      -0.000196082479
111      -0.000082643568
112      -0.000192655288
113       0.000067521411
114      -0.000005582568
115      -0.000004425960
116       0.000030341350
117       0.000008480741
118      -0.000000528340
119       0.000004824597
120      -0.000063428065
121       0.000297944577
122       0.000910517530
123      -0.000001635797
124       0.000022234779
125      -0.000010525642
126       0.000055695598
127      -0.000201806591
128       0.000136199008
129       0.000012173793
130      -0.000262658789
131       0.000257651149
132       0.000010796144
133      -0.000007661342
134       0.000004912244
135       0.000012476273
136      -0.000006974202
137      -0.000061000701
138       0.000036813076
139      -0.000064836686
140      -0.000065072317
141      -0.000010830176
142      -0.000006536648
143      -0.000005710681
144       0.000004403431
145       0.000005043714
146      -0.000020566400
147      -0.000003095178
148       0.000009117318
149       0.000000584154
150      -0.000002911803
151      -0.000199317484
152       0.001736001874
153      -0.002571518134
154       0.000040830628
155       0.000029107706
156      -0.000030132752
157      -0.000009009870
158      -0.001343045870
159       0.000591529617
160       0.000451783146
161       0.000639444501
162       0.001623101518
163       0.000024259991
164      -0.000028512288
165       0.000048843269
166      -0.000027014049
167      -0.000018258235
168      -0.000204257877
169       0.000106580500
170       0.000379807210
171      -0.000178985260
172       0.000103570332
173       0.000074840903
174       0.000017550521
175      -0.000012649204
176       0.000013863402
177       0.000024211200
178       0.000029185216
179       0.000046793306
180      -0.000237579689
181       0.001014422615
182       0.002964540382
183       0.000230773997
184      -0.000408975459
185      -0.000223198478
186      -0.000000336021
187       0.000004200278
188      -0.000004763015
189       0.000049478420
190      -0.001195729129
191      -0.000007375756
192      -0.000009803806
193      -0.000041703016
194       0.000042439550
195       0.000061621109
196       0.000297491352
197      -0.000094385737
198       0.000009326266
199       0.000146884404
200       0.000003052450
201      -0.000007660258
202       0.000001555529
203      -0.000009533375
204      -0.000001252676
205      -0.000076258412
206       0.000016920189
207      -0.000040473036
208       0.000035227305
209      -0.000003692844
210       0.000004551793
211       0.000001386747
212       0.000013224375
213      -0.000003392352
214       0.000006521647
215      -0.000000664454
216       0.000000926767
217      -0.000261154003
218       0.000846142818
219       0.001789802563
220       0.000323818403
221       0.000391696044
222       0.000066136999
223      -0.000059765826
224       0.000418669341
225      -0.000575551433
226       0.000124713574
227       0.000037994483
228       0.000046051722
 Sym=     1a
 Ene= -1.02443092569442E+01
 Spin= Alpha
 Occup= 2.000000
  1      -0.000021999746
  2      -0.000042111404
  3      -0.000757157898
  4       0.000074519327
  5      -0.000062037956
  6      -0.000033867753
  7       0.000017668516
  8      -0.000017500727
  9       0.000247196774
 10       0.000433409505
 11      -0.001183639125
 12      -0.000028456554
 13       0.000076196801
 14       0.000015761502
 15       0.000034901558
 16      -0.000982965515
 17       0.000753586833
 18       0.000618498154
 19      -0.000249662109
 20      -0.001134602049
 21       0.000072339182
 22      -0.000024292397
 23      -0.000052251475
 24       0.000052554805
 25      -0.000021226585
 26      -0.000014440576
 27      -0.000677783116
 28      -0.000209020088
 29      -0.000311517829
 30       0.000164932294
 31       0.000075106129
 32      -0.000079806688
 33      -0.000123247341
 34       0.000176022638
 35      -0.000033346282
 36      -0.000074160871
 37      -0.000023939948
 38       0.000021444428
 39      -0.000270826591
 40      -0.000205117983
 41      -0.000014771391
 42      -0.000003808963
 43      -0.000061117337
 44      -0.000063952091
 45      -0.000530093263
 46      -0.000199658683
 47       0.000064724493
 48      -0.000106161161
 49      -0.000033620511
 50      -0.000000948594
 51       0.000009629171
 52      -0.000282452848
 53       0.001381143668
 54      -0.000291448110
 55      -0.000029416885
 56       0.000016189503
 57      -0.000011849011
 58       0.000413754145
 59       0.000022701001
 60       0.000342960468
 61      -0.000036123221
 62       0.000559187309
 63      -0.000492985210
 64       0.000038532292
 65       0.000028418151
 66       0.000007799551
 67      -0.000005638567
 68      -0.000000828709
 69      -0.000113009828
 70      -0.000044270725
 71       0.000015566395
 72       0.000093924192
 73      -0.000154590702
 74      -0.000028000478
 75      -0.000004648320
 76       0.000008044749
 77       0.000003538984
 78      -0.000029044448
 79       0.000016533503
 80      -0.000007158250
 81       0.000020794599
 82      -0.000227162954
 83       0.000158373674
 84      -0.000216489090
 85      -0.000323910231
 86      -0.000057669050
 87       0.000697359179
 88       0.000971622771
 89      -0.000527342591
 90       0.009125540076
 91      -0.005728840546
 92       0.000028862015
 93       0.000069594339
 94      -0.000010201733
 95      -0.000306271772
 96       0.006031233780
 97       0.002461608898
 98      -0.000762020961
 99      -0.002914251287
100      -0.001953319210
101       0.000108495922
102       0.000040293130
103      -0.000004416726
104       0.000002286003
105      -0.000026732937
106      -0.001280042198
107      -0.000379946992
108       0.000083214923
109       0.000022043157
110       0.000336573746
111       0.000284333342
112       0.000142378003
113       0.000413747803
114       0.000558086474
115      -0.000031951227
116      -0.000017715494
117       0.000526991462
118      -0.000055812680
119      -0.000291702750
120       0.003416698743
121      -0.011805357163
122      -0.002105306903
123       0.000076601547
124      -0.000582549556
125       0.000477983219
126      -0.000837819015
127       0.006395816913
128      -0.005170692928
129       0.000032506384
130       0.001019035380
131       0.000696688923
132      -0.000054711022