49
 energy: -80.191354087894 gnorm: 0.074936458604 xtb: 6.7.1 (edcfbbe)
N           -1.47441546060000        0.26201698860000        0.45573988990000
C           -2.65328389390000        1.01542446430000       -0.07538504890000
C           -3.39715055690000        0.32857584070000       -1.21309861940000
C           -2.65779581960000        0.22795251010000       -2.55110759690000
C           -1.84031272870000       -1.03001022460000       -2.82439924560000
O           -0.88968310740000       -0.92710552720000       -3.65204497490000
O           -2.16853722340000       -2.11399089850000       -2.26630190070000
H           -1.20651571390000        0.65369729190000        1.37728305140000
H           -1.67918356250000       -0.74024653310000        0.58919494770000
H           -3.33118413120000        1.15499253880000        0.76540721880000
H           -2.28620417600000        1.99508358700000       -0.38095387590000
H           -4.29819607270000        0.92673576440000       -1.36516099450000
H           -3.73943598320000       -0.65473416910000       -0.89008997490000
H           -2.02052964910000        1.09824639770000       -2.71260470950000
H           -3.39766807840000        0.24592555960000       -3.35865024640000
H           -0.63521307310000        0.34475246570000       -0.14916520950000
O           -4.11404250060000       -2.26869403660000       -4.42798542280000
H           -3.49579058790000       -2.22308459150000       -3.68833897770000
H           -4.68567941750000       -1.47400521410000       -4.34569733320000
O           -1.76848711730000       -2.65381335890000        0.44039052120000
H           -1.61996905180000       -2.53604411030000       -0.51909530010000
H           -2.68862644840000       -2.97635424170000        0.45819789050000
O           -2.29690976520000        0.14657751780000       -5.97020866900000
H           -1.91430962890000       -0.09749288180000       -5.10140488440000
H           -2.44717132770000        1.11870491830000       -5.93240826740000
O           -0.86765029830000        1.49420201320000        2.95810460320000
H            0.05797926790000        1.76105554990000        3.03589112990000
H           -1.03270365010000        0.93179732250000        3.72647675900000
O           -1.87405900750000       -4.65885451910000       -3.45315472290000
H           -1.54140930650000       -4.38963998970000       -4.33195714110000
H           -2.35412495600000       -3.85388467840000       -3.15499846300000
O            1.52456023170000       -1.63321024600000       -2.32999625920000
H            1.47616057410000       -2.54177377670000       -1.94818044060000
H            0.71915168740000       -1.53520915080000       -2.87267637900000
O            0.96524811270000        0.60469439640000       -0.96946143410000
H            1.27264857130000       -0.26054320220000       -1.34786370730000
H            1.66054999170000        0.91149081910000       -0.37453829430000
O           -1.16128082060000       -3.18757968870000       -5.75565314220000
H           -1.38352616600000       -2.42014811250000       -5.18229107240000
H           -0.21600291390000       -3.10723080530000       -5.93307570090000
O           -4.28942417700000       -3.21413363060000       -0.77669435180000
H           -3.71205004820000       -2.82980010900000       -1.46576129840000
H           -4.46104674760000       -4.12032477080000       -1.06094139330000
O            0.47830614360000        1.55007734690000       -3.66013115600000
H            0.73901259740000        1.45461031900000       -2.72774504750000
H           -0.04600991960000        0.74047105720000       -3.81577944290000
H            0.49259070300000       -0.51390735740000       -6.40415862000000
H            0.42548159360000       -0.60403499300000       -4.84176967140000
O            1.01031329860000       -0.34434508280000       -5.58427491540000
49
 energy: -80.202475289706 gnorm: 0.045964335049 xtb: 6.7.1 (edcfbbe)
N           -1.47335615770291        0.25866604550911        0.45125493236721
C           -2.64194217723742        1.01577885092958       -0.07021701295265
C           -3.39668388767373        0.33046385288107       -1.20180101608321
C           -2.65228047459415        0.25275998861324       -2.53722640702259
C           -1.83498804931387       -1.00696990094621       -2.79648717947027
O           -0.90950066564663       -0.92727536790436       -3.65038620757937
O           -2.18852810470509       -2.08975472409359       -2.27018532398419
H           -1.20577306452549        0.65417886449563        1.37350004507366
H           -1.68511755877697       -0.74632766887991        0.57959648428904
H           -3.33331486972473        1.15325838657683        0.76096242790716
H           -2.28649024475010        1.99580733885008       -0.38978627434131
H           -4.30055391947929        0.92121882228908       -1.36334941735093
H           -3.72057171056541       -0.66420870870863       -0.89045274825415
H           -2.00692498443596        1.11818140311004       -2.69269708840455
H           -3.38765503851501        0.25987854868280       -3.34973881058471
H           -0.64071401421889        0.34232894081088       -0.16396022169928
O           -4.14187392085647       -2.27571823635866       -4.43103478758940
H           -3.52593382917099       -2.22254198490360       -3.69021054623258
H           -4.71230797279852       -1.49639877947082       -4.35953526154832
O           -1.78951037108466       -2.58478143236730        0.43524996986282
H           -1.63152798881841       -2.57249495404782       -0.53012147144130
H           -2.68074325596810       -2.97781209614665        0.48181593057361
O           -2.33396460076292        0.14912975158616       -5.95686028462326
H           -1.86379195434606       -0.07793374913233       -5.13261263101742
H           -2.42140583167752        1.11632809063468       -5.94385110724245
O           -0.85114994487901        1.45198563194105        2.93187800228951
H            0.04953219094781        1.78472626461230        3.04524311246069
H           -1.03975178266366        0.94295161323883        3.73105047667877
O           -1.88161657167708       -4.68949442057136       -3.46820329790364
H           -1.57111921842833       -4.41663212123445       -4.35002336114084
H           -2.28340435402932       -3.87156716712283       -3.11577876213625
O            1.50471604289103       -1.64481736830596       -2.31321000955253
H            1.47726296836490       -2.54829184645056       -1.96006987142999
H            0.71841754602593       -1.55359233837304       -2.87917138237314
O            0.94516549271661        0.59356068130882       -0.93861329638253
H            1.27301707675003       -0.23155725823625       -1.37141647508425
H            1.67141203259211        0.91473257188316       -0.39211876464296
O           -1.14041435235526       -3.19534812612780       -5.72571421648719
H           -1.35700976688973       -2.40556781766619       -5.20173924236825
H           -0.20497449615217       -3.10683325760239       -5.94499049133345
O           -4.29339944278258       -3.21523485152408       -0.77105541422425
H           -3.69434713983802       -2.84540080489846       -1.44324889979317
H           -4.47571134616576       -4.11558207402156       -1.05715534734650
O            0.38445957548781        1.63145120990413       -3.58726338592189
H            0.78511597336438        1.45462841812623       -2.70442008317884
H           -0.03566229291978        0.76870155587512       -3.78537977932713
H            0.47550515543441       -0.47850891920232       -6.43317143732473
H            0.44102832630639       -0.64333879542397       -4.89851719472903
O            1.04480266104898       -0.44984329343713       -5.63729476520012
49
 energy: -80.207403073578 gnorm: 0.030786651209 xtb: 6.7.1 (edcfbbe)
N           -1.46999686089513        0.25227116386677        0.44479251208162
C           -2.62822485639788        1.01461955250371       -0.05918924245768
C           -3.39255048729341        0.33442259221863       -1.18914301359891
C           -2.64708121400577        0.28054591339879       -2.52456707594932
C           -1.86530299592419       -0.99431514050580       -2.81707275498329
O           -0.92182100685957       -0.91877040368721       -3.64681090547072
O           -2.20822837317141       -2.06942033372053       -2.28483062401712
H           -1.20008759257293        0.64596295203918        1.36981372563231
H           -1.68824876156467       -0.75968669190350        0.55960352462915
H           -3.33057834219871        1.15151659666469        0.76422742691800
H           -2.28459337984531        1.99464234882733       -0.39345953871132
H           -4.30274446529982        0.91414620446734       -1.35077658788131
H           -3.69298702226434       -0.67344440012152       -0.89327957739393
H           -1.98643292201747        1.13796147643172       -2.66260623519145
H           -3.37806109273134        0.29702647100230       -3.34010337882639
H           -0.64471179804296        0.34155944175506       -0.18229268275321
O           -4.18917153522582       -2.29619779057586       -4.43050175043396
H           -3.56636299846727       -2.22657245681886       -3.69623767900998
H           -4.75491669620781       -1.52730496892968       -4.37941396823816
O           -1.79507409332160       -2.53983854590555        0.43293442032890
H           -1.65287900805644       -2.55489766564752       -0.52766014592932
H           -2.67800819246289       -2.93362370910144        0.52164815855718
O           -2.31778275579649        0.16275636994863       -5.95456706847247
H           -1.82732955465359       -0.06336364248777       -5.15276729110132
H           -2.40303297308342        1.11458470989631       -5.94681859927606
O           -0.83887251907458        1.41811341749961        2.90796749371868
H            0.03725882452245        1.80719499145489        3.04690537496253
H           -1.04828288010246        0.94627733074461        3.72396056212950
O           -1.87473781385882       -4.71674909816242       -3.47341140090979
H           -1.61720252937647       -4.45508793914852       -4.37508748740246
H           -2.18735351326044       -3.88470020341003       -3.06363310380525
O            1.48175708039976       -1.65864580726260       -2.29948010727888
H            1.49314251245309       -2.55925302690951       -1.97655767890570
H            0.70759771578412       -1.58201466986104       -2.87829891880616
O            0.94072728414613        0.59875742008186       -0.93397987617903
H            1.24181091485102       -0.22217320904714       -1.37000514374545
H            1.68666993832670        0.90688969548196       -0.41043561170426
O           -1.10720316102712       -3.20218158346549       -5.69636671553475
H           -1.31946519892322       -2.39796763802313       -5.21185172620040
H           -0.18296888263394       -3.10395055053898       -5.96115021552931
O           -4.28986387247885       -3.22440354824042       -0.75762275163266
H           -3.67592561331477       -2.86319492270194       -1.41551078515233
H           -4.50178993292665       -4.11158006570041       -1.05889829376350
O            0.40586918420967        1.63590280379207       -3.54682349842734
H            0.73410435324718        1.51597795113127       -2.65211115411010
H           -0.07263711374948        0.82256129219840       -3.72996315248765
H            0.49162264024257       -0.48723695806418       -6.47430769842724
H            0.44899444487022       -0.70902141236348       -4.97057034559214
O            1.04937680183590       -0.50120554439903       -5.69220730746801
49
 energy: -80.210774098455 gnorm: 0.034170159162 xtb: 6.7.1 (edcfbbe)
N           -1.46736876332740        0.24741805339928        0.44399574368862
C           -2.62378418942012        1.01218601367059       -0.04556874609575
C           -3.38751929506772        0.33479158600129       -1.18023529199589
C           -2.64028485322809        0.29419525331097       -2.51542330073492
C           -1.87548273221278       -0.98901970644746       -2.82825078688843
O           -0.93515116207439       -0.91475764913042       -3.66287799719776
O           -2.22885451695240       -2.07056846100262       -2.31092357453071
H           -1.19120405928499        0.63152101507223        1.37180187423333
H           -1.68617207376286       -0.77029686453391        0.54507931481500
H           -3.32452208827422        1.14855220299751        0.77921612577535
H           -2.28433387571075        1.99263707966419       -0.38217549097108
H           -4.30693185506591        0.90161490660145       -1.33071802092563
H           -3.66951251418461       -0.68065380680340       -0.89343327673213
H           -1.97028810081391        1.14752909463887       -2.63163639400602
H           -3.36551804081214        0.33503537508771       -3.33524992835022
H           -0.64631840668616        0.34175710313590       -0.18794989523192
O           -4.24130668794676       -2.32092621153066       -4.43330224710837
H           -3.61302670534385       -2.24020388721804       -3.70438502808726
H           -4.80836963477802       -1.55185964417541       -4.39812442173821
O           -1.79325019674313       -2.51395490257650        0.43180200128043
H           -1.67412560563085       -2.53028523411145       -0.52543041610882
H           -2.67777381446899       -2.88511625775645        0.56261022916054
O           -2.32236842509464        0.17557807072092       -5.94143725640920
H           -1.78354550787637       -0.04342836931571       -5.16500923719635
H           -2.35982927172750        1.13469195331138       -5.96389180322578
O           -0.83862283434599        1.41558753721810        2.90405684082664
H            0.02812737772212        1.81048037873624        3.03420565490873
H           -1.05066042753738        0.93593347094904        3.70747050875639
O           -1.86630855722175       -4.72554587003739       -3.46784754827182
H           -1.64922122517234       -4.48497074382565       -4.38853188140991
H           -2.12160765424921       -3.88387046239654       -3.04120470343892
O            1.45708948829408       -1.66252716647684       -2.28915667299336
H            1.52114392437847       -2.57703853542721       -1.99969755097788
H            0.68578649088742       -1.60454461230555       -2.87187769649681
O            0.94342840808639        0.62075124880865       -0.93810488679790
H            1.20690548083936       -0.21335303724439       -1.36269388720376
H            1.69989484061010        0.90661532013066       -0.41951912979788
O           -1.07438764168718       -3.20114142526010       -5.68299037113031
H           -1.27942198271983       -2.38925446242347       -5.21171268686511
H           -0.15729447338557       -3.10836342314191       -5.97361547236573
O           -4.28108725422554       -3.23973845709583       -0.74216315662618
H           -3.66922883615082       -2.88069978334632       -1.40107694105165
H           -4.53169345872651       -4.11271766171075       -1.06227374844059
O            0.32144822131061        1.68750330547218       -3.49886243266572
H            0.73440056541581        1.54535084538013       -2.63127412177055
H           -0.03941192185669        0.80604136782248       -3.71443521048321
H            0.48506387612667       -0.45180307408791       -6.50992068095038
H            0.45324978699238       -0.73024979218849       -5.00968735319181
O            1.07566986890654       -0.59199291185774       -5.73608694078178
49
 energy: -80.210244716211 gnorm: 0.069962129879 xtb: 6.7.1 (edcfbbe)
N           -1.46375948257302        0.24780222654074        0.44278901920209
C           -2.62363052081715        1.01149708872880       -0.03272204599553
C           -3.38257822188815        0.33093083785554       -1.17165264761238
C           -2.63015834148341        0.30531972794515       -2.50481587638479
C           -1.86960353481773       -0.98007467003273       -2.82672835475155
O           -0.95039310670393       -0.90814715748768       -3.68924841002976
O           -2.25308038714929       -2.07703468752614       -2.34712854894045
H           -1.17751725368038        0.61838873474917        1.37193667112691
H           -1.67903032861714       -0.77499854229785        0.53161359207229
H           -3.31693299834048        1.14582440673568        0.79786365979250
H           -2.28788812710180        1.99353954645801       -0.36718140867589
H           -4.31406220116365        0.88046477314430       -1.30860702186122
H           -3.64456092702547       -0.69044218500188       -0.89035797605793
H           -1.94954360531736        1.15336125860051       -2.59454913519862
H           -3.34602706281937        0.38040945376894       -3.33208985339255
H           -0.64781182077627        0.34719792543337       -0.19230670033905
O           -4.31068025101943       -2.35761404181936       -4.43383164664667
H           -3.67168573508573       -2.26179172931943       -3.71550106262877
H           -4.87556580833149       -1.57960670284667       -4.42039837951210
O           -1.80128407371810       -2.45746591826535        0.42870212354404
H           -1.69751628748145       -2.54168875084091       -0.53482496348994
H           -2.67213818993659       -2.84909975745191        0.61405494078566
O           -2.31744444820369        0.19705169730978       -5.92753143671313
H           -1.74367322647483       -0.02155832563837       -5.17341642385401
H           -2.29987760953232        1.16728153385671       -5.98600819634498
O           -0.83419789719995        1.40128721745236        2.89553853976447
H            0.01279771084710        1.83292604959802        3.03056146716494
H           -1.05452617997368        0.93219586549583        3.70040799700916
O           -1.87450894121952       -4.73209808928272       -3.46011553192902
H           -1.65050106555711       -4.50684860127816       -4.37620419681635
H           -2.05780455186914       -3.87367755707891       -3.03460818428110
O            1.42293614556055       -1.66872309206536       -2.27737576077484
H            1.55280027413821       -2.60255204557957       -2.03122825354971
H            0.65647731256185       -1.63381552236485       -2.86819319879177
O            0.94816777085760        0.64546700889548       -0.93485744637330
H            1.18084150610439       -0.19464102160508       -1.36731303102031
H            1.72197687608281        0.91091394406977       -0.42952253501043
O           -1.03427295836726       -3.19985757071245       -5.67143512902830
H           -1.22892577358892       -2.37827793913232       -5.20901410354386
H           -0.12605100682630       -3.11799052483851       -5.98966519099583
O           -4.27435372679786       -3.25509663996792       -0.72682057429377
H           -3.66635064214115       -2.90466776724334       -1.39378513794067
H           -4.56311574841413       -4.11508161735717       -1.05656130606915
O            0.22346178004049        1.74120185865594       -3.44310819652331
H            0.73982802126401        1.57642771372864       -2.60595271738783
H           -0.02607393138495        0.79888456389101       -3.68375083914496
H            0.53172851086408       -0.53743473870563       -6.56151336546463
H            0.45343512476015       -0.76328528454753       -5.06143007586514
O            1.04909462612050       -0.57791418392426       -5.79063104102949
49
 energy: -80.212949044558 gnorm: 0.040253949632 xtb: 6.7.1 (edcfbbe)
N           -1.46041427528722        0.25423721936453        0.44136526936116
C           -2.62718218068081        1.01386658203349       -0.03210581535969
C           -3.38158177108045        0.32619691299026       -1.16990339084308
C           -2.62731248787311        0.30662267110983       -2.50221981422550
C           -1.86442140906298       -0.97540220924331       -2.82669278956795
O           -0.95633268450869       -0.90047805669159       -3.70374696526407
O           -2.25982594568531       -2.07893659840872       -2.36195291591385
H           -1.16930852431912        0.61846684080511        1.36932820606529
H           -1.67029320905938       -0.76899327334217        0.52939792394249
H           -3.31343885647643        1.14471599327756        0.80425023803984
H           -2.29275016956143        1.99813995013733       -0.36110642294752
H           -4.31753266525805        0.86894691298467       -1.30274100486343
H           -3.63891449974416       -0.69442173592874       -0.88571999644921
H           -1.94027236059669        1.15022317575726       -2.58275844241850
H           -3.33913534389174        0.40115674447022       -3.33200684212989
H           -0.64663504821157        0.35597158193584       -0.19257424750385
O           -4.34516369903421       -2.38112296271253       -4.42966621062722
H           -3.69664997021032       -2.27426728076524       -3.72084921987123
H           -4.90480456229176       -1.59264864758443       -4.42782513760801
O           -1.80864281542793       -2.43336280426541        0.42899125180415
H           -1.70492696162004       -2.55426284850655       -0.53901823223935
H           -2.66972308099571       -2.84504208365648        0.62790318860276
O           -2.29576783637923        0.21359130865831       -5.93110627302203
H           -1.73974245870117       -0.01549420291781       -5.17446896403328
H           -2.28329403030446        1.18297483710712       -5.99078829835958
O           -0.83103613026890        1.38917688193459        2.88936799115611
H            0.00308591914990        1.85457252998511        3.03746214866533
H           -1.05772964196888        0.93733526040142        3.70712383442383
O           -1.87391652204769       -4.72610986846646       -3.44638218262529
H           -1.63531639195121       -4.50905088995631       -4.35556142792323
H           -2.04092977856551       -3.86333203778504       -3.04211419123498
O            1.40944926535776       -1.67816388164562       -2.27826790126062
H            1.54969293412489       -2.61180190715468       -2.03884667050244
H            0.64319054535355       -1.64471998265814       -2.86939485387102
O            0.95294550427157        0.64847590112235       -0.92865021346961
H            1.18495106734633       -0.18652133501891       -1.38143151761517
H            1.73681900010158        0.91017281323020       -0.43346341440772
O           -1.01658316327475       -3.19985305309044       -5.67001971257589
H           -1.20571485842454       -2.37553795080875       -5.20299291558751
H           -0.11182264329424       -3.12532375921419       -5.99456271714805
O           -4.27585020736648       -3.25738896416566       -0.72362744496008
H           -3.66992942089713       -2.91583622900808       -1.39943075090390
H           -4.57087022176013       -4.11565200859891       -1.04509952448607
O            0.29755875716651        1.69303136741372       -3.45436629575740
H            0.69323472322119        1.60501097365045       -2.57768509516664
H           -0.09312154744988        0.84489812386392       -3.64915918543539
H            0.52480393932207       -0.50435778515106       -6.59096950445199
H            0.44914446758598       -0.78015654457451       -5.08026218709975
O            1.06843093633455       -0.65265691221067       -5.81416925613225
49
 energy: -80.212919972328 gnorm: 0.054583686297 xtb: 6.7.1 (edcfbbe)
N           -1.45234243744687        0.25805795631694        0.44116319352820
C           -2.62533463989506        1.01173907281838       -0.03355101061491
C           -3.37864660950035        0.31950796038010       -1.16676300654870
C           -2.62982305476979        0.30707886079118       -2.50220196795555
C           -1.90600540499406       -0.98574268094526       -2.87541940533038
O           -0.95312825415582       -0.89578856414451       -3.69664425068457
O           -2.25277439545133       -2.06788567599386       -2.35347415128548
H           -1.16466929154012        0.62299129656011        1.36918175122933
H           -1.65698782181168       -0.76645864625227        0.53008184216093
H           -3.31314435742112        1.13425700225476        0.80334019514088
H           -2.29910096606890        2.00067088057209       -0.35960574484075
H           -4.31410273785277        0.86185626886848       -1.30457018494933
H           -3.63657008708914       -0.70085706397285       -0.88106833594776
H           -1.92995451619098        1.14167552084357       -2.57961471396376
H           -3.34415116231425        0.41790059090608       -3.32612625980749
H           -0.63950978609591        0.36617964454513       -0.19210210176824
O           -4.37139751236389       -2.39873677988431       -4.41978315326415
H           -3.70611992872683       -2.27959464773489       -3.72666524143294
H           -4.91913427254964       -1.60617446847773       -4.42074841143855
O           -1.80227718761502       -2.48970848075497        0.43267134824625
H           -1.70582827892826       -2.49918093562254       -0.51622178301976
H           -2.68030880470398       -2.83832582001632        0.60270792183735
O           -2.25119913013541        0.24162199702471       -5.95033214816194
H           -1.74370395534988       -0.01550419073660       -5.17998484370049
H           -2.29655164830465        1.19134779964629       -5.96913365082661
O           -0.83001220932986        1.38936073395556        2.89335812941832
H            0.00057529476089        1.85980956657552        3.04289632913764
H           -1.05749601842122        0.94351805382116        3.71759036479735
O           -1.88049297924259       -4.72144842262050       -3.44128772487230
H           -1.64568853523937       -4.51674376797645       -4.35791449271382
H           -2.00933558569512       -3.83900881620212       -3.02854160244020
O            1.41212650135735       -1.69267950116331       -2.28450011913198
H            1.51488020383343       -2.60060222512778       -2.01987937727997
H            0.64596721641418       -1.64431861758908       -2.87209737202033
O            0.96280836574647        0.64195499699783       -0.93507943973981
H            1.20392979420119       -0.18835786257897       -1.39017938646553
H            1.74071030658492        0.90508503878356       -0.43547368593217
O           -1.00335999725667       -3.19965851373044       -5.66823661342720
H           -1.18289550425591       -2.38416805053336       -5.18527849494316
H           -0.10091346414227       -3.12389641143730       -6.00063456490796
O           -4.28103633534427       -3.25557891810327       -0.72934757821519
H           -3.67694144755275       -2.92410305076946       -1.41272899166578
H           -4.57336579485026       -4.11574020182262       -1.03615511324605
O            0.26634557536701        1.70821526652717       -3.44919839147930
H            0.67869998340081        1.61284704809787       -2.57973053141833
H           -0.07345639694553        0.82902899083871       -3.65728059377339
H            0.51129851750607       -0.46942465802736       -6.59910974432631
H            0.44352238574913       -0.78154884913703       -5.08609503852015
O            1.08331605043482       -0.70657995706725       -5.81874974723710
49
 energy: -80.214746993389 gnorm: 0.034347970861 xtb: 6.7.1 (edcfbbe)
N           -1.44755484484817        0.26229461857267        0.44225866270147
C           -2.62528283069752        1.00987020146084       -0.03019356936807
C           -3.37549415591255        0.31534537153510       -1.16380545563980
C           -2.62507977019467        0.30802608319408       -2.49840541717426
C           -1.89952823206673       -0.98365279868703       -2.87015409324328
O           -0.96097727069652       -0.89767596209647       -3.70902365085722
O           -2.26131599357928       -2.07149909315142       -2.36812149708846
H           -1.16021838725846        0.62716180948105        1.37086883751180
H           -1.64878062403051       -0.76268427776172        0.53096127250270
H           -3.31324131452451        1.12776117699183        0.80741147756746
H           -2.30507266622584        2.00085688334753       -0.35620467029354
H           -4.31526986087524        0.85088743596702       -1.30101957315554
H           -3.62562612184558       -0.70763159376175       -0.87873357778904
H           -1.92186917899537        1.14013172659838       -2.56833225270125
H           -3.33628793423431        0.42825696067925       -3.32354086683411
H           -0.63577771550703        0.37354033978194       -0.19220141803639
O           -4.40007988922145       -2.41104020394346       -4.41996248475084
H           -3.73030641233157       -2.29237507847012       -3.73240574242102
H           -4.94557439995296       -1.61862101229411       -4.41910465605615
O           -1.80321311492792       -2.47605603330488        0.42734115151246
H           -1.71782452028830       -2.51514284571167       -0.52797172701357
H           -2.67670349192102       -2.83666791494219        0.61846105294057
O           -2.28269833206886        0.25351116164294       -5.94142580655850
H           -1.71268349656453       -0.00289387902976       -5.19481029245110
H           -2.26142005259913        1.21643734399697       -5.97606702821540
O           -0.83233729412537        1.40062667515219        2.90438582287172
H           -0.00189350272642        1.85789844806373        3.03982412625992
H           -1.05357756005861        0.93915074620616        3.71574885942532
O           -1.83631787031772       -4.69454943558980       -3.41166586428089
H           -1.66759783985775       -4.52465724184023       -4.36496402716514
H           -2.01623038250408       -3.83816508299407       -3.03553822788003
O            1.39697769307506       -1.68973963842216       -2.27903021694413
H            1.52332732171079       -2.60824458163860       -2.03445755925874
H            0.63420016499741       -1.65048246173686       -2.87283984030046