49
 energy: -80.183718411325 gnorm: 0.077512934552 xtb: 6.7.1 (edcfbbe)
N           -1.47441546060000        0.26201698860000        0.45573988990000
C           -2.65328389390000        1.01542446430000       -0.07538504890000
C           -3.39715055690000        0.32857584070000       -1.21309861940000
C           -2.65779581960000        0.22795251010000       -2.55110759690000
C           -1.84031272870000       -1.03001022460000       -2.82439924560000
O           -0.88968310740000       -0.92710552720000       -3.65204497490000
O           -2.16853722340000       -2.11399089850000       -2.26630190070000
H           -1.20651571390000        0.65369729190000        1.37728305140000
H           -1.67918356250000       -0.74024653310000        0.58919494770000
H           -3.33118413120000        1.15499253880000        0.76540721880000
H           -2.28620417600000        1.99508358700000       -0.38095387590000
H           -4.29819607270000        0.92673576440000       -1.36516099450000
H           -3.73943598320000       -0.65473416910000       -0.89008997490000
H           -2.02052964910000        1.09824639770000       -2.71260470950000
H           -3.39766807840000        0.24592555960000       -3.35865024640000
H           -0.63521307310000        0.34475246570000       -0.14916520950000
O           -4.65598479640000       -1.98994624500000       -4.86896988340000
H           -4.03773288370000       -1.94433679990000       -4.12932343830000
H           -5.22762171330000       -1.19525742250000       -4.78668179380000
O           -1.76848711730000       -2.65381335890000        0.44039052120000
H           -1.61996905180000       -2.53604411030000       -0.51909530010000
H           -2.68862644840000       -2.97635424170000        0.45819789050000
O           -2.83885206100000        0.42532530940000       -6.41119312960000
H           -2.45625192470000        0.18125490980000       -5.54238934500000
H           -2.98911362350000        1.39745270990000       -6.37339272800000
O           -0.86765029830000        1.49420201320000        2.95810460320000
H            0.05797926790000        1.76105554990000        3.03589112990000
H           -1.03270365010000        0.93179732250000        3.72647675900000
O           -2.40251928120000       -4.35552294860000       -3.65157710000000
H           -1.96764332380000       -4.04454009360000       -4.46986711100000
H           -2.87398609280000       -3.54864989650000       -3.34496360050000
O            1.52456023170000       -1.63321024600000       -2.32999625920000
H            1.47616057410000       -2.54177377670000       -1.94818044060000
H            0.71915168740000       -1.53520915080000       -2.87267637900000
O            0.96524811270000        0.60469439640000       -0.96946143410000
H            1.27264857130000       -0.26054320220000       -1.34786370730000
H            1.66054999170000        0.91149081910000       -0.37453829430000
O           -1.38593468020000       -2.76929075150000       -5.75505624350000
H           -1.63183471510000       -2.03239279530000       -5.15206133820000
H           -0.42459014740000       -2.72713435660000       -5.82938359990000
O           -4.28942417700000       -3.21413363060000       -0.77669435180000
H           -3.71205004820000       -2.82980010900000       -1.46576129840000
H           -4.46104674760000       -4.12032477080000       -1.06094139330000
O            0.47830614360000        1.55007734690000       -3.66013115600000
H            0.73901259740000        1.45461031900000       -2.72774504750000
H           -0.04600991960000        0.74047105720000       -3.81577944290000
H            0.49259070300000       -0.51390735740000       -6.40415862000000
H            0.42548159360000       -0.60403499300000       -4.84176967140000
O            1.01031329860000       -0.34434508280000       -5.58427491540000
49
 energy: -80.195678589114 gnorm: 0.046352599346 xtb: 6.7.1 (edcfbbe)
N           -1.47449364808937        0.25942603878806        0.44991626902339
C           -2.64317865551166        1.01651224847868       -0.07168164785543
C           -3.39975671465109        0.33401777432823       -1.20388887944713
C           -2.66118055676485        0.26096709266337       -2.54276129816177
C           -1.84343240067708       -0.99850111115399       -2.79740967254389
O           -0.90905568014054       -0.91745754691533       -3.64212726935565
O           -2.18504971022109       -2.06876498395319       -2.24830456863609
H           -1.20714698392039        0.65490705872836        1.37238034734269
H           -1.68587032321317       -0.74581716489789        0.57779510387423
H           -3.33421837047044        1.15302471691302        0.75999148036397
H           -2.28774481413695        1.99676736126764       -0.39043295413878
H           -4.30492712666411        0.92337828311437       -1.36185600582100
H           -3.72051897196288       -0.66251325643129       -0.89402264655838
H           -2.01392375688733        1.12425170094522       -2.70034804675512
H           -3.39798789742251        0.26398724878271       -3.35396516275410
H           -0.64181416757554        0.34323723513886       -0.16523122063831
O           -4.65716031137226       -1.98348378330108       -4.86126756900351
H           -4.05086315368562       -1.92847239576412       -4.11586527948213
H           -5.24214967367535       -1.21361187795178       -4.78991058017013
O           -1.78503774476774       -2.58655554257314        0.43624185670294
H           -1.62852938255426       -2.57131907533899       -0.52924071831158
H           -2.67678811504538       -2.97806607577090        0.48239997551590
O           -2.86453065037650        0.42545811360809       -6.38654125415470
H           -2.42036267029345        0.20787080488366       -5.55256530280922
H           -2.96476191357440        1.39204669603529       -6.38468451338488
O           -0.85401608444303        1.45607858280835        2.93074034243119
H            0.04683903216928        1.78841860726008        3.04351078974054
H           -1.04224390354298        0.94695139568373        3.72993908531732
O           -2.44811055950520       -4.41892984772732       -3.71381688261836
H           -1.98260850108027       -4.07336603235471       -4.49797267468371
H           -2.81054854114306       -3.59966211382960       -3.30978621786405
O            1.50403075480464       -1.64602891693950       -2.31381772609483
H            1.47416753517964       -2.54934779516281       -1.96042145392425
H            0.71447512768301       -1.55072358399800       -2.87479571820618
O            0.94560449313656        0.59379850538178       -0.93914742439816
H            1.27193189206800       -0.23235860589672       -1.37102235328806
H            1.67163707793761        0.91392468559021       -0.39176699313993
O           -1.37364660477268       -2.77585211701879       -5.75245169123843
H           -1.57983500185199       -2.03748366221857       -5.15518654768941
H           -0.41462941884904       -2.75307011347326       -5.85361260759437
O           -4.29704798947715       -3.21286596442495       -0.77385349194878
H           -3.68134623746436       -2.84551441001175       -1.43411816674152
H           -4.46427461917128       -4.11742998034462       -1.05601092941586
O            0.38806826349014        1.62645440879402       -3.59127556466605
H            0.78215763961103        1.45322386321855       -2.70615031655358
H           -0.04108168909171        0.76849943648052       -3.78653195049506
H            0.48301195387562       -0.48524745257681       -6.43098493920706
H            0.43419058011146       -0.63545749155488       -4.89333848965943
O            1.04241903497980       -0.44611848740866       -5.63095192890395
49
 energy: -80.201625405438 gnorm: 0.027781187895 xtb: 6.7.1 (edcfbbe)
N           -1.47467023496703        0.25481676387405        0.44015373265329
C           -2.63336684322255        1.01738533802246       -0.06404468063341
C           -3.40185749885666        0.34251397853986       -1.19484086641706
C           -2.66567557547737        0.29416536714649       -2.53546256680674
C           -1.87458193367598       -0.98012976384496       -2.80680970057987
O           -0.92765551567595       -0.90640079303282       -3.63519975151244
O           -2.21247384047655       -2.03931332835351       -2.25285247722493
H           -1.20534847579503        0.64864441992148        1.36549888986646
H           -1.69128933977267       -0.75778528120043        0.55429027529961
H           -3.33456290041592        1.15250630206279        0.76066339103095
H           -2.28905929418976        1.99774421314336       -0.39625323931859
H           -4.31507019943729        0.91918199617000       -1.34817235953314
H           -3.69551211813692       -0.66898183500687       -0.90216933960970
H           -2.00472994237553        1.14988476212025       -2.67848147032408
H           -3.39938529502326        0.30286219310540       -3.34845962266444
H           -0.64894797041363        0.34449027380827       -0.18624134137121
O           -4.66590515021470       -1.97757584026951       -4.84841820413379
H           -4.07627247717042       -1.91272148012108       -4.09285020775326
H           -5.26832824226805       -1.23366102695230       -4.79419521819264
O           -1.77750686854640       -2.54712197110928        0.43376748601867
H           -1.64735643813935       -2.54698047854001       -0.52789573863257
H           -2.66270138604322       -2.93386795282918        0.52796680995040
O           -2.86033284400640        0.43306356043032       -6.36268899648590
H           -2.37972604815844        0.24070324305321       -5.55361502634598
H           -2.94384462502621        1.38892693931527       -6.39553597541753
O           -0.84923301416441        1.43127233692104        2.90333381561055
H            0.02692848461770        1.82062097699158        3.04133552141355
H           -1.05778314614391        0.96025417579902        3.72014228529469
O           -2.43173022493968       -4.46056303178155       -3.73477149387562
H           -2.04993334948354       -4.13057918897324       -4.56409628765566
H           -2.73970582826266       -3.65442305951309       -3.27967417614357
O            1.47836683726324       -1.66220319387642       -2.29980954900596
H            1.48230715420448       -2.56315036736749       -1.97690418408217
H            0.69736170026729       -1.57371381219908       -2.86821272245808
O            0.94133564702688        0.59860243625685       -0.93504363853383
H            1.23938727810257       -0.22483972769526       -1.36842562691743
H            1.68681672775425        0.90510704544043       -0.40982463038482
O           -1.34406947035748       -2.79189792140524       -5.74405917134465
H           -1.49500280492917       -2.05074511508054       -5.14549628647085
H           -0.38872857881805       -2.79453132652464       -5.89450902409795
O           -4.28701061197938       -3.22596417873440       -0.75512647623505
H           -3.65569025387850       -2.85666043253054       -1.39405739805336
H           -4.47159701178979       -4.11803115295320       -1.05867096895687
O            0.39715178775901        1.63218033285605       -3.55217031142939
H            0.73325775204956        1.50698626921484       -2.65938806523477
H           -0.08001649592710        0.81565023578340       -3.73605397016007
H            0.50611095469181       -0.49082931808850       -6.46509597279356
H            0.43497150094830       -0.68385329755707       -4.95428169086318
O            1.05132686447433       -0.50185581453575       -5.67349718748623
49
 energy: -80.206110870269 gnorm: 0.037883347221 xtb: 6.7.1 (edcfbbe)
N           -1.47591939982975        0.25325747615343        0.43552405145291
C           -2.63002962981397        1.02192521514914       -0.05126372669491
C           -3.40337313907290        0.35405344126594       -1.18602795800033
C           -2.66750362610685        0.32099613681680       -2.52720053138981
C           -1.89471750524237       -0.96588434523853       -2.81510470056159
O           -0.95377302380064       -0.89617909832891       -3.65138627924005
O           -2.24686319564236       -2.03089237958761       -2.27800147754052
H           -1.19938493920202        0.63741813610203        1.36380692585349
H           -1.69426619071023       -0.76581194185811        0.53494920670407
H           -3.33014659155902        1.15726963932694        0.77430752069085
H           -2.28881730393521        2.00189742871774       -0.38716203463331
H           -4.32668677855695        0.91699417131460       -1.32420113147733
H           -3.67507713949032       -0.66723366911869       -0.90695249223934
H           -1.99777776267182        1.17282268867165       -2.65030334892180
H           -3.39656888748820        0.35279108419018       -3.34299467220313
H           -0.65490769535492        0.34678958526406       -0.19674167589213
O           -4.67095212352040       -1.97557420481166       -4.83164641609430
H           -4.10600360098141       -1.89418484674479       -4.05778810238226
H           -5.30910644777616       -1.25965936179179       -4.79687008154222
O           -1.77874039028577       -2.50853787227435        0.43279461551061
H           -1.67288032708881       -2.52609214205509       -0.52788743696401
H           -2.65967990824343       -2.88550129064264        0.57682259498536
O           -2.88742076389457        0.42856936103666       -6.32135298761153
H           -2.31619008008426        0.27630643836003       -5.54950642428915
H           -2.91002497851893        1.39112549500617       -6.42285171494359
O           -0.85043932129396        1.42647073241233        2.89585050936958
H            0.01302564060445        1.82763995930444        3.02749071052496
H           -1.06507569902476        0.95246320009601        3.70165005551892
O           -2.42431637243014       -4.49978127600177       -3.75951783875082
H           -2.09421320714487       -4.18736938013180       -4.62033251414098
H           -2.65303015769379       -3.69128493822539       -3.25986657890951
O            1.44646836593370       -1.67006556775305       -2.28864436602182
H            1.49989765598278       -2.58622446377852       -2.00768969392775
H            0.66950341380294       -1.59060726976121       -2.86119248796058
O            0.94370105048477        0.61606901684065       -0.93430810886355
H            1.20449498078102       -0.21644563661005       -1.36152376877562
H            1.70299285027779        0.89997509512026       -0.41864973801138
O           -1.31050772770026       -2.80766473775918       -5.74525256241362
H           -1.39287784971110       -2.07632912476993       -5.11356749085771
H           -0.36027087529707       -2.85117458932547       -5.94915654083107
O           -4.27844978854469       -3.23852112108904       -0.74121961707467
H           -3.64903557262561       -2.85956602394286       -1.37198329286057
H           -4.49145443614133       -4.11582899265937       -1.07237678531750
O            0.30370029456412        1.68848433881259       -3.49656814286033
H            0.74175307330352        1.52963361356977       -2.63843322315578
H           -0.05897559619537        0.80746469275278       -3.71544276533590
H            0.50904438204719       -0.45559599443533       -6.49982457057871
H            0.43168321030030       -0.69363757806567       -4.99513035381273
O            1.07785395559264       -0.59558662962298       -5.71347596553145
49
 energy: -80.207058966665 gnorm: 0.066895175376 xtb: 6.7.1 (edcfbbe)
N           -1.47697275820425        0.25904618837877        0.43012120322954
C           -2.63231749728820        1.03093313726161       -0.04062193550837
C           -3.40573970065351        0.36332157010589       -1.17821780311975
C           -2.66801824125706        0.34367380049809       -2.51896301193076
C           -1.90814064788271       -0.95144435125540       -2.82360566080706
O           -0.98457128945227       -0.88628735183012       -3.68294957077596
O           -2.28644443594626       -2.02952677451386       -2.31528967724377
H           -1.18937275056896        0.62998573458278        1.35932886442154
H           -1.69266335934977       -0.76481891406701        0.51838342764260
H           -3.32414474188604        1.16602241319081        0.79112933369530
H           -2.29187264565863        2.01122965599390       -0.37507969515156
H           -4.33952257619946        0.91171325543914       -1.30012417715576
H           -3.66001030396724       -0.66305479744735       -0.90678720977511
H           -1.98808231512848        1.19017851304808       -2.62053702451570
H           -3.39101597610179        0.40870975320813       -3.33892295152868
H           -0.66095603885115        0.35549167515078       -0.20535677303045
O           -4.67654181845224       -1.97799143533219       -4.81202413497836
H           -4.14084762854910       -1.87385482403053       -4.01695502246524
H           -5.35870034523610       -1.29225885556191       -4.79899766347537
O           -1.78842640420038       -2.44667333357083        0.43036116172435
H           -1.69723685952645       -2.53509505308195       -0.53708826696300
H           -2.65146901015713       -2.85234258830802        0.62859011086345
O           -2.83606405522639        0.44521505453897       -6.30224091701715
H           -2.29796011496315        0.29739832791722       -5.52918336551651
H           -2.89197760496916        1.39643142965434       -6.43122540462934
O           -0.84849041081676        1.41330613522203        2.88405774135680
H           -0.00615553108418        1.85319181247093        3.02180265975372
H           -1.07393253032845        0.95375103076712        3.69301344283361
O           -2.44738398777326       -4.54463746205775       -3.79908377889250
H           -2.09561259338258       -4.23551797657306       -4.64503710382270
H           -2.55427442683487       -3.71534268356027       -3.25573475653296
O            1.40401455064710       -1.67864466361382       -2.27712664043161
H            1.51930334219491       -2.61817293554963       -2.05004771933256
H            0.63291053744291       -1.61290727120762       -2.85867098511909
O            0.94864752024450        0.63400412264974       -0.92658310444423
H            1.17977831444225       -0.20198646256604       -1.36534136356187
H            1.72686680525591        0.89726213167456       -0.42642425679008
O           -1.26808667709695       -2.82374620403195       -5.75341828072386
H           -1.28587582089577       -2.12197389142293       -5.06618506658639
H           -0.32763796402105       -2.90742067008884       -5.99768679351567
O           -4.27185274129391       -3.25006078261109       -0.72717066611490
H           -3.64934320471472       -2.86572766455450       -1.35925874056478
H           -4.51171382062313       -4.11498869722736       -1.07750285790430
O            0.22692559124302        1.72817701784309       -3.44414539948621
H            0.73554416906380        1.55835489112409       -2.60941002518294
H           -0.06561815991613        0.81165674011466       -3.68173039266770
H            0.55676606922810       -0.52111657751679       -6.54621610274062
H            0.43034725035237       -0.72196548550576       -5.04411318662171
O            1.05260367934436       -0.58231421384768       -5.75793386689940
49
 energy: -80.209782719336 gnorm: 0.045250137205 xtb: 6.7.1 (edcfbbe)
N           -1.47707948907124        0.26968651949160        0.42511432472414
C           -2.64007975317917        1.03866999728501       -0.04096318380921
C           -3.40869574502586        0.36261310570075       -1.17660914147382
C           -2.67001753905352        0.34757955241794       -2.51709536605859
C           -1.92192847617972       -0.94957143159630       -2.84273612292609
O           -1.00574077274074       -0.88248949031727       -3.71230451040882
O           -2.31244275545260       -2.03638956762619       -2.34759280600802
H           -1.18245989042716        0.63195243094262        1.35272543634024
H           -1.68621029942636       -0.75494349738803        0.51227037281156
H           -3.32181310950489        1.17158038429830        0.79864566846092
H           -2.29954378754637        2.02077950925122       -0.36971245633627
H           -4.34642247249098        0.90494206072354       -1.29284996127722
H           -3.66073285069902       -0.66089959764867       -0.90124861365856
H           -1.97988201371666        1.18750995591814       -2.60756443201491
H           -3.38990025482268        0.44096087408074       -3.33874068949788
H           -0.66369647562611        0.36846310459838       -0.20892494851017
O           -4.68904212585395       -1.98047158905077       -4.79872653503489
H           -4.16683531388087       -1.86781765668591       -3.99544755942664
H           -5.38837457845601       -1.30661297105560       -4.79063256609608
O           -1.78906881851813       -2.42147326986061        0.42821169654126
H           -1.70355747753150       -2.53718206551542       -0.54159335540670
H           -2.64044330751283       -2.84447412564804        0.64522685287137
O           -2.82499602262476        0.45085793293579       -6.28089907726762
H           -2.26237595417864        0.31272558079244       -5.52213990315187
H           -2.86974939953119        1.40189103768904       -6.44075370875245
O           -0.85120134865306        1.40381462502972        2.87196952681170
H           -0.02676317771840        1.88813627514947        3.02671145200840
H           -1.08692436186042        0.96936567230345        3.69813208983751
O           -2.41767787976341       -4.54154811957566       -3.77918427546711
H           -2.08551594224212       -4.25405284854387       -4.64188437574598
H           -2.53778686532024       -3.72573070478259       -3.29343074580441
O            1.37818736487260       -1.69019280567145       -2.27562306621132
H            1.51238191043895       -2.63378171141458       -2.06478904253928
H            0.60875736801939       -1.62790758965995       -2.86041220823100
O            0.95487006261639        0.63846201494067       -0.91994440328296
H            1.17946097416856       -0.19521602234242       -1.37814220138879
H            1.74429515505690        0.89338096729168       -0.42981815992281
O           -1.22791547707222       -2.84019953632771       -5.75582154676310
H           -1.24075115648520       -2.15977315386924       -5.04826381358237
H           -0.29875903957286       -2.92272756850426       -6.00098718077105
O           -4.26638846025583       -3.25867948357485       -0.71560957959008
H           -3.65555123261420       -2.87444282107106       -1.36067792848680
H           -4.51499879766393       -4.11996218968815       -1.06593449061448
O            0.28005410110551        1.68734013469657       -3.44520309865157
H            0.67578154079821        1.59224465872423       -2.57618695159294
H           -0.12197610803681        0.84598681086743       -3.64980266009643
H            0.56523772522094       -0.47862253993000       -6.57612150642685
H            0.42502856372461       -0.73307473672112       -5.06412072934466
O            1.07790460528965       -0.66152364115787       -5.77671792678129
49
 energy: -80.209549557640 gnorm: 0.065348792598 xtb: 6.7.1 (edcfbbe)
N           -1.47086450426711        0.27716688917881        0.42426752109227
C           -2.64098366568061        1.04110504707466       -0.04196080625484
C           -3.40705463703981        0.35883174025759       -1.17326503452546
C           -2.67312457542442        0.34730105960728       -2.51667556714262
C           -1.95816443694004       -0.95658717897991       -2.88753575021530
O           -1.01446131430676       -0.87969214830651       -3.72249664762024
O           -2.31246351180809       -2.03007035890042       -2.35179603927617
H           -1.17702120472402        0.63645325840146        1.35208939953715
H           -1.67504459362360       -0.74865350986424        0.51117954196928
H           -3.32023757153230        1.16766778440228        0.80095173854445
H           -2.30635038550970        2.02735053143621       -0.36652818199366
H           -4.34436390472949        0.90103617007983       -1.29341938155586
H           -3.66124750535210       -0.66252679795442       -0.89261711598550
H           -1.96873188416085        1.17729457639457       -2.60113105972953
H           -3.39469488715617        0.46349050442074       -3.33409663127631
H           -0.65846998623518        0.38136818161897       -0.20858673160632
O           -4.72504629847875       -1.99134755952403       -4.77960582920227
H           -4.18390054432704       -1.88260055290380       -3.99602503656908
H           -5.39157838147929       -1.30239583253873       -4.76794243921095
O           -1.78420948712363       -2.47727031253054        0.43102763983021
H           -1.70564238261246       -2.47617790507509       -0.51767090323194
H           -2.65453578121622       -2.82507591153207        0.62115612508120
O           -2.86593730899183        0.44894782946517       -6.24819225168639
H           -2.18933276015720        0.33006171074072       -5.53245592860470
H           -2.84395229274503        1.40790072202148       -6.43959039065041
O           -0.85436920073606        1.41154496676469        2.87919923696957
H           -0.03129745331187        1.88731404600597        3.02602598040603
H           -1.09015487758256        0.97296484078790        3.70317767130169
O           -2.44655617374803       -4.55703425292523       -3.79672431371670
H           -2.09000278815947       -4.27324260437676       -4.64763811774087
H           -2.46992230748617       -3.70707654527199       -3.27232244639255
O            1.37266646103704       -1.70409254564200       -2.28764731252864
H            1.47337196508738       -2.62020128475504       -2.04775839947861
H            0.60197153031768       -1.63060993771312       -2.86740518258501
O            0.96809748927213        0.63686135920667       -0.92945079057626
H            1.19098240677156       -0.19949714654553       -1.38355273791108
H            1.74982032432187        0.88477165487853       -0.42915597299982
O           -1.18557271424962       -2.86972255617862       -5.72968138997635
H           -1.22344740030876       -2.17787077918510       -5.05964841387056
H           -0.26619306097609       -2.91187121218303       -5.99438571620422
O           -4.27087582896998       -3.25869238701069       -0.71984443633633
H           -3.66898199699652       -2.88051531919402       -1.37990718163096
H           -4.52452821552802       -4.11935612183798       -1.06093202217726
O            0.25442175012845        1.69557771096874       -3.44034132323599
H            0.65539712375048        1.60503146956403       -2.57248964911466
H           -0.12320285396265        0.83953173452446       -3.64923540412228
H            0.57379617877378       -0.46686290039275       -6.59272151655525
H            0.41576749248600       -0.73002421840962       -5.07726085163133
O            1.08488679669357       -0.69132343816809       -5.78558335761331
49
 energy: -80.208581052743 gnorm: 0.079342973376 xtb: 6.7.1 (edcfbbe)
N           -1.46587151068477        0.28326038596304        0.42416575843590
C           -2.64052919500890        1.04160025971485       -0.04187279686369
C           -3.40598290726531        0.35657115957241       -1.17031965962670
C           -2.67369350579276        0.34925642779885       -2.51464788010475
C           -1.97449477665086       -0.95690625631354       -2.90468714728131
O           -1.02548313677675       -0.87700187522766       -3.73123461197833
O           -2.32635337492445       -2.02877008948975       -2.37216033246753
H           -1.17431810811039        0.64282494459052        1.35299026816327
H           -1.66825437845964       -0.74215810851987        0.51181647470301
H           -3.32153894724802        1.16261879101499        0.80103008590656
H           -2.31324160955981        2.03090711784325       -0.36629838079362
H           -4.34412896251851        0.89682213650816       -1.29548093069787
H           -3.65703121373996       -0.66649901114986       -0.88786862874959
H           -1.95939558262810        1.17212890552739       -2.59159219241010
H           -3.39336712079834        0.47949010003831       -3.33109971995390
H           -0.65416447115634        0.39082195106923       -0.20962138501917
O           -4.74743796301491       -1.99551898449424       -4.76692477867405
H           -4.20177291202349       -1.88841213211664       -3.98854866241858
H           -5.40494113616586       -1.30567936451066       -4.75074330793193
O           -1.78475820331842       -2.48806234727798        0.42166390587804
H           -1.72381802799068       -2.46986319664293       -0.52618647343461
H           -2.65935286330996       -2.81871467289228        0.62338464086683
O           -2.77546926193377        0.47326631185450       -6.27267528874934
H           -2.22667561050762        0.31245106617655       -5.51870658157226
H           -2.85059075335089        1.40822353707361       -6.40861408490012
O           -0.85744107622390        1.41922222464251        2.88998551688026
H           -0.03591156871231        1.88690354399844        3.02706910316867
H           -1.08782829939560        0.96968222844755        3.70531745499001
O           -2.36661411248214       -4.52900771027180       -3.74162452346445
H           -2.11564584780092       -4.28927336826530       -4.66739431316640
H           -2.47508707388957       -3.71460162415484       -3.28729863591809
O            1.35984421230295       -1.70501645752848       -2.28962295545090
H            1.46150070484586       -2.61621211291674       -2.05365915157945
H            0.59193474879296       -1.63342264059195       -2.87241435266376