49
 energy: -80.252659045836 gnorm: 0.000223136320 xtb: 6.7.1 (edcfbbe)
N           -1.27650218803975        0.13417455315140        0.41643582915371
C           -2.43903377970889        0.96935473654258        0.06433928465743
C           -3.20788360818888        0.36778511548088       -1.10663553625925
C           -2.45138285473619        0.48719037991464       -2.42844603120305
C           -2.47621566080425       -0.75069380338592       -3.32048336564821
O           -1.92646383938090       -0.63952343817374       -4.45043644680594
O           -2.98424873624421       -1.82127302141866       -2.91319811929448
H           -0.83423694547987        0.49764385745636        1.27860851424472
H           -1.58716929509422       -0.85521824286825        0.59119602808330
H           -3.09637288236753        1.02519725300528        0.93152020306082
H           -2.10041850294945        1.97520186597349       -0.18577711938919
H           -4.17716398790826        0.85771647655480       -1.19439974290456
H           -3.40027389833134       -0.68291279334170       -0.89640189719060
H           -1.39402522411998        0.68712222470119       -2.25061950578778
H           -2.82696808072986        1.31211654298742       -3.03694998911883
H           -0.57134044207465        0.12829840002742       -0.34282411355065
O           -4.14785475392660       -4.25723670488901       -3.62345030136611
H           -3.75025785796676       -3.37323470835101       -3.54499502252562
H           -4.25923958024363       -4.41802605130926       -4.56391373399914
O           -2.12096274366559       -2.44871259703576        0.80353733068692
H           -1.64310533374864       -2.95011226653773        0.12100969290908
H           -3.05604932137088       -2.56812793700969        0.57111310974297
O           -2.58461531659778        1.85217429034207       -5.59143182295439
H           -2.39437196234136        0.93098041213909       -5.34427676438642
H           -1.72605519082543        2.28903428241265       -5.63117876823153
O           -0.29917792765718        1.25455110885028        2.78606211155027
H            0.41826229409325        1.88645341697931        2.88227992644054
H           -0.36459443533884        0.75486645293043        3.60438902355868
O           -1.29305600588230       -3.59230338284264       -1.59254507089664
H           -1.47221115489803       -4.48286334192174       -1.90719771620027
H           -1.89120446397642       -3.00662255761132       -2.09124015269286
O            1.01708357544754       -2.30035775210444       -2.36211766636557
H            0.30345347810309       -2.83256056548171       -1.96373478877534
H            0.86318551724766       -2.36523711785477       -3.32704461767038
O            0.76552830262058        0.22737658367760       -1.60009692610616
H            0.87146361334578       -0.72048651241975       -1.86798912986192
H            1.62225286662688        0.49224841552840       -1.25162340181807
O            0.25441559705622       -2.34271710935741       -4.98896869664527
H           -0.56906366346584       -1.82705100517523       -4.93591493371982
H            0.88955453576651       -1.77166698642233       -5.46458948432062
O           -4.46525057252080       -2.87356527375181       -0.69375404561308
H           -4.07159957737303       -2.53386757508118       -1.51374802827667
H           -4.92428664873610       -3.67902125702118       -0.94666275613418
O            0.33354039860042        0.98599383220448       -4.28726858909486
H            0.60090843111836        0.84728084843228       -3.35886257357452
H           -0.45856659158361        0.42735806067094       -4.39838286450590
H            1.74675031198617        0.01883101887709       -6.94282884874429
H            1.42958028518788        0.23689952682548       -5.43516020637941
O            1.87022933328890       -0.36898147506039       -6.07197047207650
