49
 energy: -80.248169997448 gnorm: 0.000239914299 xtb: 6.7.1 (edcfbbe)
N           -1.30953897266252        0.18008396219743        0.25037146794808
C           -2.55200723710695        0.92404910413141       -0.02544625168976
C           -3.34889050293342        0.27209622820126       -1.14912649937278
C           -2.64156824360143        0.34815174820132       -2.50138664227959
C           -2.71443929259014       -0.92477237484041       -3.34044199203651
O           -2.04907327254751       -0.92656724140170       -4.41370344534506
O           -3.38479612743904       -1.91080386385769       -2.95743519273430
H           -0.90850172053890        0.49061138267880        1.15180629017048
H           -1.49630049895206       -0.85242547416804        0.31371288778368
H           -3.16108836336164        0.92940453119514        0.87798070394619
H           -2.30307492892123        1.95259852190306       -0.28857381858576
H           -4.32791843680172        0.74580851106435       -1.21752590096332
H           -3.51981590809653       -0.77332052836344       -0.89614449331750
H           -1.57976998298856        0.56093078069942       -2.37909877634594
H           -3.04813019322557        1.14452717009616       -3.12954768612969
H           -0.60947394416680        0.33090358287563       -0.49886848632374
O           -5.72839083113744       -3.06516863622671       -3.99452641347872
H           -4.86336129043402       -2.70087506142966       -3.74552750298903
H           -6.32505534146070       -2.31427320240391       -4.07440564774748
O           -1.76313583715008       -2.52401064116126        0.41454171645404
H           -1.38656237882891       -3.00145539051138       -0.34238954846083
H           -2.71565821038203       -2.70911447053888        0.36098544276971
O           -2.54611860958696        1.46971897823962       -5.84015485808404
H           -2.44747548199997        0.56375902746200       -5.50462868195653
H           -1.64727277244490        1.81822907434780       -5.88492686889785
O           -0.50205093700721        1.10236756188238        2.76692598049811
H            0.14218624672905        1.77950174666136        2.99085852664054
H           -0.54782765414875        0.48316438635068        3.50052320187299
O           -1.42476998050902       -3.77524774954829       -2.07694910120578
H           -0.77205762000884       -3.82456241345028       -2.78574517598137
H           -2.15147024308496       -3.24393399938195       -2.43907997324522
O            1.32178288451582       -1.90397437631422       -2.05716028365557
H            2.18022379100821       -2.33461961646656       -2.04473447194704
H            0.86125355565424       -2.22018648898254       -2.85977433922701
O            0.67172717956136        0.66106759052030       -1.72321813354974
H            0.95022720228305       -0.27792191781674       -1.81959258497491
H            1.43270270097242        1.13458746840500       -1.37307510145017
O            0.07645585301471       -2.72538577978525       -4.35774241812102
H           -0.73220349872995       -2.19867250964908       -4.48920751690682
H            0.73104902925634       -2.32989047224884       -4.96988942652764
O           -4.37853289004089       -2.98723429944900       -0.49354280162496
H           -4.15587895092408       -2.70587987401854       -1.39506546881626
H           -4.87305328814435       -3.80613396230747       -0.58321481666584
O            0.20452760057858        0.69201879158144       -4.50888826802594
H            0.44216047777934        0.82548672602294       -3.57246062660624
H           -0.59396796707956        0.12984078491604       -4.48435795362353
H            1.64046994559224       -0.96730967083130       -6.78376016448886
H            1.29246137596261       -0.36111943040703       -5.39513148060243
O            1.73842325202807       -1.11715944537295       -5.83977529785348
