49
 energy: -80.197331667704 gnorm: 0.070865641006 xtb: 6.7.1 (edcfbbe)
N           -1.47441546060000        0.26201698860000        0.45573988990000
C           -2.65328389390000        1.01542446430000       -0.07538504890000
C           -3.39715055690000        0.32857584070000       -1.21309861940000
C           -2.65779581960000        0.22795251010000       -2.55110759690000
C           -1.84031272870000       -1.03001022460000       -2.82439924560000
O           -0.88968310740000       -0.92710552720000       -3.65204497490000
O           -2.16853722340000       -2.11399089850000       -2.26630190070000
H           -1.20651571390000        0.65369729190000        1.37728305140000
H           -1.67918356250000       -0.74024653310000        0.58919494770000
H           -3.33118413120000        1.15499253880000        0.76540721880000
H           -2.28620417600000        1.99508358700000       -0.38095387590000
H           -4.29819607270000        0.92673576440000       -1.36516099450000
H           -3.73943598320000       -0.65473416910000       -0.89008997490000
H           -2.02052964910000        1.09824639770000       -2.71260470950000
H           -3.39766807840000        0.24592555960000       -3.35865024640000
H           -0.63521307310000        0.34475246570000       -0.14916520950000
O           -4.11404250060000       -2.26869403660000       -4.42798542280000
H           -3.49579058790000       -2.22308459150000       -3.68833897770000
H           -4.68567941750000       -1.47400521410000       -4.34569733320000
O           -1.76848711730000       -2.65381335890000        0.44039052120000
H           -1.61996905180000       -2.53604411030000       -0.51909530010000
H           -2.68862644840000       -2.97635424170000        0.45819789050000
O           -2.29690976520000        0.14657751780000       -5.97020866900000
H           -1.91430962890000       -0.09749288180000       -5.10140488440000
H           -2.44717132770000        1.11870491830000       -5.93240826740000
O           -0.86765029830000        1.49420201320000        2.95810460320000
H            0.05797926790000        1.76105554990000        3.03589112990000
H           -1.03270365010000        0.93179732250000        3.72647675900000
O           -0.94596470310000       -4.47108995070000       -3.08117310660000
H           -0.61331500210000       -4.20187542130000       -3.95997552480000
H           -1.42603065160000       -3.66612011000000       -2.78301684670000
O            1.52456023170000       -1.63321024600000       -2.32999625920000
H            1.47616057410000       -2.54177377670000       -1.94818044060000
H            0.71915168740000       -1.53520915080000       -2.87267637900000
O            0.96524811270000        0.60469439640000       -0.96946143410000
H            1.27264857130000       -0.26054320220000       -1.34786370730000
H            1.66054999170000        0.91149081910000       -0.37453829430000
O           -0.23318651620000       -2.99981512030000       -5.38367152590000
H           -0.45543186160000       -2.23238354410000       -4.81030945610000
H            0.71209139050000       -2.91946623690000       -5.56109408460000
O           -4.28942417700000       -3.21413363060000       -0.77669435180000
H           -3.71205004820000       -2.82980010900000       -1.46576129840000
H           -4.46104674760000       -4.12032477080000       -1.06094139330000
O            0.47830614360000        1.55007734690000       -3.66013115600000
H            0.73901259740000        1.45461031900000       -2.72774504750000
H           -0.04600991960000        0.74047105720000       -3.81577944290000
H            0.49259070300000       -0.51390735740000       -6.40415862000000
H            0.42548159360000       -0.60403499300000       -4.84176967140000
O            1.01031329860000       -0.34434508280000       -5.58427491540000
49
 energy: -80.207336618494 gnorm: 0.041814939461 xtb: 6.7.1 (edcfbbe)
N           -1.47290345220196        0.25775696252044        0.45188380346732
C           -2.64144586914443        1.01377228908931       -0.07126834207749
C           -3.39483396259139        0.32653794722632       -1.20316792372996
C           -2.65023134845924        0.24504966189827       -2.53908797461791
C           -1.83310207764815       -1.01276056781416       -2.80483894820709
O           -0.89524733932902       -0.92279836485100       -3.64480516620280
O           -2.17088988215574       -2.09697421578874       -2.27102479197164
H           -1.20635726386982        0.65399042681499        1.37416338838279
H           -1.68425159919417       -0.74718443057739        0.58114659945376
H           -3.33333194991933        1.15179982474518        0.75950153970163
H           -2.28617934066273        1.99400345508910       -0.39042839620703
H           -4.29771052165007        0.91867681489832       -1.36568993215456
H           -3.72144415291958       -0.66645611084367       -0.89029189739762
H           -2.00613669013032        1.11169618818197       -2.69422263112355
H           -3.38578623967350        0.25389491777449       -3.35124958961292
H           -0.63958816654559        0.34163446557687       -0.16246653968164
O           -4.14430346833771       -2.27966243159423       -4.43633357682623
H           -3.51923761549636       -2.24874756672613       -3.70127722326201
H           -4.70200528914315       -1.49221374096943       -4.34885636097424
O           -1.78951072037131       -2.58855046992866        0.43979810667044
H           -1.62669143149432       -2.56823953747020       -0.52328749450763
H           -2.68161195760243       -2.97946065827839        0.47954839375213
O           -2.33055153881843        0.15425213043978       -5.96357619349401
H           -1.87429279071503       -0.08912024328797       -5.13799294981794
H           -2.42155890290193        1.12057477780264       -5.93584496403753
O           -0.85111023242634        1.45386694747312        2.93296162491069
H            0.05077883545653        1.78315992436174        3.04370190662170
H           -1.03845885681502        0.94252934739523        3.73069703741511
O           -0.91449396372450       -4.45639571913021       -3.06294334223675
H           -0.64837020804838       -4.22740876507266       -3.97540097081635
H           -1.42239550275867       -3.66734017151421       -2.78169387770555
O            1.51007565799189       -1.64882229236543       -2.31211873439153
H            1.47416734827082       -2.55044384443608       -1.95573478695809
H            0.72116348403062       -1.55119998542276       -2.87199447529786
O            0.94574060802185        0.59284820291240       -0.94106303034995
H            1.27491910657770       -0.23394959830240       -1.36913466787895
H            1.66904252713611        0.91555189264782       -0.39198616176048
O           -0.22134511106065       -3.04427589916233       -5.36496010951331
H           -0.49178131221215       -2.27729484047958       -4.81835002730297
H            0.71369555679683       -2.90134033523410       -5.56451382477283
O           -4.28800129994981       -3.21516538315656       -0.77334675647501
H           -3.69556299243442       -2.85053786316582       -1.45376349080961
H           -4.47939223317017       -4.11478799212814       -1.05600342355577
O            0.39565291633721        1.62781824071214       -3.59248523972870
H            0.78112181199995        1.45528908759008       -2.70495830979963
H           -0.03491625706962        0.77248136371099       -3.79124803132260
H            0.47894032547796       -0.48788364696480       -6.42383135911716
H            0.46408289283383       -0.56624573296886       -4.88467700919763
O            1.06063598191377       -0.41844828212744       -5.64411207148095
49
 energy: -80.211709999257 gnorm: 0.025455144509 xtb: 6.7.1 (edcfbbe)
N           -1.46972555131406        0.25070625852030        0.44597938255844
C           -2.62819553002001        1.01023885555497       -0.06235325040171
C           -3.38888902449143        0.32576103543719       -1.19296165111694
C           -2.64042712485600        0.26722786996844       -2.52779053284278
C           -1.84357900534955       -0.99730716787617       -2.81337158482208
O           -0.89450407764156       -0.90988934969626       -3.63904489098809
O           -2.17451155308179       -2.07944156984625       -2.28597322341453
H           -1.20139673930436        0.64598485878713        1.37067545817833
H           -1.68744877996591       -0.76072433970815        0.56369491446676
H           -3.33161571073825        1.14822459807110        0.76006919677158
H           -2.28477469883199        1.99047174766414       -0.39608990400950
H           -4.29795130208268        0.90654457272633       -1.35752436148835
H           -3.69258711922925       -0.67936794652976       -0.89303430387320
H           -1.98601779282562        1.12930113540626       -2.66616554122631
H           -3.37015619790483        0.27967809640964       -3.34454667094165
H           -0.64286761602258        0.33898039344800       -0.17914530635025
O           -4.19233126802555       -2.30727276326064       -4.43953864604182
H           -3.55054595540983       -2.27922838073559       -3.71858445746604
H           -4.73314462203321       -1.52159819635378       -4.35792900197653
O           -1.79926530860888       -2.53964586978854        0.44320323964961
H           -1.63898883009777       -2.56416277948109       -0.51534886764323
H           -2.67972544408406       -2.94204768967226        0.51761106924959
O           -2.33009488428541        0.16955927761672       -5.96487754745885
H           -1.84128498991046       -0.08487161480562       -5.16966458951166
H           -2.39769751739680        1.12488853666690       -5.93647206031816
O           -0.83681805760737        1.42054020532855        2.90894017187707
H            0.04093256978369        1.80591650700163        3.04399313628029
H           -1.04417315057123        0.94728307702154        3.72447466604803
O           -0.90211700557715       -4.45266695113813       -3.05245729830340
H           -0.65986249629723       -4.25305713899751       -3.97634675769860
H           -1.40201034962792       -3.66569036513103       -2.77152044315445
O            1.49085554204830       -1.66839690567350       -2.29455536308532
H            1.48041395403055       -2.56695920994544       -1.96688293202302
H            0.71495218368311       -1.57799711483560       -2.86791297385385
O            0.94144849489777        0.59698691276450       -0.93821958457506
H            1.24843105786565       -0.22570815172824       -1.36674672873473
H            1.68116547048247        0.91033639173585       -0.40985268649027
O           -0.20885597508140       -3.08433396317775       -5.34054506770049
H           -0.50981094162196       -2.31194789244515       -4.82546543298051
H            0.71091972013224       -2.88394566207156       -5.58087750008225
O           -4.28220079703390       -3.22238947111746       -0.76465609852630
H           -3.67362173829349       -2.87720887638414       -1.43586676011955
H           -4.50921055272086       -4.11072639353720       -1.05265480706911
O            0.39638613066023        1.65174600496650       -3.54258169042683
H            0.75459621729213        1.50993174026059       -2.65714958161959
H           -0.07841795066825        0.83681787224368       -3.72948716457688
H            0.50508364184460       -0.47738823043894       -6.46454289141001
H            0.50046234503630       -0.59831156073831       -4.95525059472949
O            1.08416384305446       -0.44136421338648       -5.70128068202793
49
 energy: -80.214552085492 gnorm: 0.028051087057 xtb: 6.7.1 (edcfbbe)
N           -1.46657257217675        0.24718765402590        0.44256923895954
C           -2.62208553421439        1.00848895254379       -0.05319470959714
C           -3.38183478767608        0.32521123548514       -1.18758084004102
C           -2.63059023193968        0.28379247459379       -2.52169485804767
C           -1.84366548478281       -0.98431293861255       -2.82160729837574
O           -0.89823618952198       -0.89809333528271       -3.65368340967032
O           -2.18250674813059       -2.07166144384438       -2.30861274909543
H           -1.19186723901261        0.63472432954094        1.36929920753464
H           -1.68618282405977       -0.76993094101876        0.54851929013494
H           -3.32575641204462        1.14681148958028        0.76891220172875
H           -2.28366395710192        1.98869916158604       -0.39182825888929
H           -4.30051228213753        0.89176098337661       -1.34334348332625
H           -3.66464405939057       -0.68848305041152       -0.89610276690459
H           -1.97053486994528        1.14432737965458       -2.63965509818929
H           -3.35450617216197        0.31236925165175       -3.34281320684742
H           -0.64428036547943        0.33865584033998       -0.18810169326730
O           -4.24321929055772       -2.34541141809282       -4.43773292909901
H           -3.58147219241953       -2.30854620304566       -3.73505513366941
H           -4.77026911360381       -1.54977363665463       -4.36948800340459
O           -1.80339808695499       -2.50797530103075        0.44925984702026
H           -1.65306392304636       -2.54763172486735       -0.50403945464995
H           -2.68408733582791       -2.89144037917758        0.55941663887142
O           -2.34395625535440        0.18199017563580       -5.95849959655297
H           -1.80560802536203       -0.08079902257044       -5.19495781518528
H           -2.35578231139450        1.14362343497352       -5.94618691884618
O           -0.83236453213215        1.41282463714242        2.90135700475402
H            0.03252508302413        1.81393681414655        3.03466009248353
H           -1.04673970386386        0.94009403810747        3.70923815988525
O           -0.89645633595755       -4.45749775600340       -3.03980549892648
H           -0.64998659206413       -4.27885480189487       -3.96269092205667
H           -1.38182040199942       -3.66353560327190       -2.76258713265436
O            1.46719517187470       -1.68556803080003       -2.28109736950084
H            1.49139566835189       -2.59723610276048       -1.98672887088224
H            0.69863069764190       -1.60372361425701       -2.86458245050705
O            0.94538934648387        0.60929570071390       -0.94238750548714
H            1.21861357400466       -0.22451989662332       -1.36068508633272
H            1.69612786030105        0.90430321581088       -0.42120631396708
O           -0.20432655860212       -3.11182203161599       -5.33846438673039
H           -0.52830379564911       -2.35188479578057       -4.82650454756800
H            0.70484106644160       -2.88059228427885       -5.58613729437421
O           -4.27546209948371       -3.23047435119003       -0.75454368477854
H           -3.65629126838940       -2.90211213865371       -1.42373090776492
H           -4.54379489627922       -4.10739541673567       -1.04885549386911
O            0.32346964023197        1.70794634264563       -3.48614471053997
H            0.75887182286807        1.54216864161600       -2.62874455258941
H           -0.06483096081199        0.84401126915044       -3.69998158220890
H            0.50185607494342       -0.43657430473729       -6.50182106095671
H            0.54143523391090       -0.55870521505774       -4.98942681049377
O            1.13330768165040       -0.50419110495197       -5.75955547152467
49
 energy: -80.215551860364 gnorm: 0.042471943171 xtb: 6.7.1 (edcfbbe)
N           -1.46168768243839        0.24945566527837        0.43887000618790
C           -2.62007247995574        1.00960142314021       -0.04601409943757
C           -3.37481229240473        0.32244360407847       -1.18364316934244
C           -2.62033123036292        0.29955754488213       -2.51654652380473
C           -1.83837890099207       -0.96994934969424       -2.82798050140515
O           -0.90329889380179       -0.88362722237149       -3.67509020827072
O           -2.19335486099760       -2.06587480645572       -2.33527016600055
H           -1.17742180377143        0.62582529488941        1.36606186593315
H           -1.67951595866623       -0.77182541302384        0.53585746470737
H           -3.31771919397909        1.14600706676777        0.78067197337597
H           -2.28511356245922        1.99104428115339       -0.38357899826646
H           -4.30533794442295        0.87176133122634       -1.32751791930714
H           -3.63704111390413       -0.69808442906292       -0.89825767382789
H           -1.95378348614954        1.15783534598478       -2.61130268893893
H           -3.33730829030811        0.35436748776873       -3.34300769935416
H           -0.64440912020524        0.34350247327924       -0.19503417572498
O           -4.30615249100348       -2.39910123399093       -4.42684401653908
H           -3.61561654222237       -2.34026888326103       -3.75158794744121
H           -4.81048219974427       -1.57993090526942       -4.38522276590533
O           -1.81494839947329       -2.45515219177468        0.45705274911093
H           -1.66786399192613       -2.55821838761798       -0.49861931134555
H           -2.68721143677927       -2.84959903830951        0.60984385363758
O           -2.34521376041825        0.19934733105715       -5.95124353131106
H           -1.77768518965720       -0.07741023246897       -5.21330717948088
H           -2.30214578814990        1.16900121847886       -5.95811220720033
O           -0.82541024023715        1.39957128145927        2.89179043282892
H            0.02119595577267        1.83323802679754        3.03100725640372
H           -1.04961290579567        0.93673925877458        3.70051810937813
O           -0.86747150606278       -4.45536738519015       -3.00746757394184
H           -0.64699367736576       -4.31855407393340       -3.94881924544551
H           -1.36939222413195       -3.65964268081042       -2.76141035315730
O            1.43531127831059       -1.70613469610296       -2.26672165660633
H            1.50430711756274       -2.63857736291593       -2.01423408782046
H            0.67378466386861       -1.63541288768420       -2.86176726437503
O            0.95215978900475        0.62126923703432       -0.94059436796967
H            1.19795696667876       -0.21947132768710       -1.36465828992185
H            1.71978887443490        0.89999702014165       -0.43284573928267
O           -0.19510327103050       -3.12966022013299       -5.33801048990425
H           -0.53627298800216       -2.37428398827462       -4.83509350888298
H            0.70080803658949       -2.87770061075313       -5.59602911065331
O           -4.26849866098101       -3.23771442852320       -0.74325505669900
H           -3.64321602488751       -2.92919639161975       -1.41692205087895
H           -4.58012945968185       -4.10230608855101       -1.03952073070194
O            0.24597262349094        1.76007054956204       -3.42680673377429
H            0.74590040885219        1.58435964524734       -2.59299994132165
H           -0.05329041448936        0.84543539855034       -3.66507277026080
H            0.55055989143815       -0.46211796384500       -6.55588793024854
H            0.57452139117347       -0.56361075973213       -5.03904083612190
O            1.13501650188044       -0.47816134739564       -5.81296338669103
49
 energy: -80.216924085564 gnorm: 0.036261139149 xtb: 6.7.1 (edcfbbe)
N           -1.45645101365499        0.25611756461428        0.43547502406760
C           -2.62207467459139        1.01241858693168       -0.04479801118020
C           -3.37039342836898        0.31806886102639       -1.18276448337052
C           -2.61448743291012        0.30809048906523       -2.51492653218387
C           -1.83777985977665       -0.96193565128388       -2.84092919802208
O           -0.90756229512745       -0.87040218624769       -3.69525916138575
O           -2.19902422098014       -2.06259456710699       -2.35559902736469
H           -1.16524856306217        0.62369100272318        1.36176015108490
H           -1.66955152250506       -0.76689824415593        0.52955240386132
H           -3.31212596468061        1.14427693987730        0.78818781315577
H           -2.28957752422827        1.99644899409496       -0.37680319062339
H           -4.30941621542948        0.85487932646405       -1.31882434947431
H           -3.62085078434798       -0.70491510720436       -0.89872100917274
H           -1.94149671485088        1.16307259706650       -2.59414624962303
H           -3.32719512844931        0.38868487083318       -3.34410447338624
H           -0.64257124462076        0.35263199141310       -0.19838699008270
O           -4.35226306948554       -2.44399403589917       -4.41140321271554
H           -3.63966245025301       -2.35896052860956       -3.75909618775410
H           -4.83951877227438       -1.60503384707589       -4.39646630357287
O           -1.82113394789365       -2.42904779233404        0.46305621093516
H           -1.67741801276956       -2.56485883285746       -0.49298171281724
H           -2.68912270766593       -2.82813550466652        0.63974112004253
O           -2.31996010389907        0.21618884336246       -5.95234616078365
H           -1.76746189368095       -0.07421938596182       -5.21840203487029
H           -2.27680175538930        1.18331835666243       -5.96351062968657
O           -0.81953484016358        1.38848117260995        2.88406336327118
H            0.01096838461491        1.85699500162403        3.03372736976745
H           -1.05178836084643        0.94096306729872        3.70205853827746
O           -0.84306016909718       -4.45307440647943       -2.97814111739847
H           -0.63872281344350       -4.34758942459790       -3.93145345991639
H           -1.36800112199594       -3.65637338112523       -2.76579172944848
O            1.41188433242408       -1.72573974855372       -2.26191411039373
H            1.50225145408670       -2.66632025093776       -2.02820150286260
H            0.65163149329433       -1.65830688105188       -2.85941629060915
O            0.96153054399252        0.62473943923444       -0.93672516017495
H            1.19575017332139       -0.21687960990984       -1.37577879279887
H            1.74161367100719        0.89360441093609       -0.43918475364788
O           -0.18644910622102       -3.13949145842632       -5.33836983698044
H           -0.54382594869284       -2.38348858128026       -4.84479725139857
H            0.69943981079998       -2.87256382960952       -5.60508482612959
O           -4.26489525761002       -3.24122303142307       -0.73619558874636
H           -3.64073320963490       -2.94516469343986       -1.41732689275587
H           -4.59682547962622       -4.09832690052163       -1.02820392512123
O            0.28644382331193        1.73453774993811       -3.41579409615565
H            0.68530350554715        1.63474717757206       -2.55248129107250
H           -0.09818649165168        0.87817479925426       -3.62386505599502
H            0.55624985094795       -0.43452484322662       -6.59572886521177
H            0.60044477675140       -0.55142614032195       -5.06502264223028
O            1.16264579197766       -0.52516619919428       -5.85530408334549
49
 energy: -80.217830224194 gnorm: 0.031135739244 xtb: 6.7.1 (edcfbbe)
N           -1.44927482583258        0.26265645931930        0.43299723519660
C           -2.62203431098418        1.01327580525317       -0.04640032640473
C           -3.36732479082729        0.31390353430499       -1.18155525875934
C           -2.61361790555743        0.31049361860186       -2.51448394210396
C           -1.85748191889399       -0.96603738293207       -2.86874549168179
O           -0.91009262437348       -0.86575790535532       -3.70085220446589
O           -2.20120060916906       -2.05996398908246       -2.36412512253267
H           -1.15826278976528        0.62854642849556        1.35903357356355
H           -1.65763409675246       -0.76157321384600        0.52787214618555
H           -3.31082727101942        1.13788532613061        0.78903114110661
H           -2.29615517991118        2.00135190887495       -0.37464086466409
H           -4.30961761378891        0.84488600026218       -1.31840069824590
H           -3.61278626424087       -0.70975714517230       -0.89697604609411
H           -1.93173551616402        1.15953774397533       -2.58665890576119
H           -3.32564312974789        0.41010652439018       -3.34207011974434
H           -0.63661615856722        0.36327173371860       -0.20054528314577
O           -4.36426036196887       -2.46302410750159       -4.40559642951411
H           -3.65575240257784       -2.36372049866673       -3.75530938433259
H           -4.86553050756039       -1.63851484060148       -4.39585639588318
O           -1.81572538041243       -2.46259385596128        0.46701680037221
H           -1.68364885983887       -2.53304482397859       -0.47621807702529
H           -2.69638985923962       -2.81538689038429        0.63705026724610
O           -2.30171991467073        0.23275423646822       -5.95369891223909
H           -1.74897116536989       -0.06739495676475       -5.22303194772745
H           -2.27334324942030        1.19112765251865       -5.95682940785835
O           -0.81838656957057        1.38977595106670        2.88665604079974
H            0.00556235586924        1.86746131092759        3.03791005588508
H           -1.05246916298960        0.94598339652060        3.70798750792604
O           -0.85886995163906       -4.46207855449205       -2.97495602976749
H           -0.59845755166559       -4.34213854440068       -3.89538962562820
H           -1.36361107913442       -3.65528221954468       -2.75954048572713
O            1.40450241364714       -1.74612678032196       -2.26888691644722
H            1.47201027285353       -2.66712231546466       -2.01399377952709
H            0.64170863927886       -1.66969052034066       -2.85964201767121
O            0.97572062158670        0.61839861047580       -0.94251863225288
H            1.20668978459839       -0.22396726574553       -1.38202779711071
H            1.75193097283416        0.87850304141980       -0.43840800707718
O           -0.17546061485479       -3.14450107847612       -5.32420881796265
H           -0.53862296418518       -2.37325265107332       -4.85260454459495
H            0.70040403797116       -2.85497833601762       -5.62913029735441
O           -4.26672739661043       -3.24136340409030       -0.73532592193813
H           -3.65092020389121       -2.94705968326484       -1.42323389617961
H           -4.59717724485954       -4.09552141706922       -1.02184927829110
O            0.25090501544051        1.74729795143429       -3.40812577654565
H            0.68898938361162        1.64811665883007       -2.55201913650911
H           -0.10445526748370        0.87351336173610       -3.60841442965334
H            0.56124893549045       -0.40189024993032       -6.61666205027494
H            0.60437080296891       -0.57213281595042       -5.08582700457809
O            1.17174698958605       -0.55149562919479       -5.86742370100624
49
 energy: -80.218907178292 gnorm: 0.018188685328 xtb: 6.7.1 (edcfbbe)
N           -1.44143901974167        0.27188378516404        0.43042774953436
C           -2.62123740608795        1.01429622890199       -0.04547662547934
C           -3.36347779325826        0.31076225365628       -1.17903778070764
C           -2.61040820392398        0.31572710454153       -2.51206288720823
C           -1.86113180215598       -0.96216137042630       -2.87668333303721
O           -0.91769828240826       -0.86051198979586       -3.71266935028878
O           -2.20854202433572       -2.05741151630026       -2.38014408018108
H           -1.15034879038523        0.63799412085380        1.35656611917933
H           -1.64581626063398       -0.75256881069166        0.52682690343397
H           -3.31005537416484        1.13190224849936        0.79136165907099
H           -2.30430154320250        2.00565974730227       -0.37365067264909
H           -4.31138705819557        0.83225245284136       -1.31561238781890
H           -3.59790469025599       -0.71614638270162       -0.89491576953694
H           -1.92148611134315        1.15984602031934       -2.57513680104744
H           -3.31915362048677        0.42947989552338       -3.34029482681808
H           -0.63067660150233        0.37583422957769       -0.20546646634652
O           -4.38966986717204       -2.49186781198700       -4.39558207193396
H           -3.67585522727578       -2.37274858426529       -3.75471115601102
H           -4.89653932374894       -1.67433206105405       -4.39942859142690
O           -1.82093854892439       -2.44042094395027        0.46970640049829
H           -1.69064813651071       -2.56117713164661       -0.48012898328418
H           -2.69616196786223       -2.80357312960891        0.65716930325203
O           -2.31903181621025        0.24673414951193       -5.94375804657099
H           -1.72099075143994       -0.05681137215603       -5.23398377387751
H           -2.23527183677726        1.21195526647522       -5.96135413242560
O           -0.81864939299523        1.39746609642881        2.89388959182192
H           -0.00024911042879        1.87638779697803        3.03933986568911
H           -1.04959737899247        0.94513026583298        3.70780137239513
O           -0.83661374230289       -4.45256652868744       -2.94958651224286
H           -0.58981897685086       -4.35863121355239       -3.88190874744379
H           -1.35592887595499       -3.64754893141007       -2.75861189478884
O            1.38460598964888       -1.75939565614100       -2.26606064853727
H            1.45859765355012       -2.68176781962676       -2.02138349103883
H            0.62495324478587       -1.68491994558052       -2.86096582675457