37
 energy: -59.779402408230 gnorm: 0.174489313296 xtb: 6.7.1 (edcfbbe)
N            0.00260500000000        0.26833900000000        2.34949800000000
C            0.00561000000000       -0.53426800000000        1.12782400000000
C           -0.01360500000000        0.36044200000000       -0.11757000000000
C           -0.00658000000000       -0.48411400000000       -1.39958300000000
C            0.00530900000000        0.34606300000000       -2.65559300000000
O            0.01598000000000        1.56658800000000       -2.61114500000000
O            0.01013600000000       -0.27058000000000       -3.85192000000000
H            0.84383000000000        0.88923800000000        2.37341700000000
H           -0.86762500000000        0.84621600000000        2.39703300000000
H           -0.88589600000000       -1.19861800000000        1.12403900000000
H            0.91775600000000       -1.17084600000000        1.11100500000000
H            0.88289000000000        1.01613200000000       -0.10393900000000
H           -0.92488100000000        0.99783100000000       -0.09978000000000
H           -0.91002800000000       -1.12912700000000       -1.41351300000000
H            0.89428700000000       -1.13411000000000       -1.40682800000000
H            0.03021100000000       -0.36918600000000        3.17705500000000
O           -1.66141400000000       -3.54666900000000       -1.71210000000000
H           -0.87270900000000       -3.65271300000000       -1.12277000000000
H           -2.37708900000000       -3.21761200000000       -1.11198000000000
O           -1.59747000000000       -2.74347000000000        3.37211700000000
H           -1.00904600000000       -3.38344900000000        3.84624200000000
H           -2.31054500000000       -2.53108600000000        4.02559300000000
O           -2.62399300000000       -2.54024100000000       -3.81797800000000
H           -1.63588200000000       -2.49810200000000       -3.76825700000000
H           -2.93323700000000       -1.79219700000000       -3.24753000000000
O           -3.02939000000000        0.35265000000000        2.59882100000000
H           -2.93197300000000        0.87568800000000        1.76362500000000
H           -3.36804800000000       -0.52906000000000        2.30131300000000
O           -1.72955300000000        1.77608500000000        4.53099600000000
H           -2.52562900000000        2.35460400000000        4.42058800000000
H           -1.82052300000000        1.40020900000000        5.44261800000000
O            0.41198000000000       -3.60068200000000       -4.61005800000000
H            0.53524700000000       -3.13836200000000       -3.74306500000000
H            0.03160700000000       -2.90912500000000       -5.20812000000000
O           -3.52007400000000       -0.53247400000000       -0.19867300000000
H           -2.85096900000000       -0.24675300000000       -0.87044100000000
H           -3.09944200000000       -1.30400100000000        0.25786500000000
37
 energy: -59.801721523343 gnorm: 0.084607312205 xtb: 6.7.1 (edcfbbe)
N           -0.00178897390411        0.26302570567418        2.35823930883604
C            0.00492460991640       -0.53936694571081        1.12703114399206
C           -0.01448206868435        0.35297733324980       -0.11474293359779
C           -0.00617211520551       -0.48689219641858       -1.39391897307960
C            0.01194583456497        0.34752354956280       -2.66480398323390
O            0.01184284714304        1.58482341063374       -2.61400632501008
O            0.00387593202345       -0.29841622794016       -3.78813329981379
H            0.81693696591784        0.88988103032788        2.38579076351083
H           -0.86889550743998        0.82656208989541        2.42830047376462
H           -0.86961984418691       -1.19994247556400        1.13371325344116
H            0.90382034405174       -1.16700698895655        1.10569189851921
H            0.86183317978121        1.01236045924352       -0.12465213362563
H           -0.90274543773490        0.99630228493076       -0.11466500682839
H           -0.88753233064377       -1.14014670708003       -1.43265774187669
H            0.88111544454108       -1.13241106852158       -1.41684005640235
H            0.02595934481717       -0.35949345020442        3.17837677929561
O           -1.62875496822613       -3.52659504325175       -1.67423486863506
H           -0.87816544986611       -3.67993881606266       -1.07623931109100
H           -2.37129783736667       -3.26072478281267       -1.10246301876114
O           -1.58042906140230       -2.71566824218494        3.39191654519304
H           -1.02989570204637       -3.38465897369896        3.83276864842318
H           -2.30668088584978       -2.54246117209615        4.01377368894339
O           -2.64105499047343       -2.50079377237824       -3.87056539645143
H           -1.67094872897664       -2.49654310871868       -3.78093179444525
H           -2.94190771066594       -1.79366524423012       -3.27667643532157
O           -2.97107552000885        0.34161030085014        2.57102816793205
H           -2.98821747845839        0.87024810768527        1.74938975593479
H           -3.38786298248082       -0.50135059708293        2.31383742661229
O           -1.71136991857748        1.79610031801547        4.54819177425296
H           -2.50527630722126        2.33780059738193        4.41451744740378
H           -1.81761978620492        1.41375640570142        5.43326059805641
O            0.40194456727249       -3.59062008806061       -4.60569450639802
H            0.54329171110355       -3.12675632478699       -3.76447661223369
H            0.04777519467552       -2.91212286279491       -5.20353180794633
O           -3.49602328940226       -0.52805470527682       -0.18558203403839
H           -2.86289782245202       -0.24842290239414       -0.86688076702816
H           -3.09270425832969       -1.30767889692580        0.23467533170664
37
 energy: -59.809351611922 gnorm: 0.030278849433 xtb: 6.7.1 (edcfbbe)
N           -0.01344513633455        0.25504503316114        2.37336185617494
C            0.00349638585755       -0.54271263211338        1.13040064992018
C           -0.01899504800094        0.34577100607178       -0.10892906841777
C           -0.00624492975214       -0.49442386128307       -1.38351785619470
C           -0.00745508984821        0.33890264463296       -2.68002438638613
O            0.01367232861750        1.58710940060356       -2.60291489142293
O            0.02467306843338       -0.31775938229110       -3.73841089696907
H            0.77912356480312        0.90042966095214        2.40363615467496
H           -0.89208162631162        0.79017498453125        2.46593171812835
H           -0.86177565854845       -1.19942246898108        1.14409925032204
H            0.90055201331370       -1.15651827489110        1.10833770756166
H            0.84880640423945        1.00361423414818       -0.13761006793650
H           -0.89697527386983        0.98820538405919       -0.12338000588333
H           -0.87018818488708       -1.15585954076892       -1.44625822355008
H            0.88167194838757       -1.12595080656613       -1.42720878946319
H            0.02020743918231       -0.36278314048647        3.18546611308063
O           -1.58802972915663       -3.47966132989955       -1.63524451098790
H           -0.88021988612281       -3.72414227492244       -1.02221226267019
H           -2.37229116179148       -3.32388571934223       -1.08074534713984
O           -1.57084887952821       -2.70417438244923        3.40013777546971
H           -1.03411169869014       -3.37985464037834        3.81762968466475
H           -2.29690892752724       -2.53960555329478        4.00279563880064
O           -2.66717528493774       -2.48320315552867       -3.90461611636143
H           -1.71060803538117       -2.49992117371637       -3.80541534115039
H           -2.96493403672251       -1.77768824881526       -3.33150791328827
O           -2.97513468074058        0.36589557482066        2.53377611543264
H           -3.01791926641907        0.85926204013048        1.71204795738949
H           -3.37322966340716       -0.48039449493876        2.32876177146688
O           -1.68935452089627        1.80815893360836        4.55942644876527
H           -2.47374963979454        2.33365771690677        4.40115787295666
H           -1.79968777982905        1.43519580238029        5.43331538039076
O            0.39852438055293       -3.57535170794064       -4.60161889966680
H            0.55540191334642       -3.10213955967599       -3.78267905294030
H            0.06186897678189       -2.91574220943596       -5.21098751507181
O           -3.47274439451698       -0.52654705312275       -0.17488067715136
H           -2.87330104024041       -0.23520613340719       -0.86321149781686
H           -3.07874185026123       -1.31523467175757        0.20989722526907
37
 energy: -59.811010398374 gnorm: 0.077788382048 xtb: 6.7.1 (edcfbbe)
N           -0.03518862893295        0.24709358814772        2.39003173609015
C           -0.00050306584009       -0.54354585944829        1.13859037225014
C           -0.02427506313819        0.34290010686851       -0.10072298453905
C            0.00406448913452       -0.50025004931578       -1.37050924424398
C            0.02705060913439        0.32414886073581       -2.68962533482615
O           -0.00746755697751        1.57574301507137       -2.60380159453727
O           -0.00038709445459       -0.35017373748785       -3.72591178670186
H            0.73369794074724        0.92152906242890        2.42102620557821
H           -0.93677010591265        0.74713488361598        2.49769425110469
H           -0.85934235916451       -1.20786516116144        1.14902816467981
H            0.90556785863183       -1.14396142549324        1.11871672878443
H            0.84296514574601        1.00100178135366       -0.13477065191859
H           -0.90422851838174        0.98170896960294       -0.12736296893392
H           -0.85252479971948       -1.16983780330472       -1.45223939540438
H            0.89849503666654       -1.12099258189204       -1.41430364825263
H            0.01888701481110       -0.37660470513474        3.19697280862949
O           -1.55212527071169       -3.43854397911585       -1.59544272441212
H           -0.88347960118256       -3.77970379808987       -0.96364899159139
H           -2.37459247404306       -3.38315209105298       -1.05531467941121
O           -1.53365866547864       -2.63869106597494        3.42395873819534
H           -1.05345884750902       -3.40086330886007        3.78979078409874
H           -2.31518965772359       -2.55244119225519        3.98899787818123
O           -2.69937390680672       -2.45433922598866       -3.96555207398286
H           -1.74582272666678       -2.52852673975797       -3.81303492364569
H           -2.99486518360111       -1.75908946027232       -3.37813884304579
O           -2.85356921248062        0.37436981204109        2.48587561548426
H           -3.11515512272985        0.87288821621709        1.64887531679675
H           -3.40127105922678       -0.44385434276994        2.37839469142411
O           -1.63870791706971        1.83530664056170        4.57549162451787
H           -2.44166459316051        2.32263849325433        4.36530536461062
H           -1.78101635982487        1.45485098005049        5.44270421038691
O            0.37527002806082       -3.56862189612616       -4.58870831717404
H            0.58078990494501       -3.05809153493579       -3.79807932551092
H            0.08455848894423       -2.91792427700615       -5.23579237579867
O           -3.43934046335520       -0.50744345420684       -0.14223526749358
H           -2.88788447634088       -0.22132787331518       -0.87690308941942
H           -3.05763678638887       -1.34222884698422        0.16944973003029
37
 energy: -59.814502603574 gnorm: 0.048414236241 xtb: 6.7.1 (edcfbbe)
N           -0.05464445503705        0.24068787040736        2.40409728310312
C           -0.00442025738748       -0.54295441672676        1.14730161511266
C           -0.02929160878237        0.34313536214346       -0.09229549578816
C            0.01055346044151       -0.50213203434776       -1.35841769088277
C            0.04245940163980        0.31450533350022       -2.69260202333630
O           -0.01833224630753        1.56606060429039       -2.60990121134655
O           -0.01032709937322       -0.38148387953882       -3.72498714858969
H            0.69500374946877        0.94047374344705        2.43642944904740
H           -0.97617964594843        0.71116490754594        2.52007214263693
H           -0.85873859495016       -1.21609890725696        1.15209565620028
H            0.90993998101064       -1.13443751173110        1.12978383465042
H            0.83669361251828        1.00509247990799       -0.12686891254419
H           -0.91399643635146        0.97732696157292       -0.12534944572960
H           -0.83931172919867       -1.18204324402974       -1.44697125241650
H            0.91270407730377       -1.11387637589270       -1.39957705670503
H            0.01848536708023       -0.39056866330795        3.20712719078298
O           -1.54963767885756       -3.47860964213676       -1.54626344247867
H           -0.87504213935599       -3.79051801256660       -0.93779365035889
H           -2.35814623963374       -3.38984317420451       -1.03702076221033
O           -1.51166332860858       -2.62120275113584        3.42741569508942
H           -1.04215085230241       -3.40373569225266        3.77205440043831
H           -2.30756684279766       -2.55544356621931        3.98113057663661
O           -2.72512583618677       -2.43252868349100       -4.01443202128995
H           -1.77329426904600       -2.55224654734615       -3.82212557873488
H           -3.01686638027796       -1.74335118438882       -3.41083411583935
O           -2.95761101613226        0.43262321044380        2.46918600999930
H           -3.06565404033036        0.85848511718348        1.61950129328895
H           -3.34948556355671       -0.44059794416255        2.37606037342519
O           -1.60314952904978        1.85230849304778        4.58873427576377
H           -2.42094469238025        2.31134929016810        4.33739671695173
H           -1.77299115260924        1.46694564891834        5.45408952330717
O            0.35495135818074       -3.56196394720763       -4.57666259244239
H            0.59964015143853       -3.01612948216023       -3.81019758945032
H            0.10111693256902       -2.91986253526518       -5.25830111773583
O           -3.42116233962909       -0.49432452550132       -0.12790956422147
H           -2.90056059506794       -0.20738345946165       -0.89189843571793
H           -3.04340652249296       -1.35558284224543        0.13673907138411
37
 energy: -59.815919109288 gnorm: 0.053328963263 xtb: 6.7.1 (edcfbbe)
N           -0.07752176249280        0.23292167527020        2.41221107009333
C           -0.00438250235447       -0.54436654946970        1.15404903503960
C           -0.02956121714294        0.34222345802815       -0.08672597313374
C            0.01042082946047       -0.50766826781945       -1.34973039818496
C           -0.02492740347421        0.30436963762885       -2.68772709670230
O            0.01113209301825        1.55007576601296       -2.61722381255603
O            0.04584543631921       -0.40403968876104       -3.72906824966348
H            0.65251091784880        0.95687323660918        2.44842890203151
H           -1.01895388548475        0.67332983828415        2.52661201889325
H           -0.85298357794702       -1.22927464483955        1.14784956197962
H            0.91785790811393       -1.12837235634476        1.14369200064716
H            0.83234565779297        1.01318961376230       -0.11468353965524
H           -0.92200005673830        0.96879660899439       -0.11585689513711
H           -0.83033610320712       -1.20047715876299       -1.41788176370540
H            0.92468831047570       -1.10795264760531       -1.39332202232544
H            0.01767856315792       -0.40496892326107        3.21213043338775
O           -1.52852641665777       -3.43774871268113       -1.52095476504337
H           -0.87968363642190       -3.82755270251851       -0.90498505957700
H           -2.37217109797603       -3.45188776306717       -1.01452214258318
O           -1.56568407987927       -2.68254810524744        3.39269203100096
H           -1.01836394331560       -3.35305289544345        3.77051631412300
H           -2.29056946418528       -2.52281345512528        3.98306297890915
O           -2.74245220423467       -2.45613041111012       -4.00928904349016
H           -1.79764349974706       -2.55487395566908       -3.86048950248160
H           -3.02906506758581       -1.73005744339235       -3.44489209487966
O           -2.97566616429279        0.48529494110826        2.45691700619702
H           -3.06738903808243        0.85709326515594        1.58381929664426
H           -3.31400411154178       -0.41540416990755        2.40739195407181
O           -1.58301614451290        1.84064184680739        4.57723918880151
H           -2.37670007052453        2.32307504616032        4.32370270016464
H           -1.74733447115660        1.48863034670327        5.45904441911816
O            0.38533136298306       -3.53283358222618       -4.58144648254993
H            0.58495969913009       -2.98708534208833       -3.81424448878221
H            0.08827368446170       -2.92039362082517       -5.26372229980811
O           -3.42929202095234       -0.52362204007639       -0.17433547546270
H           -2.88711766660173       -0.19238223865151       -0.89099011547420
H           -3.02385185625235       -1.32776860563153        0.14153831009326
37
 energy: -59.818130589124 gnorm: 0.058903252444 xtb: 6.7.1 (edcfbbe)
N           -0.10943990263629        0.22502300019236        2.42123412090649
C           -0.00882139846883       -0.54827304603068        1.16068766861904
C           -0.03316815944727        0.33701122743478       -0.08090462774009
C            0.02239771568344       -0.51869700072561       -1.34032891898112
C           -0.00591805578081        0.28984445132179       -2.68328536267643
O            0.00443174069847        1.53461132377306       -2.61359289312293
O            0.03568396710396       -0.41604994505789       -3.71564602201236
H            0.59623100018989        0.97319728834146        2.46184404152629
H           -1.06945130781347        0.63346503140160        2.53678799144043
H           -0.84663476818956       -1.24554675632666        1.14291527071544
H            0.92153702683360       -1.11870178484191        1.15929728794328
H            0.82319515106049        1.01447900450142       -0.10207657555452
H           -0.92917677200942        0.95742308110762       -0.11448024111796
H           -0.81020368508081       -1.22049714997776       -1.41065773756378
H            0.94290384288064       -1.10805215811583       -1.37732924121888
H            0.00760323339693       -0.41231112158653        3.21813139087413
O           -1.55194179913396       -3.51030094902555       -1.46638918586526
H           -0.87282749379192       -3.82757939209026       -0.89785165340412
H           -2.35638047904878       -3.43794645097738       -0.98995640104395
O           -1.55641394286682       -2.64552305903237        3.39750235104440
H           -1.02111084953421       -3.35374551440412        3.73947745775191
H           -2.29892076424295       -2.52974939126948        3.98240197085592
O           -2.76531735984186       -2.47084500919319       -4.01573096083895
H           -1.82548104328923       -2.57978542176769       -3.88025417975178
H           -3.03881541525551       -1.71626485972867       -3.48454975007312
O           -2.91419590373075        0.52556741579527        2.43018966348127
H           -3.11880624740707        0.85997967659825        1.52559219046779
H           -3.28621196320206       -0.37956392130307        2.45655590450915
O           -1.55674252207279        1.83186015676883        4.57076089783131
H           -2.33182390307232        2.32584060318497        4.30167285530473
H           -1.72007979503751        1.51766049816988        5.46534019611981
O            0.38841999282922       -3.50927919645840       -4.57383749573187
H            0.58521594522537       -2.93616321463858       -3.82675242446765
H            0.08910917658881       -2.92428089298830       -5.27802714979724
O           -3.40802152903003       -0.50951959842233       -0.16937051471088
H           -2.89315702469050       -0.17970045084349       -0.90775255733217
H           -3.00581970781674       -1.33434647378526        0.10718863361385
37
 energy: -59.817498233247 gnorm: 0.091564458038 xtb: 6.7.1 (edcfbbe)
N           -0.14438377115337        0.22027715186723        2.42658285553246
C           -0.01612327037064       -0.55171610132792        1.16666935855917
C           -0.03954191203209        0.33196314874532       -0.07604321116952
C            0.03945937674778       -0.52973035931663       -1.33273854501856
C            0.08065107960902        0.27390839402872       -2.67590726522464
O           -0.02847500241738        1.51967087015946       -2.60986636604088
O           -0.01646148157209       -0.41902987112230       -3.69635833306562
H            0.53677103873320        0.98510610276397        2.47184519398723
H           -1.11685661244681        0.60217306496583        2.53796617278418
H           -0.84101414083590       -1.26094262747162        1.13601554096086
H            0.92049355144201       -1.10818364563749        1.17554254869580
H            0.81112856724142        1.01425894037496       -0.08832660298096
H           -0.93656851860424        0.94817978625008       -0.11550585200028
H           -0.78772975473190       -1.23667468685705       -1.41288758630418
H            0.96124484118118       -1.11026598323374       -1.35235887424330
H           -0.00731254368403       -0.40842472894413        3.22238980061941
O           -1.51894089241930       -3.42688317355341       -1.44806071724529
H           -0.88148648347852       -3.89398269393983       -0.85916422598355
H           -2.38066967738836       -3.52174962968775       -0.96568180987089
O           -1.49914083739267       -2.54718876941715        3.42536750792880
H           -1.03067099667593       -3.38974727809881        3.69186924732149
H           -2.31777154812087       -2.56607195166514        3.98266821085590
O           -2.78696222363219       -2.46416064113077       -4.04171061547091
H           -1.84773529429789       -2.62149877976081       -3.86901699738679
H           -3.04286554542228       -1.70134408223602       -3.51926917099911
O           -2.88845285916866        0.54548856180758        2.41670726031864
H           -3.12120828415225        0.86985953694984        1.51368646143779
H           -3.25889284063388       -0.34449050392555        2.44468210349177
O           -1.53145158570947        1.82862026642738        4.57178745004510
H           -2.30177963340735        2.31453647294341        4.27216135950123
H           -1.70684849778990        1.54624177664184        5.47269921451929
O            0.36919895197957       -3.49716250971170       -4.55505474682027
H            0.59393389309838       -2.87550297450878       -3.84322609941163
H            0.09858031765307       -2.93553362839785       -5.29499207013313
O           -3.37430669324111       -0.46592102048242       -0.13628574518307
H           -2.91078446066313       -0.17106279538120       -0.93710685815172
H           -2.99517925624411       -1.35977563811779        0.04972740614507
37
 energy: -59.823897313787 gnorm: 0.032908685342 xtb: 6.7.1 (edcfbbe)
N           -0.15930469451205        0.21676918908631        2.42849043470213
C           -0.01582537499161       -0.55500537859355        1.17130256746366
C           -0.03755223848098        0.32922644234779       -0.07134516918517
C            0.04471985836632       -0.53177043695843       -1.32684130076117
C            0.03652061587914        0.26864284910772       -2.67112208053133
O           -0.01020155119631        1.51291543607451       -2.61253936564081
O            0.01103032000461       -0.43731237571554       -3.69849531759577
H            0.51167382212798        0.99252107977740        2.47636736701894
H           -1.14095650293636        0.58566845019439        2.53090416225022
H           -0.83715882674125       -1.27071784320371        1.13411203628378
H            0.92597944883647       -1.10563766688535        1.18618634465250
H            0.81058024832225        1.01671724069261       -0.08286759883221
H           -0.94010790321462        0.93964381241385       -0.11428983862087
H           -0.77688600934519       -1.24705744306329       -1.39921874953348
H            0.97330888217747       -1.10670596024635       -1.34783818729692
H           -0.01681402176611       -0.41003050091923        3.22653603004814
O           -1.53109204868788       -3.46128037190821       -1.42320097137076
H           -0.87954937024829       -3.89377235118035       -0.85345989291622
H           -2.37786972500627       -3.52110887875213       -0.95246969565914
O           -1.55302181952281       -2.61867526380807        3.38790634450583
H           -1.01400156228697       -3.34118780555528        3.70691982263781
H           -2.30010406721714       -2.53077118339229        3.97813386137878
O           -2.79733797791736       -2.47041367975625       -4.04899215434294
H           -1.85773087133325       -2.64623944815087       -3.86369372706495
H           -3.04223271473362       -1.69256180883540       -3.53634922488847
O           -2.89081214082353        0.55462525033208        2.41174090115308
H           -3.09904626426937        0.88380545031555        1.52640536090339
H           -3.26775029044478       -0.32498042469088        2.42854128161297
O           -1.50158294935600        1.83708164442678        4.57681512275232
H           -2.28297310845864        2.30585269019513        4.24737546169585
H           -1.69848376781949        1.56121119343830        5.47984736010114
O            0.36897645318593       -3.48451688193048       -4.54884318239548
H            0.58944355777389       -2.84717375320626       -3.84698109775250
H            0.09949468412569       -2.93597342190248       -5.30267827276131
O           -3.37970642445401       -0.48293697027073       -0.17135818799896
H           -2.89627207563198       -0.16327336769957       -0.93683119205383
H           -2.98550658940455       -1.33233751177708        0.06063674804223
37
 energy: -59.822242221931 gnorm: 0.071660604291 xtb: 6.7.1 (edcfbbe)
N           -0.19529635728385        0.20886103528792        2.43405401318701
C           -0.01707982335539       -0.56157971641786        1.18146216653530
C           -0.03898351193220        0.32310247937087       -0.06096995217175
C            0.05334558943525       -0.53886698951922       -1.31337789791501
C           -0.03713543076353        0.25384289319641       -2.66158957398596
O            0.01302636978868        1.49665086754478       -2.61528183137016
O            0.07768525563536       -0.46997864430466       -3.69314093486292
H            0.44873876043449        1.00978356868864        2.48781875713576
H           -1.19761743880691        0.54495239081920        2.51932425441609
H           -0.82734204945551       -1.29228625216078        1.13093082887116
H            0.93519794502211       -1.09692847417008        1.20964481892547
H            0.80101878802425        1.02300114208642       -0.06846249143319
H           -0.95181290705458        0.92000643608035       -0.10947834214710
H           -0.75205292915568       -1.27504937412251       -1.37163654238712
H            0.99808412989908       -1.09512211332479       -1.33659246379823
H           -0.03887252748114       -0.41110128720379        3.23600267292540
O           -1.54490267291583       -3.49077984346331       -1.37280903897935
H           -0.87937146254997       -3.91833531032612       -0.84381774716674
H           -2.37359713544005       -3.55069698867535       -0.91442054431863
O           -1.50174040030804       -2.54236799419057        3.41314353778540
H           -1.01878049924801       -3.35955390185887        3.66015442531462
H           -2.30551904029841       -2.56872729066909        3.97331321032445
O           -2.81418710925584       -2.51662152684050       -4.03138087120642
H           -1.88517613836264       -2.64750300957304       -3.90418093618005
H           -3.04783192852107       -1.68396320931187       -3.58417181670169
O           -2.89158659024246        0.62592884814881        2.38048834248307
H           -3.10594221660326        0.87744003553790        1.46214523590542
H           -3.23393007881186       -0.29394773112989        2.48678413990361
O           -1.47692078199192        1.83260631032698        4.56754843641111
H           -2.24574011655896        2.30555732176795        4.24576097702448
H           -1.66454648257953        1.57835379336747        5.47807037383624
O            0.40396807095737       -3.43204269633999       -4.56086205997816
H            0.55155913654424       -2.80678095267043       -3.85496158287583
H            0.07947684393136       -2.91912218882861       -5.30462450647517
O           -3.35615639071755       -0.45898857183963       -0.17136235702486
H           -2.90457706525705       -0.15085753918488       -0.96602361807514
H           -2.97355480472174       -1.32564551609722        0.02130491806928
37
 energy: -59.827877030255 gnorm: 0.036422333976 xtb: 6.7.1 (edcfbbe)
N           -0.21367856663863        0.20487691544667        2.43626364199994
C           -0.01847776761077       -0.56544643896226        1.18627899623886
C           -0.04006398770970        0.31774887907235       -0.05680779199516
C            0.06684822059236       -0.54644484214767       -1.30767287018735