37
 energy: -59.881086401222 gnorm: 0.000266865670 xtb: 6.7.1 (edcfbbe)
N           -0.97427092064099       -0.30709277927287        2.33019251425847
C           -0.52117985642897       -0.93230561061099        1.07539734429445
C           -0.24229519681411        0.12373123313137        0.01244917438459
C            0.11198439601689       -0.52551426329381       -1.31805937401037
C            0.40958152861349        0.48307351231626       -2.44610827130546
O            0.42099232556305        1.69991647241575       -2.19292184928723
O            0.63018835894534       -0.01166850816426       -3.58760352539814
H           -0.28889339456393        0.40037750661444        2.64750782619105
H           -1.88700088482794        0.18161535676362        2.17742896694892
H           -1.29339854855339       -1.61147947847977        0.71248568793333
H            0.38958872582727       -1.50168719908987        1.26020127893152
H            0.58309616620503        0.77047070189349        0.31447519868518
H           -1.11593057504282        0.76028357848485       -0.13171798986017
H           -0.69768627157013       -1.16861233910011       -1.66705813453979
H            1.00356369887989       -1.15105351400505       -1.22573800256026
H           -1.09545795666147       -1.02074383217524        3.07195695268786
O           -2.86384626831978       -2.76303589169740       -0.43577879955558
H           -2.53047957071776       -3.00736812226971       -1.31757654035344
H           -3.38307343820984       -3.51372609299790       -0.13065475109828
O           -1.28171553193898       -2.32063150762377        4.26095430446298
H           -0.56449265951777       -2.91945782880791        4.48477455897157
H           -2.10270146098304       -2.81908844840477        4.30355179466522
O           -2.03442028384464       -3.43029641792993       -2.98515261665075
H           -1.12039928413638       -3.21988742058175       -3.25359496264847
H           -2.58078336964439       -3.28588000704778       -3.76357232049547
O           -3.39730953103360        0.90126392253301        1.86591486890070
H           -3.66222668649834        0.54821565593145        0.99196395704349
H           -4.13999865447666        0.74639287289737        2.45650254415472
O            0.82173740310865        1.68374106581669        3.22510288538494
H            0.53441917961342        2.59840104527958        3.15965604434807
H            1.31667205801082        1.59218477925814        4.04485490852944
O            0.43482094067966       -2.64196157413923       -3.91593714515648
H            0.51456928585948       -1.66236951374209       -3.79068478756638
H            0.82400974945401       -2.82590754928028       -4.77590742175772
O           -3.97094537225066       -0.25516156880616       -0.52941780762490
H           -3.56427519377664        0.16173079851088       -1.29215879664325
H           -3.60059590627380       -1.16322903429155       -0.48692171422996
