34
 energy: -56.591309442996 gnorm: 0.183930922246 xtb: 6.7.1 (edcfbbe)
C            0.00071700000000       -0.52255800000000        0.67804400000000
C            0.00015500000000        0.09392700000000        2.05036800000000
O           -0.00019500000000       -0.63013100000000        3.03226200000000
O           -0.00079700000000        1.43155900000000        2.21643300000000
C            0.00098900000000        0.52531100000000       -0.44326000000000
N           -0.00030100000000       -0.11659100000000       -1.75665200000000
H            0.90259300000000       -1.16292800000000        0.57888800000000
H           -0.90264000000000       -1.16023800000000        0.57901700000000
H           -0.90200200000000        1.16741300000000       -0.35103700000000
H            0.90366600000000        1.16894900000000       -0.35172000000000
H           -0.85706900000000       -0.70553200000000       -1.86752300000000
H            0.85322800000000       -0.71006900000000       -1.86779500000000
H            0.00165600000000        0.62088700000000       -2.49702600000000
O           -2.82660500000000       -2.13941800000000        0.49966700000000
H           -2.93829500000000       -3.11344200000000        0.36033500000000
H           -2.96337500000000       -2.01058200000000        1.47193700000000
O           -1.35867300000000       -1.93417000000000        5.12863400000000
H           -1.90848800000000       -1.71354600000000        4.33513600000000
H           -1.49487100000000       -1.17102600000000        5.74481100000000
O           -3.32541500000000        0.81229900000000        3.11699100000000
H           -2.97922100000000        1.20455100000000        2.27621800000000
H           -2.76204000000000        0.01200100000000        3.26780600000000
O           -1.06987400000000       -4.26886700000000        1.16444500000000
H           -0.83976100000000       -3.81703400000000        0.31385400000000
H           -0.93249100000000       -5.23184100000000        0.97891800000000
O           -0.26580300000000       -3.65019300000000        3.14778300000000
H           -0.12383800000000       -3.44898900000000        4.10693600000000
H           -0.58603000000000       -2.79710800000000        2.76008200000000
O           -0.45330900000000        2.34747400000000        6.03399200000000
H           -0.47354900000000        2.93584200000000        5.23773600000000
H           -1.22907900000000        1.74344300000000        5.91592900000000
O            2.34449300000000        1.05911400000000        5.04540000000000
H            2.29755600000000        0.08489000000000        4.87424300000000
H            2.58989200000000        1.45314900000000        4.17068300000000
34
 energy: -56.618415759721 gnorm: 0.091194309918 xtb: 6.7.1 (edcfbbe)
C            0.00282784534753       -0.50810760652208        0.66424606576290
C            0.00351877395097        0.10505408491928        2.05330468203108
O           -0.02952260754127       -0.64120242295692        3.04027627192088
O           -0.00927870990601        1.39318381568814        2.16375041234718
C            0.00399244061512        0.53495806300007       -0.44618332428071
N           -0.00064959457398       -0.11385424701260       -1.76797776848018
H            0.88835816629521       -1.15409542592244        0.59709287870546
H           -0.88850585086666       -1.14624938378789        0.58596391269709
H           -0.88195087787527        1.17004997251190       -0.33975496011842
H            0.88812550197609        1.17327772688836       -0.34021354544957
H           -0.84574065401703       -0.69944033535261       -1.86957167206262
H            0.83846206550718       -0.70612447729879       -1.87569125665359
H           -0.00030842789323        0.60647602455894       -2.50669985671920
O           -2.83777752985194       -2.13955955915319        0.50152649252651
H           -2.93719774756726       -3.09821843793632        0.36768981714780
H           -2.97202602371731       -2.01549282391464        1.45275374784806
O           -1.40336662882703       -1.95054076233836        5.16921095243960
H           -1.88390110708863       -1.70961197254636        4.35872823968948
H           -1.48024640076871       -1.16994221943550        5.74346312565855
O           -3.34316964920507        0.78027919390759        3.09327267945504
H           -2.97866710533883        1.21452985382586        2.30183183651725
H           -2.73594569899676        0.03982236447922        3.26407032547175
O           -1.15013782541132       -4.29842388549329        1.07656772524774
H           -0.81895940841822       -3.84913002687383        0.27498047579119
H           -0.92206744679782       -5.23850480071244        0.95494147347952
O           -0.25272083670959       -3.63490435395980        3.19801368564131
H           -0.11762242107864       -3.43503867917477        4.13726567346258
H           -0.52366427334539       -2.78498458411736        2.80702893852674
O           -0.48112781544291        2.36886404465008        6.04844444914270
H           -0.46008015600175        2.91574464610503        5.24452292476105
H           -1.21984540787000        1.75436394289044        5.90774902375017
O            2.39694652342779        1.04921627045007        5.04691904944396
H            2.28057493696655        0.09908718724769        4.86839678835383
H            2.57289795102424        1.44506481338681        4.17561573594459
34
 energy: -56.628629587779 gnorm: 0.029861308442 xtb: 6.7.1 (edcfbbe)
C           -0.00212434661450       -0.50609541209294        0.64676901359878
C           -0.04602458587876        0.12467085802432        2.05179719823542
O           -0.08309600043793       -0.66043711829457        3.02543994462253
O            0.01198669084978        1.36030074179675        2.13316637765210
C            0.00853136676184        0.54292121228174       -0.44593226315038
N           -0.00072323254910       -0.10738499549505       -1.77770908490598
H            0.88028333630133       -1.14745385534204        0.61355424512559
H           -0.88515909439838       -1.14295886116610        0.57374019018733
H           -0.86934820858096        1.17242206890433       -0.33577842176252
H            0.88446887664983        1.17560294304443       -0.33538590424623
H           -0.83948883862705       -0.69018259018031       -1.86614005485870
H            0.82697945327135       -0.70163347864898       -1.88154616865207
H           -0.00290913162583        0.60027045559390       -2.51684433913715
O           -2.86152894856072       -2.13190572630186        0.49783540820250
H           -2.92048865796083       -3.08535044651183        0.37332390396639
H           -2.99016042015824       -2.00791191611455        1.43581906573773
O           -1.44216337642045       -1.96855120966599        5.22277611783660
H           -1.85631281730446       -1.71731522432748        4.38978674699839
H           -1.47467711967468       -1.17793616519839        5.76698978737713
O           -3.33838814124860        0.75764143797132        3.08331666781943
H           -2.99312921496081        1.23235107270581        2.32071768326080
H           -2.69097316656911        0.06651338873345        3.25559500551776
O           -1.19979805126411       -4.32367259818978        1.00222376854105
H           -0.79689101301448       -3.88770479029452        0.23781700451047
H           -0.93965458010117       -5.24883599535774        0.94505459869999
O           -0.21313904415542       -3.62089525177575        3.22530063777916
H           -0.12724521130002       -3.44625938526693        4.16453121871313
H           -0.44081144607534       -2.76529711926422        2.84218530870047
O           -0.50177780159453        2.38458868210460        6.05320257724610
H           -0.44688159371541        2.91301263146100        5.25311031198974
H           -1.22427158602156        1.77372645210520        5.90498782702475
O            2.43185481492153        1.04054073668374        5.04224666846296
H            2.27306554701252        0.10800688413356        4.86859439579297
H            2.57121954304422        1.44175857394597        4.18098956311308
34
 energy: -56.633015264639 gnorm: 0.082371176627 xtb: 6.7.1 (edcfbbe)
C           -0.00182745580651       -0.51414308737970        0.63449969220476
C           -0.03253187866500        0.13754554478225        2.04913864033297
O           -0.19508344573851       -0.67308926709938        3.00932444035469
O           -0.02079568108111        1.36007130400889        2.11841375781935
C            0.01572863621460        0.54273826351447       -0.44746365808488
N           -0.00191581118238       -0.10078335168618       -1.78799286528433
H            0.87822247231340       -1.15436930676570        0.61781257633168
H           -0.88985919760870       -1.14151379724256        0.56403641449130
H           -0.85904910156738        1.17595180647518       -0.33414637856456
H            0.89486444994748        1.17021889471958       -0.33751230336410
H           -0.84199445582866       -0.68153159105148       -1.86454508494178
H            0.82072937897731       -0.69984678749614       -1.89180565925525
H           -0.00655598530672        0.60340371058280       -2.52889592221879
O           -2.89796597721702       -2.11868460990153        0.48620018167220
H           -2.88781515380636       -3.08032422312576        0.37707052576989
H           -3.01996303206529       -1.98904620848963        1.42381849869769
O           -1.51665447659825       -2.01566314407045        5.31061561248069
H           -1.80205256246383       -1.71555525226883        4.41308893457808
H           -1.44714507806361       -1.16986965323439        5.79792617712804
O           -3.36002287754315        0.70029019029501        3.05452125562273
H           -3.01363147515421        1.27256987272753        2.34459380687835
H           -2.60379558952906        0.09966494468289        3.24688861771599
O           -1.28282675200143       -4.34568176577067        0.92244219212132
H           -0.75596913533184       -3.93167745948628        0.19725648632263
H           -0.94627588978116       -5.26391857081887        0.95186351983740
O           -0.19084054403245       -3.60875040676656        3.23587086367419
H           -0.14254926362718       -3.48486536374114        4.19018920568445
H           -0.32064777390915       -2.70991742219471        2.87546911906093
O           -0.54333013133740        2.42439490904153        6.08734719008743
H           -0.40985444241963        2.90422291703181        5.25459244576480
H           -1.23126756636174        1.78107332061631        5.89494790104221
O            2.52776563154797        1.02787325215053        5.05298603619221
H            2.24050452661468        0.11090487899887        4.86262497111930
H            2.54562963841205        1.44485345896413        4.17035780872712
34
 energy: -56.637776654976 gnorm: 0.059390490717 xtb: 6.7.1 (edcfbbe)
C           -0.01147542985605       -0.52496507857722        0.62598648067057
C           -0.06561619156864        0.13970370220547        2.04650226173419
O           -0.28641613381736       -0.68111775245134        2.99652227298211
O           -0.02737094027699        1.36972264504689        2.11018453542492
C            0.01873996126911        0.53713603947162       -0.45160030679540
N           -0.00330158942164       -0.09740063628367       -1.79887540535746
H            0.87426831668516       -1.15715058260529        0.62853819725212
H           -0.89906177247942       -1.15116546586401        0.54619649874718
H           -0.85356833754720        1.17744360683702       -0.33741272211760
H            0.90338065124310        1.16027882590630       -0.33858213563970
H           -0.84691211938251       -0.67611758788204       -1.86835633132054
H            0.81718676119867       -0.70134758662929       -1.90341415793246
H           -0.00890167196959        0.60718358130312       -2.54124190367849
O           -2.92354820601186       -2.10706674681676        0.47474767722837
H           -2.84795043112585       -3.07788391090212        0.38688102154175
H           -3.05231944979812       -1.96339841964576        1.41328584997965
O           -1.47544289695383       -1.99797343060490        5.32727704012870
H           -1.80845566749474       -1.75486013428303        4.46747956493017
H           -1.46889624375954       -1.21018535968860        5.85430533587567
O           -3.30540160966288        0.70865461180866        3.07779768631707
H           -3.03822319176307        1.28475801519746        2.34778501163158
H           -2.56741047401096        0.10325532822317        3.21880215302651
O           -1.27613225766239       -4.37051660112186        0.86351401083117
H           -0.77541180161965       -3.97687179036326        0.14446072761969
H           -0.98364166434640       -5.28600281026831        0.93225357025315
O           -0.13526738971005       -3.57711499106908        3.25064896712532
H           -0.16832518850111       -3.50914106907518        4.22787818228471
H           -0.22688611464634       -2.65533887646548        2.92251170407138
O           -0.57114107986153        2.45342550002526        6.10174453336192
H           -0.39113461838821        2.91248685219493        5.25956078936427
H           -1.24249297363578        1.79395674834040        5.88344730188420
O            2.51225913575531        1.02507738988459        5.03586155162114
H            2.26904766827707        0.11254131340606        4.87166871479797
H            2.56704695084227        1.44654067074897        4.17517632215450
34
 energy: -56.639708096653 gnorm: 0.067935009359 xtb: 6.7.1 (edcfbbe)
C           -0.03520371972929       -0.53528001933992        0.62160401759872
C           -0.19100509053408        0.12706929903516        2.04275403002340
O           -0.31551864501530       -0.68346712122850        2.98197401755493
O            0.00972021415842        1.37752864833137        2.11833040718349
C            0.01548690952884        0.52857344895663       -0.45842189338869
N           -0.00459398557265       -0.09628459733980       -1.80836452800235
H            0.87008612030979       -1.14621978911995        0.64733075949337
H           -0.90961264349227       -1.17764260178937        0.51443184611753
H           -0.85476081442673        1.17887035715573       -0.34779546874234
H            0.90844907176313        1.14688446144638       -0.33843811833186
H           -0.85381454696141       -0.67247009828089       -1.87872245044055
H            0.81717052178041       -0.70413966231728       -1.91509641923393
H           -0.00899387598621        0.61371899649483       -2.55061056389466
O           -2.91104998676306       -2.10450629615781        0.46499168684369
H           -2.82324622754424       -3.07362028259107        0.40144135028799
H           -3.08888060922039       -1.93016585276819        1.39931508119534
O           -1.52793441804578       -2.04465221334362        5.39024797164012
H           -1.75270511128442       -1.76062641003618        4.48018050765424
H           -1.45051846762602       -1.22413665128663        5.88925897251944
O           -3.26272068608595        0.69894736212246        3.08930564221194
H           -3.05914764079202        1.29886920034977        2.35771820376831
H           -2.50179189232809        0.12281209338406        3.19925371739486
O           -1.29430648611269       -4.39086348132539        0.80851310260300
H           -0.75212655193582       -4.01868886473882        0.11039061100615
H           -1.01988576136009       -5.30221060723421        0.92958183350450
O           -0.08259000158156       -3.53656432601958        3.25234498808224
H           -0.16077168095977       -3.50577987960937        4.23346435123074
H           -0.21294170581530       -2.61808482810622        2.97861644002515
O           -0.55415308437956        2.43921350127706        6.07347073687026
H           -0.41432828874435        2.95084581351969        5.28714855571696
H           -1.26036050622017        1.81966985775069        5.88975244434559
O            2.53626983913632        1.01897708013117        5.03039986242088
H            2.27522740177678        0.11270202568244        4.88247716049686
H            2.57177635006232        1.44726743699851        4.17468614424266
34
 energy: -56.644840662275 gnorm: 0.053262881606 xtb: 6.7.1 (edcfbbe)
C           -0.03638390242696       -0.53378205366415        0.61584403057134
C           -0.18223776381346        0.12092166654046        2.03930027521539
O           -0.38858365818995       -0.69294359582872        2.97132317906223
O           -0.05874466075337        1.35561335511236        2.12860763045759
C            0.01670604672497        0.52843223485438       -0.46356085765537
N           -0.00734685377974       -0.09498973846117       -1.81424843041123
H            0.86703455957308       -1.14325259500456        0.64617843461723
H           -0.90833530445651       -1.17963388420444        0.50662502737267
H           -0.84857169923388        1.18362937064489       -0.35169817871122
H            0.91362625081498        1.13872943815613       -0.34318775783747
H           -0.85795665934035       -0.66814447684638       -1.88432837578302
H            0.81229845689611       -0.70416793761437       -1.92437117651507
H           -0.01121921154137        0.61612600867183       -2.55458568735839
O           -2.90612412028080       -2.09964064378445        0.45898842920246
H           -2.80206679381863       -3.06508833042267        0.41455849234476
H           -3.11810539752223       -1.90674790839464        1.38325960510707
O           -1.50438005459322       -2.04412640754492        5.40656396802669
H           -1.75141405718999       -1.78148553719880        4.52170180241596
H           -1.44661539287255       -1.25298277526155        5.93176321016840
O           -3.24497505645743        0.67559173098812        3.08761162242953
H           -3.07799297358063        1.30620449920065        2.36662524928563
H           -2.43195940311446        0.14469619838747        3.18580794049267
O           -1.35037699737318       -4.40411383733502        0.75987512986860
H           -0.70674899749187       -4.05402006283080        0.08969544535428
H           -1.04652123381880       -5.31207914773045        0.94196725611880
O           -0.08026994129945       -3.51737426396207        3.25475229663279
H           -0.12885005347828       -3.49885354888708        4.21843119844536
H           -0.18639300683016       -2.58393101586053        3.00911968233153
O           -0.57198217870126        2.45120892286594        6.08479166782141
H           -0.39579215700258        2.95995380599751        5.29850409584313
H           -1.27889749933009        1.83944759560089        5.88098209861111
O            2.59335292603520        1.01341364239675        5.03383740986458
H            2.26652136968470        0.11336104048395        4.88557031801015
H            2.56052941856053        1.44657425093920        4.16522996859811
34
 energy: -56.632747095312 gnorm: 0.150994389062 xtb: 6.7.1 (edcfbbe)
C           -0.03211090157529       -0.52565771308479        0.61095711519309
C           -0.10849531930002        0.11299134360174        2.03064270328099
O           -0.50535368586998       -0.69661670171738        2.96175469149776
O           -0.15407140947150        1.31658054846666        2.13883899767649
C            0.01868877492521        0.53067121757866       -0.46968653725590
N           -0.01178975352847       -0.09598063590815       -1.81763984280875
H            0.85711182892674       -1.14562730742955        0.63956341306835
H           -0.90539124886011       -1.17144626744818        0.50587587544592
H           -0.83744287488454        1.19173976114815       -0.35532389003676
H            0.91924720007379        1.12789100772259       -0.35125112525671
H           -0.86206519982606       -0.66490040738856       -1.89176107793726
H            0.80455442323028       -0.70428455327995       -1.93474117783894
H           -0.01412071780691        0.61629953527849       -2.55367132490387
O           -2.92057970112969       -2.08901956602874        0.45261027629028
H           -2.76920389972207       -3.04927071824709        0.43387482571813
H           -3.13685063434893       -1.88816284239412        1.36395608640761
O           -1.59720608589240       -2.11974604882033        5.47682277453208
H           -1.67851799119469       -1.75799479577619        4.51791469880181
H           -1.40164515606994       -1.25972250394482        5.95190570905823
O           -3.22225709849546        0.66266887104438        3.08117103848218
H           -3.06090574134134        1.30116225670694        2.38283659906432
H           -2.38122471367855        0.17177960300920        3.18265510453393
O           -1.28649032916309       -4.43350123741206        0.73284150249027
H           -0.79264477910526       -4.08432947840939        0.05329713216209
H           -1.08050482991025       -5.33074564177548        0.90092393296635
O           -0.04039658839293       -3.48167266444258        3.27003665328453
H           -0.12717773620531       -3.49198558226174        4.22140968435363
H           -0.15571944953325       -2.54522608553427        3.05066153904706
O           -0.62643681403899        2.49143696717536        6.12796923312616
H           -0.34737299256191        2.95041202559421        5.29557831040771
H           -1.30277998294926        1.85470392622838        5.85104899614588
O            2.60316882258663        1.01031578155019        5.02591256087621
H            2.28267898399916        0.11276964410659        4.89715042809757
H            2.57452960111272        1.44101426209687        4.16740009402663
34
 energy: -56.649277250188 gnorm: 0.036990722743 xtb: 6.7.1 (edcfbbe)
C           -0.03825994621752       -0.53239000110979        0.61283087928956
C           -0.19757331130470        0.10555770966097        2.03107799163901
O           -0.48465347947917       -0.69881869526157        2.95836485114999
O           -0.12667117348776        1.33342824732679        2.13913689119708
C            0.01932038311616        0.52878759663867       -0.46785799515379
N           -0.01197428854081       -0.09524362658137       -1.81619586243335
H            0.86160550261912       -1.14410954166808        0.64743180378387
H           -0.90698191673802       -1.18176925477920        0.49453747017960
H           -0.83802266487887        1.19257442132156       -0.35531189683991
H            0.92182000001480        1.12823896583976       -0.35005860039174
H           -0.86445702848313       -0.66403816676078       -1.89082316904933
H            0.80487973048779       -0.70543120000991       -1.93507867147674
H           -0.01465963035653        0.61875525269940       -2.55316623862592
O           -2.92418796492756       -2.08580134374964        0.44737120006951
H           -2.75890572416324       -3.05019405136938        0.43718353796615
H           -3.14369559791995       -1.87853622699130        1.36109042415369
O           -1.53301109739896       -2.08195005370399        5.45220274056901
H           -1.70678566198784       -1.77911418364529        4.54760736971540
H           -1.42483931082448       -1.28251450718792        5.97574427878268
O           -3.21371465439585        0.65359884389193        3.08086842906588
H           -3.05526934354432        1.30481370842156        2.38564544375179
H           -2.37211912379176        0.16665924584306        3.17677860386765
O           -1.34984373020210       -4.43183473917391        0.71032431269742
H           -0.74060522145301       -4.09834549124604        0.04176719973244
H           -1.07980333564925       -5.33455260207833        0.92301179297154
O           -0.02817349362286       -3.46908893984598        3.25315884796485
H           -0.14048075171852       -3.51145940409368        4.22346177424483
H           -0.15049384741111       -2.52389858474152        3.05455860534053
O           -0.61879116933583        2.48809950035007        6.12080616969466
H           -0.35694736296990        2.95859263705498        5.30593069144911
H           -1.30584605116573        1.86280969056503        5.85368179494844
O            2.61471751730999        1.00968023629081        5.02437267146019
H            2.28824883300896        0.11364898122677        4.89721778002372
H            2.57739891541002        1.44039157687154        4.16386387825924
34
 energy: -56.649086896002 gnorm: 0.070324874542 xtb: 6.7.1 (edcfbbe)
C           -0.05160763007979       -0.53928151249450        0.61042559792814
C           -0.25665055059127        0.10051449724323        2.02326940925224
O           -0.58726414889406       -0.69869304392282        2.94784030118644
O           -0.12345748626171        1.33553002468135        2.13317125718044
C            0.02370016393276        0.52485058076467       -0.46885973455667
N           -0.01424214791370       -0.09472822530660       -1.81892346519706
H            0.85211805122306       -1.14786368709520        0.66393743246614
H           -0.91665700867267       -1.19103368279447        0.47030399484292
H           -0.82793792119970        1.19751454971077       -0.35664721072312
H            0.93263165664122        1.11624429370868       -0.35035319246174
H           -0.87069709963646       -0.65862386474650       -1.89394477082218
H            0.79912378686978       -0.70941081555792       -1.94322237971908
H           -0.01542917597264        0.62208005488547       -2.55401493363359
O           -2.88593650124823       -2.08106473829196        0.44272065037552
H           -2.74281294347976       -3.03301516151274        0.44765871291905
H           -3.17802343210304       -1.84899906042850        1.34179605470194
O           -1.54290608105167       -2.11004467883209        5.47696051193479
H           -1.67821843776078       -1.77574314479930        4.57507228205280
H           -1.41108862097628       -1.33240181655700        6.02413382858887
O           -3.14150129858128        0.65994002453996        3.11068153481411
H           -3.04059279234897        1.31250532007230        2.40633649287635
H           -2.34181891530501        0.15649683869627        3.14952158508590
O           -1.39435722750919       -4.46238276995537        0.66071519805743
H           -0.71600790499389       -4.13893784664935        0.02736856378363
H           -1.11493131188187       -5.35214155178062        0.90907399378770
O           -0.03187384058109       -3.44795792173757        3.26532476765823
H           -0.11127034411200       -3.47324494727610        4.20892999436394
H           -0.12599383950819       -2.49834649284491        3.06197273812095
O           -0.58568574405708        2.46365837429339        6.07639535212728
H           -0.41707171017260        3.00692597644580        5.33639001811628
H           -1.32489657220334        1.89833323357326        5.87647242440319
O            2.67479267558497        1.00345297479556        5.02642592987932
H            2.29706474355319        0.11565858105992        4.90848122593460
H            2.57072360928876        1.43675563811878        4.15612083467223
34
 energy: -56.649198183726 gnorm: 0.081323581277 xtb: 6.7.1 (edcfbbe)
C           -0.06343626131078       -0.54133546752134        0.61125530247267
C           -0.29359710007236        0.09720191545174        2.01426621887954
O           -0.64024673428820       -0.69180694779365        2.93763672981419
O           -0.12955215309156        1.33088980063127        2.12966718157885
C            0.02394624631628        0.52381225506931       -0.46742066121945
N           -0.01732898790375       -0.09372561877127       -1.81737572933374
H            0.84413496099494       -1.14444182744802        0.67770784770997
H           -0.92103388749119       -1.20108731786097        0.45384028697172
H           -0.82196458970516        1.20300445616521       -0.35523522277812
H            0.93730420269127        1.10772494479410       -0.34785498899565
H           -0.87561690173785       -0.65404875986582       -1.89579218406894
H            0.79356680418382       -0.71034001663793       -1.94655578013392
H           -0.01661320050285        0.62578282775173       -2.54974540721615
O           -2.91143498484259       -2.06934921633446        0.42895211111882
H           -2.70767115344421       -3.02168708057590        0.46215247656303
H           -3.18559401960940       -1.83078657736946        1.32301033492263
O           -1.53136882344269       -2.11540741785909        5.49104371267268
H           -1.65985678106415       -1.76832161559107        4.60786559956453
H           -1.39507409822321       -1.36453256705568        6.06858560750367
O           -3.17409057532206        0.57242597686646        3.08229539304658
H           -3.05954545937737        1.34366333536968        2.45156394701621
H           -2.22021001329489        0.19281149160234        3.14099334788511
O           -1.41776749456451       -4.48293662914829        0.61656966532826
H           -0.72825354626017       -4.17388168801394        0.00224830218134
H           -1.13760426714927       -5.36177712025446        0.89730488509454
O            0.01663545399755       -3.41097950954327        3.24954285047471
H           -0.12470877813077       -3.47796056632839        4.19739558730301
H           -0.14081357083458       -2.47351440627127        3.07996294398909
O           -0.59381771460248        2.45624781155631        6.08508963454594
H           -0.40696232060727        3.02657198129721        5.36631693819164
H           -1.35714159709774        1.92644237443290        5.86910769492002
O            2.66752775046995        0.99950034083468        5.00855051512121
H            2.33881050037479        0.11215182970558        4.91942832108270
H            2.61060309494038        1.42623500872289        4.15916153778979
34