46
 energy: -75.109904232307 gnorm: 0.067621985843 xtb: 6.7.1 (edcfbbe)
N           -1.01807019820000       -0.39798421600000        1.13995492930000
C           -1.75798248200000        0.77382879660000        0.65598018560000
C           -2.55407736960000        0.47878121340000       -0.60687616840000
C           -1.68102020690000        0.07506603200000       -1.79045469990000
C           -1.48837891400000       -1.41891807030000       -1.99389141420000
O           -0.45194190080000       -1.79686773900000       -2.58768758540000
O           -2.38086344050000       -2.22374083480000       -1.61037578790000
H           -0.76533141450000       -0.23778842320000        2.15593776930000
H           -1.59922207970000       -1.23532594500000        1.08706273370000
H           -2.46554799980000        1.08786699720000        1.42229522460000
H           -1.05864651180000        1.58347197790000        0.45821188570000
H           -3.12340052800000        1.36987877680000       -0.86779011050000
H           -3.28368119770000       -0.30863317350000       -0.42118725250000
H           -0.71208192730000        0.56700741890000       -1.75532750430000
H           -2.17178085920000        0.38219637260000       -2.71631842950000
H           -0.12367648840000       -0.56392697330000        0.62916300380000
O           -0.29070347840000       -3.87871063410000        0.05824730340000
H            0.21081905500000       -4.70441096620000       -0.09353948120000
H           -1.22360357790000       -4.13230702800000       -0.02310297900000
O           -2.91563554460000       -2.53681180830000        1.36534250360000
H           -2.93422903730000       -2.73195354910000        0.42121593110000
H           -3.46624531940000       -3.21848216310000        1.79949314110000
O            1.89600385990000       -2.84089507090000       -1.28164195130000
H            1.03396237760000       -3.05381730700000       -0.89378078950000
H            1.80299305570000       -2.96970705960000       -2.23429162870000
O           -0.71613831040000        0.09739118420000        3.69308870280000
H           -1.18128835280000       -0.70092874130000        4.00829415890000
H           -1.35327422590000        0.82249488120000        3.73979542110000
O           -1.94061552180000       -4.38658357570000       -3.12239288780000
H           -2.47015209600000       -4.11693099930000       -3.90263982880000
H           -2.05951756370000       -3.64599561960000       -2.47831003570000
O            1.76145079950000       -0.28594123230000       -2.50073306410000
H            2.55030377280000       -0.86514826810000       -2.45290422260000
H            0.97863914070000       -0.87142396260000       -2.59688266560000
O            1.48442697150000       -0.54416006300000        0.24105173150000
H            1.53964144920000       -0.29319840350000       -0.69256906890000
H            1.76225527180000        0.22751437200000        0.80218235430000
O           -0.14514313400000       -2.25609423310000       -5.23820965210000
H           -0.29492660250000       -2.17405758360000       -4.27806925070000
H           -0.12362360950000       -3.21130725960000       -5.43897111840000
O           -4.74123680550000       -1.30881876610000       -2.56873537470000
H           -3.91979797560000       -1.69922104240000       -2.19891042650000
H           -4.49831234010000       -1.03671419140000       -3.46370336660000
O            0.65380682440000       -2.67477843940000        2.30127505330000
H            0.25818542570000       -2.96832215810000        1.45984143900000
H            1.58234579410000       -2.96120116640000        2.24873847530000
46
 energy: -75.117809088797 gnorm: 0.031740940138 xtb: 6.7.1 (edcfbbe)
N           -1.02906170789331       -0.40082403098737        1.14118486096819
C           -1.76502857706873        0.77340147984214        0.65334270950591
C           -2.56106664530373        0.48088637519842       -0.61061853631989
C           -1.68158579315119        0.07922674332625       -1.79356341866529
C           -1.47685045940933       -1.41869728367264       -1.97910856515654
O           -0.45104202209269       -1.79767660222869       -2.58727664216372
O           -2.37889953660017       -2.21836121632553       -1.60665671384398
H           -0.76201851527752       -0.24909788013379        2.15335624873386
H           -1.61118330014195       -1.24094036440349        1.10043828171701
H           -2.46933004990985        1.09237051332293        1.42141309762931
H           -1.06029552968824        1.58164247182443        0.45975880193751
H           -3.12641078115299        1.37503180210571       -0.87336824058742
H           -3.28587537290780       -0.31213207250266       -0.41928545688526
H           -0.70731897889279        0.56408201767029       -1.76218913061190
H           -2.16188087451672        0.38834204405339       -2.72623395419172
H           -0.13482581348476       -0.57569411104814        0.62879203799986
O           -0.28674905353032       -3.90443251835072        0.03540517062108
H            0.18705606087624       -4.74313254073643       -0.07187252254251
H           -1.22247098853556       -4.11933523126094       -0.06224604443583
O           -2.90799351705663       -2.55422200994281        1.34050666802217
H           -2.97508428988304       -2.71472231245379        0.38997676614400
H           -3.47421821622542       -3.20488239011381        1.77648189517160
O            1.95174281788368       -2.92588774395770       -1.30525665978833
H            1.07193197306825       -3.00070673409530       -0.87868927995090
H            1.77488002519810       -2.99662596658799       -2.25269641159438
O           -0.72481279018881        0.10745484316932        3.72315879019909
H           -1.15159364610566       -0.69259588049668        4.06365460757736
H           -1.36360338536994        0.82671409264316        3.81019342251756
O           -1.96773084760212       -4.41707923887569       -3.11712721083850
H           -2.47144508638256       -4.15529865053682       -3.89934244178044
H           -2.04864080509926       -3.64526356024539       -2.50466587659600
O            1.76691509217395       -0.25602361683716       -2.48415563656227
H            2.53347691057129       -0.84772420337692       -2.46519189931713
H            0.98071745868479       -0.83357431832448       -2.60825753146045
O            1.47584594517502       -0.50379200617450        0.25225947566196
H            1.59840668431359       -0.29557771950138       -0.69236985627388
H            1.81472761494731        0.24431117252038        0.77560983322782
O           -0.18057306454135       -2.26728821836437       -5.25854313500491
H           -0.27600887395693       -2.17431031915958       -4.29099792368219
H           -0.10874750050847       -3.21672989342606       -5.42974432218817
O           -4.75833127233498       -1.31059778330525       -2.57503569735245
H           -3.93572897215529       -1.68813328169922       -2.19728290780197
H           -4.52226791513238       -1.03299969745443       -3.46631916016776
O            0.64382438834616       -2.68869235870694        2.32745284364641
H            0.26323875163971       -2.98353719652154        1.48079724960376
H            1.58059724332148       -2.91248324796831        2.26218761748060
46
 energy: -75.122322146279 gnorm: 0.018863851594 xtb: 6.7.1 (edcfbbe)
N           -1.04207435964228       -0.40193941402718        1.15033107045129
C           -1.77340323220935        0.77244999209452        0.65441153337170
C           -2.56284150092608        0.48170832889814       -0.61478551506260
C           -1.67914188622235        0.08459001818418       -1.79803412865811
C           -1.47928118603582       -1.41564377515346       -1.99819822871433
O           -0.44273545718972       -1.79887183446581       -2.58325185133169
O           -2.37178957728360       -2.21270407748120       -1.60006342297037
H           -0.76287954737843       -0.25733508401361        2.15509574402842
H           -1.62352669131548       -1.24717705051381        1.12313723781592
H           -2.47726733350272        1.09615950725164        1.42148222760444
H           -1.06221547477284        1.57829407027475        0.46714763681459
H           -3.12545203184442        1.37770060077292       -0.87812199054625
H           -3.28418664728589       -0.31584354675835       -0.42500731206517
H           -0.69942563469567        0.56173877963931       -1.76261028965333
H           -2.14826171341752        0.40502786138583       -2.73388153509815
H           -0.14600162098497       -0.57915069138957        0.63761603401111
O           -0.27824508085693       -3.93200710811760        0.02825562001656
H            0.16689846038934       -4.77867448308858       -0.06339354687651
H           -1.21744580038538       -4.09389304215940       -0.12419505469564
O           -2.91158645500694       -2.56221042091637        1.29201575201000
H           -3.01258396276055       -2.69576237919208        0.33839017722170
H           -3.48078306156173       -3.19065453354407        1.73600600290336
O            1.98577074164169       -2.94466140293287       -1.33933494566422
H            1.13043229348920       -3.01434786342482       -0.88170725926059
H            1.76799980308883       -3.04301340155685       -2.27016449294546
O           -0.73413101714138        0.11970294241488        3.76945400919692
H           -1.11469410445898       -0.68459394811460        4.13959517830243
H           -1.37106943452451        0.83332138673047        3.91094977607399
O           -1.97205824215575       -4.44359808161609       -3.11559064175714
H           -2.48419117857866       -4.22045662071996       -3.89109385058274
H           -2.06339602103114       -3.66429117807290       -2.52097422691757
O            1.77785552061234       -0.22726251028176       -2.44671711687041
H            2.52063880905650       -0.84072200119051       -2.49688927200690
H            0.98282686335680       -0.78496446494031       -2.61589478051634
O            1.47875187305594       -0.46050127416005        0.25637436779300
H            1.65287328664925       -0.29329921478285       -0.69651508227296
H            1.87664602264195        0.26498973078775        0.74185766176393
O           -0.20411654494483       -2.28247112925099       -5.27872980677559
H           -0.27915481767214       -2.17250692954176       -4.31163359439384
H           -0.09876343382692       -3.22721939291526       -5.42103352078054
O           -4.77976236280207       -1.30905306011654       -2.57199805303427
H           -3.95513635481912       -1.68388027056818       -2.20255424352969
H           -4.56671525292075       -1.02892779200460       -3.46561633434150
O            0.63473733794164       -2.68444752520030        2.35671622542489
H            0.25718554957609       -3.01095626262383        1.52249655332791
H            1.57638724275304       -2.85825009769864        2.28453249179325
46
 energy: -75.125451486590 gnorm: 0.026713517556 xtb: 6.7.1 (edcfbbe)
N           -1.05253587075665       -0.40000656013583        1.16687277978938
C           -1.78033984803182        0.77176595428272        0.65891411630586
C           -2.56065847631415        0.47991045179543       -0.61639081223522
C           -1.67213281480727        0.08835061696524       -1.79696070555892
C           -1.46527626283618       -1.41461902966687       -1.99019150032320
O           -0.43890191635151       -1.78949499100533       -2.59744971344496
O           -2.37252643659643       -2.20957455207080       -1.62333175782805
H           -0.77139034403557       -0.25679164814640        2.16423694347540
H           -1.63199314146129       -1.24989792610794        1.14625481029051
H           -2.48908796862010        1.09850886587500        1.42009710949886
H           -1.06524972649012        1.57556615169555        0.47675347823572
H           -3.12460909348009        1.37430111516604       -0.88108356065995
H           -3.27920431538666       -0.32090629129213       -0.43246353234562
H           -0.69165550419929        0.56381712365503       -1.75103042354933
H           -2.13232762598009        0.41567169055308       -2.73577330189414
H           -0.15443287762367       -0.57283048603273        0.65707872945970
O           -0.25621076001117       -3.95357893379016        0.02191993706170
H            0.14307165495425       -4.82678992346082       -0.04728209541553
H           -1.20130540553316       -4.04325879345592       -0.20126884745490
O           -2.91330316686524       -2.56447206600673        1.23330726033999
H           -3.02776411745746       -2.68039594302132        0.28078700851805
H           -3.50441055629191       -3.16772685648289        1.68380234841436
O            2.03244202511493       -2.98172940699754       -1.38187564337042
H            1.20132030635619       -3.01439383999214       -0.87087530925817
H            1.74260426073875       -3.08737367776571       -2.29879170099403
O           -0.74201528532848        0.13751016299338        3.81918918120885
H           -1.06621262330334       -0.67860258831485        4.22202037406775
H           -1.38395410663452        0.83579064902679        4.01769944323563
O           -1.98193402818877       -4.48433948289869       -3.10483876376165
H           -2.50442091078768       -4.30378016070214       -3.88619835641531
H           -2.05985399758484       -3.67941300153138       -2.54481663847470
O            1.78600011119694       -0.20725933288536       -2.42333035763168
H            2.52164877074046       -0.82354984783520       -2.52366844929534
H            0.99197079483676       -0.75986345284533       -2.59652061399508
O            1.48771915273445       -0.42315425278297        0.25382506734283
H            1.65614141880646       -0.29323242571606       -0.70488120141521
H            1.95953499075324        0.28672503118616        0.70366150839288
O           -0.23770543250974       -2.29964635748777       -5.30272963869480
H           -0.30158979029801       -2.16834231801726       -4.33887611132494
H           -0.07276189975788       -3.24461725909359       -5.41422190610932
O           -4.81007455142496       -1.30838314603572       -2.56896656099407
H           -3.97822511590109       -1.67065246123868       -2.20992869560932
H           -4.62086798881391       -1.02126820765365       -3.46574934664847
O            0.60942264699123       -2.69192528485122        2.39217795410589
H            0.24806453062222       -3.03898497275656        1.56057634985990
H            1.56967807991306       -2.78267097921737        2.30819634770544
46
 energy: -75.127903207345 gnorm: 0.023616480635 xtb: 6.7.1 (edcfbbe)
N           -1.05842188380950       -0.39719113167721        1.18966751709502
C           -1.78482840791218        0.77012479233462        0.66781311456961
C           -2.55440422512548        0.47490261518460       -0.61403740600139
C           -1.66140614656530        0.09184327168099       -1.79323920966224
C           -1.46228132377479       -1.41092269643114       -2.00784220276668
O           -0.43385510348225       -1.77826217932839       -2.61625593135554
O           -2.37280878389569       -2.20740054572392       -1.65404400093533
H           -0.78282688723900       -0.25038206990056        2.18184018976161
H           -1.63583630308609       -1.25059888195832        1.16940637423780
H           -2.50207050344639        1.09868656340498        1.41989472850231
H           -1.06894448666360        1.57338329585853        0.48964757947625
H           -3.12115197901030        1.36763281286759       -0.87778310348996
H           -3.27222192999479       -0.32760534866841       -0.43832442577638
H           -0.67958564374070        0.56304445618552       -1.73268353177317
H           -2.11386205103185        0.43311984466319       -2.73079180493525
H           -0.15944021461893       -0.56189419507013        0.68395094631268
O           -0.23307320200777       -3.96305461532485        0.00795462723527
H            0.12667250437367       -4.85814407152638       -0.03878377940538
H           -1.16817864709817       -4.00804699355847       -0.24930433555240
O           -2.89407259703685       -2.57380957904098        1.16664540933024
H           -3.04061174012738       -2.65766488875092        0.21310004188633
H           -3.54218384307476       -3.12941673687369        1.61980498732658
O            2.06426563140595       -2.99361416951621       -1.42396489337881
H            1.26133504977823       -3.03668932691496       -0.88472445568352
H            1.74693683653805       -3.13639995443514       -2.32281366082354
O           -0.74906387239843        0.15521764793575        3.87800764933254
H           -1.01976529381234       -0.67069576908155        4.30372675439676
H           -1.39303668884545        0.83504479172981        4.12528170675326
O           -1.98531840172481       -4.52767316098653       -3.08770477872212
H           -2.53242712974179       -4.40659284456033       -3.87379543461405
H           -2.05971464595697       -3.69421615036960       -2.56972100300156
O            1.79216232626359       -0.19231918440073       -2.41810675297181
H            2.52651800275548       -0.80083296394002       -2.54557991746791
H            0.99997218698829       -0.74331293123738       -2.57949646128503
O            1.50507385191545       -0.38440627159686        0.25555980593765
H            1.64879868048995       -0.28910453352401       -0.70860310071870
H            2.02912807457525        0.31215718770809        0.67253601525648
O           -0.25754061000759       -2.32266962731060       -5.32388628913137
H           -0.32053605495895       -2.17231763903915       -4.36494884376247
H           -0.06309754573082       -3.26263222425183       -5.41803177127919
O           -4.84449606386131       -1.30715427374414       -2.55775853478417
H           -4.00028395704645       -1.66147037006746       -2.22454089656874
H           -4.69004224064470       -1.01341583624216       -3.46117268316483
O            0.59053906869239       -2.65981533109431        2.40792286493810
H            0.23230872342341       -3.06062691802061        1.59674680225141
H            1.53836425436532       -2.75041250948784        2.34630729702141
46
 energy: -75.129571988170 gnorm: 0.036304285346 xtb: 6.7.1 (edcfbbe)
N           -1.06080230707897       -0.39707538664712        1.21830111816495
C           -1.78651767186689        0.76598124421866        0.68263457355914
C           -2.54421516050901        0.46604300619694       -0.60625348327247
C           -1.64613944217262        0.09359096859310       -1.78481416004126
C           -1.46528739869834       -1.40626549717923       -2.04297153406884
O           -0.42782942243680       -1.76637312871065       -2.64099730683438
O           -2.37515817078112       -2.20652050549564       -1.69879274927913
H           -0.79638994571957       -0.24359781734640        2.20836118958800
H           -1.63805847715943       -1.25185046832322        1.19173799521262
H           -2.51423252232055        1.09552891083236        1.42395819134424
H           -1.07218408796271        1.56993598780734        0.50731899473103
H           -3.11501858909683        1.35710036751412       -0.86751568898665
H           -3.26257444957237       -0.33735385149228       -0.44059682752065
H           -0.66221249879579        0.55707021701112       -1.70582789536683
H           -2.09012204554978        0.45547280131023       -2.71822264374468
H           -0.16263799610077       -0.55360991131851        0.71738242521399
O           -0.20503923145049       -3.96325752818469       -0.00241630720766
H            0.11221109385735       -4.87373993962099       -0.05358884502861
H           -1.12165723368151       -3.97135855643439       -0.28745401255708
O           -2.90275847008546       -2.55914358158959        1.09102409788940
H           -3.01860310405098       -2.63461780294960        0.14273756558501
H           -3.56266587610051       -3.10355957347507        1.53631888319829
O            2.09657163689391       -3.00943063000312       -1.47558092055298
H            1.32630264372083       -3.05174855963708       -0.88771185894891
H            1.73354283767679       -3.18681778334649       -2.35331110328781
O           -0.75351013919543        0.16733721632887        3.94452232905782
H           -0.98705403730093       -0.65876899847752        4.37851146993364
H           -1.38662983635577        0.83474910916212        4.22664261494050
O           -1.98983866949960       -4.57256794344227       -3.07082687855965
H           -2.55855008763235       -4.49643396811526       -3.85368185326872
H           -2.06953146638062       -3.72339574060896       -2.58637710769888
O            1.79751799692487       -0.18655270481634       -2.41935993852391
H            2.53443731106058       -0.78560419389462       -2.57763585829351
H            1.00266182682257       -0.73171516321948       -2.57852591712877
O            1.52901492624968       -0.34593324891307        0.26644025682649
H            1.64937769063283       -0.28080557801296       -0.70155009522101
H            2.06796785155040        0.33965415774012        0.65825208558008
O           -0.28519764983794       -2.34955752664241       -5.34748836878648
H           -0.33340876967300       -2.18193457261715       -4.39061921870527
H           -0.05638983772901       -3.28175260845729       -5.43079476449011
O           -4.88190545537725       -1.30170847817473       -2.54141479023200
H           -4.02310411977832       -1.65438471565122       -2.24534785241735
H           -4.76836196266101       -1.00894058171100       -3.45420149526613
O            0.53422012567031       -2.69116307867554        2.45339216659295
H            0.22801215982644       -3.07829981054054        1.61985937386611
H            1.51643481581584       -2.64223319709212        2.37435934661935
46
 energy: -75.131323362562 gnorm: 0.029690294732 xtb: 6.7.1 (edcfbbe)
N           -1.06480468661713       -0.39612040150152        1.24106408356650
C           -1.79031773462567        0.76400425917787        0.69649667800541
C           -2.53716675884725        0.45745549271648       -0.59795489092709
C           -1.63181405862945        0.09299947631844       -1.77449014543750
C           -1.46315227403529       -1.40322036503446       -2.06616653048295
O           -0.42404209697808       -1.75706639038086       -2.66641666168670
O           -2.38107239691472       -2.20592250818041       -1.74856177379077
H           -0.81281312216543       -0.23664987637018        2.23288760674479
H           -1.64194879142757       -1.25101007973669        1.20388099233522
H           -2.52595815429166        1.09280747120094        1.43015501892255
H           -1.07823518806701        1.56957124179098        0.52296267231304
H           -3.11223558767024        1.34632382169211       -0.85883164233181
H           -3.25455462637555       -0.34789445690939       -0.43851772383732
H           -0.64573938694202        0.54779668349793       -1.68020428815979
H           -2.06655975314136        0.47235888232266       -2.70519155432572
H           -0.16852024244548       -0.54710719130437        0.74401311232956
O           -0.17057860514933       -3.96140660814570        0.01514975486576
H            0.09814182353641       -4.88566233889620       -0.06793651549743
H           -1.07775994523696       -3.91523051127791       -0.33776776205936
O           -2.90405240797889       -2.55133551865193        1.03693975336875
H           -3.00066007234008       -2.59816014125302        0.08582808891025
H           -3.56771874591611       -3.09619862737573        1.45854600636675
O            2.11876359198854       -3.02519224064706       -1.51284625017784
H            1.37227233900393       -3.06457481244772       -0.88343453737463
H            1.71694213659646       -3.21334839093711       -2.37527306633514
O           -0.75769199021869        0.17616721203550        3.98855029299206
H           -0.95694186440293       -0.65129547882138        4.43218154613117
H           -1.38320542939982        0.83219593120753        4.30533821685835
O           -2.00861001046372       -4.61460273575216       -3.05589765577641
H           -2.56275945616042       -4.53390893218501       -3.83538359885534
H           -2.07748484290628       -3.75708538381703       -2.59201744130946
O            1.80033133519973       -0.19098989841630       -2.42159025134016
H            2.54234878778825       -0.78203810989813       -2.60453002424461
H            1.00108778509795       -0.73034706226705       -2.59581113254313
O            1.53586352055474       -0.31697777245445        0.28263433975633
H            1.66029926154177       -0.27865728861106       -0.68852429419120
H            2.10545206022546        0.35440098571066        0.65692132897488
O           -0.31786457301598       -2.37073714642785       -5.36883209674590
H           -0.33975331457695       -2.19142576564362       -4.41026103146432
H           -0.04808101887206       -3.29650676816902       -5.44615882689628
O           -4.91136108995953       -1.29277444418697       -2.52949162518421
H           -4.04353052622251       -1.64776445554913       -2.26121893935447
H           -4.82427850358718       -1.01168564571898       -3.44881915361901
O            0.52137026442877       -2.63718698672193        2.45609521046044
H            0.21292686102514       -3.06524857081503        1.64402306224319
H            1.47015427268262       -2.66635719726776        2.41633685142067
46
 energy: -75.130815580367 gnorm: 0.056928093457 xtb: 6.7.1 (edcfbbe)
N           -1.06995405941126       -0.39415751914498        1.25927324114520
C           -1.79593313312577        0.76343775326832        0.70896668929104
C           -2.53266274337190        0.44996376725435       -0.58998277688568
C           -1.61772847491419        0.09259345469361       -1.76337894504576
C           -1.45539425192948       -1.39923087588004       -2.07377704473948
O           -0.42560848703733       -1.75078191209264       -2.69299083550587
O           -2.39078415802721       -2.19945512107407       -1.79523864888877
H           -0.83070429956308       -0.23107456409896        2.25492909505704
H           -1.64448685789323       -1.24978419894087        1.21015789071946
H           -2.53661124861901        1.08992936996013        1.43825122514622
H           -1.08596632368395        1.57163587100500        0.53803248672002
H           -3.11220754710864        1.33569059813992       -0.85328650795715
H           -3.24626495559781       -0.35944150194172       -0.43236531952969
H           -0.62779555373428        0.53464925175432       -1.65603131273323
H           -2.04058764270104        0.48841812616096       -2.69318639968349
H           -0.17435721165223       -0.54272055782990        0.76684570184652
O           -0.14797637449325       -3.95042159958407        0.01454416513502
H            0.09655902128618       -4.87716133618110       -0.07929946236333
H           -1.03853817281780       -3.88800478589820       -0.34959807952956
O           -2.83803068944856       -2.59327354698751        1.00076293033968
H           -3.01528585705474       -2.53896994982908        0.02697224180953
H           -3.60323582320601       -3.07519755842274        1.38054532174152
O            2.11598360538599       -3.02165169224496       -1.52136326522602
H            1.37451151376960       -3.10871556296528       -0.92757902553913
H            1.75909466214007       -3.20179135574854       -2.37673676338573
O           -0.76240246086074        0.18994624872528        4.00859305678816
H           -0.90074759669897       -0.65252618876178        4.47912260243335
H           -1.39624716073056        0.82393203842695        4.38440970078334
O           -2.01935910478694       -4.64517500445120       -3.03743408654664
H           -2.57037371611145       -4.57865245076283       -3.81349521203659
H           -2.08891337936270       -3.77235187528981       -2.60060235988023
O            1.79916394946959       -0.20145867903744       -2.43239369044149
H            2.54727566682294       -0.77923656044451       -2.60418165950446
H            1.00009647138700       -0.74289016859654       -2.61992922721563
O            1.52459248209158       -0.29244927553503        0.29136886561750
H            1.66994624499755       -0.27377427924488       -0.67992340277044
H            2.16385689160122        0.35286985887415        0.65579124398214
O           -0.31695473920980       -2.39082558565025       -5.38117069067904
H           -0.35511122527195       -2.20383254689974       -4.42777694483591
H           -0.06672501082034       -3.30713959903840       -5.46869388614479
O           -4.93607713552006       -1.27894890996683       -2.51986900654372
H           -4.06545499065613       -1.63803547252990       -2.26862742305312
H           -4.86288645581612       -1.01946807218457       -3.44290754315066
O            0.48383213166026       -2.62457465024544        2.46663838046699
H            0.20649886228167       -3.06022111159764        1.64715243148354
H            1.43464212242973       -2.63528091326363        2.44733745192942
46
 energy: -75.133090833180 gnorm: 0.027626879379 xtb: 6.7.1 (edcfbbe)
N           -1.06899543124725       -0.39608161855801        1.26831512446010
C           -1.79506350435778        0.76054064708705        0.71484643845121
C           -2.52888376835020        0.44759590336639       -0.58600820737309
C           -1.61131769849168        0.09445703577204       -1.75910633379203
C           -1.45624441302676       -1.39510539402878       -2.07995691923284
O           -0.42849784972704       -1.74956976105033       -2.70069832201782
O           -2.39495078267727       -2.19142271705598       -1.80411317209990
H           -0.83323641806843       -0.23346316922572        2.26535758760982