37
 energy: -59.778197061667 gnorm: 0.170824875423 xtb: 6.7.1 (edcfbbe)
N           -0.44376700000000       -0.47181200000000        1.74520500000000
C            0.69351000000000        0.10436000000000        1.02689900000000
C            0.25232500000000        0.99958500000000       -0.14624500000000
C           -0.57382300000000        0.30680200000000       -1.24485700000000
C            0.17276200000000       -0.78812900000000       -1.95771100000000
O            0.40822200000000       -0.68794500000000       -3.15102700000000
O            0.54634400000000       -1.90328400000000       -1.30373900000000
H           -0.08747200000000       -1.00411400000000        2.57127000000000
H           -1.08118400000000        0.28586300000000        2.08138600000000
H            1.28097900000000        0.73286000000000        1.73117400000000
H            1.36804500000000       -0.70373400000000        0.67713900000000
H            1.15866700000000        1.44313000000000       -0.61117500000000
H           -0.35578800000000        1.83434200000000        0.26527400000000
H           -1.51736400000000       -0.10080200000000       -0.82923500000000
H           -0.85273400000000        1.08677100000000       -1.98587200000000
H           -0.96872000000000       -1.13389300000000        1.13151600000000
O            1.58815700000000        2.46657000000000       -5.89871000000000
H            0.81955800000000        3.08932900000000       -5.94385300000000
H            2.18776300000000        2.86152400000000       -5.21673000000000
O           -1.60572900000000        3.15120900000000       -2.16857000000000
H           -1.80372900000000        4.08982900000000       -1.92280900000000
H           -1.28493300000000        3.20206900000000       -3.10404600000000
O            1.51221000000000        3.11881600000000        3.79627400000000
H            2.45204200000000        2.81762100000000        3.87756500000000
H            1.56329100000000        4.10663100000000        3.84344800000000
O            0.86323700000000        3.53825900000000       -3.45776500000000
H            1.59711900000000        4.13866900000000       -3.17222100000000
H            0.95874000000000        2.73841500000000       -2.88179500000000
O           -1.29368000000000        2.73910400000000        4.53205200000000
H           -0.39367200000000        2.95265700000000        4.88559200000000
H           -1.64172100000000        3.60477300000000        4.20024200000000
O           -1.31922700000000        2.88807800000000       -5.49442300000000
H           -1.99181200000000        2.26635400000000       -5.11799500000000
H           -1.61207200000000        3.78395200000000       -5.19067100000000
O            2.44123900000000        3.85741900000000       -0.83380700000000
H            1.45524800000000        3.77069300000000       -0.86400000000000
H            2.76639700000000        3.23732700000000       -1.53407200000000
37
 energy: -59.798971973915 gnorm: 0.083358888916 xtb: 6.7.1 (edcfbbe)
N           -0.44008533110589       -0.46985302025324        1.74801303496610
C            0.70215474893706        0.11339610587106        1.02871666624398
C            0.25033365024620        0.99924348530436       -0.13180789728866
C           -0.56704301458242        0.29859444601817       -1.22579184009494
C            0.16704581767265       -0.81247028137565       -1.95640432276289
O            0.42747065794009       -0.69396242848456       -3.16222024022904
O            0.52383326013778       -1.85567144534930       -1.27586617243983
H           -0.10034472625231       -1.00168115338260        2.56424467063326
H           -1.07643502180102        0.27491612409749        2.07608129320315
H            1.27971378375785        0.73303458596616        1.72576498092035
H            1.34467611216066       -0.69354945810132        0.65386941472385
H            1.14816906870860        1.42464498364414       -0.59322749388094
H           -0.35113625225478        1.82912831518712        0.26046422820020
H           -1.50289656279575       -0.10656344212928       -0.82298224691066
H           -0.84481297392672        1.04849081368662       -1.97632762698261
H           -0.95229444759889       -1.11794921783663        1.12914511982896
O            1.63358693439012        2.49464939609929       -5.96087076433576
H            0.80794456122943        3.02601568380676       -5.92614400906978
H            2.16792090583549        2.85123094369115       -5.22638862662605
O           -1.64270978844472        3.16782548835411       -2.18088520271939
H           -1.81002070013893        4.09263584259462       -1.93563565490854
H           -1.24503471308379        3.21057560615786       -3.07324747392802
O            1.52207823172691        3.12871172104161        3.81878658693668
H            2.44090219687337        2.82175600212753        3.88002927810238
H            1.58020215823738        4.09844777218606        3.81892054591293
O            0.86646798520927        3.56381955674842       -3.43523802447508
H            1.59097053938878        4.14402183912070       -3.14549514398473
H            0.95841253627464        2.74401277509990       -2.91872127232523
O           -1.30943520290159        2.74769388202379        4.54786365163287
H           -0.40007889261427        2.93070894393058        4.84765952016384
H           -1.63820475115509        3.59539910709270        4.20818897109997
O           -1.32840782363549        2.90854698900591       -5.47780653769640
H           -1.98111830393495        2.27562658863962       -5.13466180335990
H           -1.64350071696892        3.78552662658592       -5.20028918509839
O            2.43901256703291        3.86193954130066       -0.84612220174016
H            1.47022021885065        3.76961831097611       -0.86123947790576
H            2.77087128858579        3.23078697055410       -1.50666674380622
37
 energy: -59.805472465286 gnorm: 0.030116824758 xtb: 6.7.1 (edcfbbe)
N           -0.43793014851846       -0.46935271579386        1.75161025678911
C            0.70938860154231        0.12140549075498        1.02878001212398
C            0.25002930200482        1.00542796612961       -0.12093546885961
C           -0.56050273130659        0.29715674752184       -1.20932554625727
C            0.21725571429834       -0.82249719224324       -1.92533523445932
O            0.43241509965992       -0.70091712288745       -3.15285550041294
O            0.46567145325499       -1.84528774477952       -1.25617980480099
H           -0.11191348336154       -1.00168192023465        2.56134928657466
H           -1.07582794377562        0.26653709119869        2.06932137399094
H            1.28271410715653        0.72796487358581        1.72396740304357
H            1.32341182534619       -0.68665165804400        0.63181473178513
H            1.14245077624203        1.41936207486836       -0.58082326248939
H           -0.35501120065445        1.82635928732083        0.25753123087109
H           -1.48193511533483       -0.12906558826560       -0.81406847164682
H           -0.84682025406447        1.02528906271483       -1.96597683594272
H           -0.93419159339536       -1.10498177687144        1.12031139006379
O            1.64440102184833        2.49311949185846       -5.98577682260708
H            0.79680978472881        2.96338076398910       -5.94069584886696
H            2.15577954001187        2.85610415313662       -5.26027365949015
O           -1.66177280471416        3.18975745162578       -2.19085168425027
H           -1.83812014255204        4.09883363765425       -1.94814596604234
H           -1.20237605519201        3.22764144870660       -3.04500992144944
O            1.53134521823798        3.13879135858433        3.83271390133141
H            2.42922362679134        2.81317470422478        3.89633970836149
H            1.60020143122472        4.09503327905381        3.78622441676482
O            0.88398986820709        3.57901135429917       -3.43456775766245
H            1.57264369336009        4.16498672746946       -3.10808957541067
H            0.96116704379042        2.74357236680985       -2.96505656019142
O           -1.32305316678348        2.75382741991541        4.55252802066227
H           -0.40042709675637        2.90100049899698        4.80041072657392
H           -1.64725445468202        3.59371591076386        4.22899441020956
O           -1.32640209552099        2.94003852736180       -5.45048087930065
H           -1.96411853599077        2.28290590229158       -5.15892599987093
H           -1.69075221390661        3.80080977162905       -5.21855840566542
O            2.44233235827558        3.86623014641411       -0.85231650894710
H            1.48602340784400        3.77225745506364       -0.85576185599879
H            2.78958316268459        3.21603875517605       -1.46817729852412
37
 energy: -59.807840116243 gnorm: 0.067126922411 xtb: 6.7.1 (edcfbbe)
N           -0.43886809976232       -0.46971371645569        1.75170699822549
C            0.71078708088208        0.12382349048106        1.02697695413148
C            0.24694791175327        1.00947085622087       -0.11963685439439
C           -0.56825428453876        0.29601890658923       -1.20246998344805
C            0.18036391330202       -0.86942646852500       -1.90746408654281
O            0.47832495333390       -0.70313255247951       -3.11786041498210
O            0.48988797984248       -1.83537303654756       -1.20132981414117
H           -0.11849291937476       -1.00390467620457        2.56163344799324
H           -1.08025165520080        0.26498695615559        2.06297712859589
H            1.28923907379596        0.72225115935658        1.72357353927887
H            1.31289101529210       -0.68674212804946        0.62035459799825
H            1.14026699542027        1.41826817602623       -0.58230732920063
H           -0.35495519854092        1.83213635154130        0.25949387721461
H           -1.48479810284255       -0.13072129136086       -0.80038034502874
H           -0.85125973247103        1.01643552273274       -1.96605246663497
H           -0.92502884903658       -1.10094658514736        1.10877932583522
O            1.68857243300216        2.52503801028027       -6.06876317133692
H            0.75046141602838        2.87189869990434       -5.93446478464668
H            2.12858199821154        2.85368351316467       -5.26462947132135
O           -1.69232726750521        3.20906578096015       -2.20726149748514
H           -1.86756448291340        4.11639555029625       -1.95831026994236
H           -1.14124397651952        3.25368738135230       -3.02052099229225
O            1.52834260500213        3.14939987172362        3.87239583503923
H            2.41846270326970        2.79650639371464        3.91498318349318
H            1.62503537373615        4.10502826373910        3.73440824039575
O            0.88929356016157        3.60512035230319       -3.43082496289135
H            1.55891872237334        4.18771489248386       -3.05430695739279
H            0.97209233205702        2.72808488243738       -3.02856694643700
O           -1.34447411265073        2.75217828570949        4.56921096928021
H           -0.38466852268962        2.86179281047451        4.72972799302030
H           -1.66012345606723        3.59447587086334        4.24408690173788
O           -1.30297365270048        2.97555252535157       -5.41000376265844
H           -1.94486367318851        2.28394915654077       -5.19304894901894
H           -1.75506896052006        3.82497988360443       -5.24465436223361
O            2.45064997515515        3.89355667989636       -0.87066297737912
H            1.49781901872881        3.76448823478622       -0.84350783826633
H            2.81670588517490        3.18326999607985       -1.41957275456640
37
 energy: -59.808188049711 gnorm: 0.064580056775 xtb: 6.7.1 (edcfbbe)
N           -0.43982227253892       -0.46947737175100        1.74975164875474
C            0.71080650914202        0.12636608536254        1.02662505897392
C            0.24306649934779        1.01507406152405       -0.11817022694103
C           -0.57185435993895        0.29457871165291       -1.19810285886729
C            0.17126099926483       -0.89480680500699       -1.88643606656219
O            0.50895009624135       -0.72317774693252       -3.08707130824309
O            0.49477820138037       -1.84517517537722       -1.14625873469933
H           -0.12202641416039       -1.00591077601316        2.56151936361199
H           -1.08586333733545        0.26492514075286        2.05764721000738
H            1.29569281956131        0.71979472387518        1.72526325116258
H            1.30931849115854       -0.68523090715806        0.61471327447520
H            1.13719505808294        1.42353216990484       -0.58450423057407
H           -0.35709224213319        1.84059313994933        0.26376784102057
H           -1.48741010330395       -0.13128366206088       -0.78944759332480
H           -0.85330653551023        1.00609119768682       -1.97150025750317
H           -0.91887349724280       -1.10021802219165        1.09833869416229
O            1.62127808560641        2.45584102728112       -6.01350320245390
H            0.78915104383996        2.89059872081667       -6.02513612195110
H            2.12844172236624        2.84816024018293       -5.30990787807067
O           -1.68529182010378        3.22942134696270       -2.21446231026160
H           -1.89332425621136        4.13305975469752       -1.96353516829948
H           -1.12429496027759        3.28356395040810       -3.01232215490892
O            1.52344637080242        3.15723800523818        3.88520892791520
H            2.40610276915317        2.77547922646724        3.93376943607885
H            1.64680724652809        4.10829836787117        3.70644216083656
O            0.89320207075954        3.62355770512296       -3.42978700598225
H            1.54665791812574        4.20286900435817       -3.00532984513687
H            0.98433640076957        2.71812136446468       -3.07686401526977
O           -1.34634110661009        2.74721167519802        4.56267481682210
H           -0.38023108088317        2.84727226070634        4.68970632347221
H           -1.67372650972649        3.59652483479110        4.25777212725006
O           -1.30804608151588        3.00523499178227       -5.40773859166256
H           -1.93227213567569        2.29218832903598       -5.20690401432700
H           -1.78547466848995        3.84121786483848       -5.25349474827875
O            2.46243696995636        3.91855312599707       -0.88903162695928
H            1.51065338779155        3.74943739942455       -0.82703936936982
H            2.84009672178005        3.15977404013801       -1.38294480489927
37
 energy: -59.810517701332 gnorm: 0.043539766601 xtb: 6.7.1 (edcfbbe)
N           -0.44001074207651       -0.46880283922901        1.74637595092083
C            0.70984345023745        0.12877592797465        1.02874873588018
C            0.24071936616330        1.02142847132588       -0.11619918632048
C           -0.56758383446718        0.29245513043085       -1.19490055296802
C            0.23412818439773       -0.86977456962643       -1.85689186672976
O            0.49617134658255       -0.75948943167655       -3.06958123862392
O            0.45136184188396       -1.88440726035264       -1.12348079859560
H           -0.12066103764970       -1.00652979012475        2.56131996366110
H           -1.09129019665675        0.26583086187422        2.05444484907199
H            1.29959576648440        0.72183131297234        1.72982501078677
H            1.31573852486342       -0.68160300313131        0.61861916136358
H            1.13366158572082        1.43683675015117       -0.58751873113463
H           -0.36391787479995        1.84725580421523        0.26853060148645
H           -1.48546099207368       -0.13807885804769       -0.78418323063151
H           -0.85369443468777        0.99622803364789       -1.97768111782315
H           -0.91593919368192       -1.10418501683707        1.09234483606914
O            1.63425662427880        2.46065608918111       -6.04346532981721
H            0.75473584360515        2.83835344085096       -6.04281412252640
H            2.10830724825581        2.87014195700529       -5.31405874095662
O           -1.66071022162416        3.24340652455151       -2.21676463860846
H           -1.90982634102980        4.14434021604897       -1.96497199254417
H           -1.13263437041597        3.31204864658485       -3.01530369491335
O            1.52116885469232        3.15675981900943        3.84657221005777
H            2.39731105856615        2.75896738886791        3.95177762233691
H            1.65122612205969        4.09664679026429        3.72618461530823
O            0.90420380566999        3.61583110109756       -3.44453778081102
H            1.53771942039559        4.20157683048294       -2.98450229073416
H            0.99102515785559        2.72775896560373       -3.08002002333814
O           -1.32640627971925        2.74160600887271        4.53341514296304
H           -0.38934777138333        2.86555837013870        4.69193335869336
H           -1.68507209797496        3.60065912325557        4.26907062352109
O           -1.32991529056868        3.01944761508827       -5.43698923617729
H           -1.92718155225017        2.30600212420393       -5.20132759687487
H           -1.77388600129613        3.84440843263850       -5.24940973649565
O            2.47820088447523        3.89368030031160       -0.86972359192587
H            1.52358316602188        3.74245596428482       -0.81723863925171
H            2.84900798014676        3.18122076809118       -1.39389054432113
37
 energy: -59.812740411244 gnorm: 0.042824709668 xtb: 6.7.1 (edcfbbe)
N           -0.43879560614162       -0.46917912990173        1.74600496064985
C            0.71123256478689        0.13311183578291        1.03190107293050
C            0.23939723886163        1.02184861683308       -0.11293574658223
C           -0.57125016756314        0.28444367230313       -1.18284826004285
C            0.22904400444522       -0.88254278325710       -1.84004553853452
O            0.50695880443408       -0.76700723329966       -3.04885701503545
O            0.45488449795158       -1.87995849001891       -1.11030272914921
H           -0.12165648217274       -1.00443463955334        2.56118922691003
H           -1.09476775797654        0.26127548300749        2.04969456805576
H            1.29687143518997        0.72651968297633        1.73274235876375
H            1.31769788301075       -0.67510047034457        0.62180470812181
H            1.12770270994377        1.43901833789520       -0.58791697986054
H           -0.36672227815757        1.84541087594460        0.26986534407411
H           -1.49030568999485       -0.13928228595271       -0.77244627037556
H           -0.85341664368061        0.98176003576944       -1.97134502614333
H           -0.90641730865639       -1.10673014231296        1.08962233198944
O            1.64646460239429        2.47144465507795       -6.07716653492948
H            0.71412246360735        2.78375462960599       -6.04630610811214
H            2.08432656002586        2.89420243152129       -5.32698185307383
O           -1.70036167183842        3.25658209557631       -2.23791655071951
H           -1.92457741156132        4.15397308331909       -1.96786518692428
H           -1.06973823638107        3.35029406683041       -2.99741891840137
O            1.51553568374481        3.15628439133335        3.87159215254833
H            2.38593537683236        2.75396400323237        3.96813966954345
H            1.65960118884325        4.09493528507283        3.70323012296290
O            0.89928950979960        3.62252468551684       -3.42966720201017
H            1.54245331011813        4.18970347605321       -2.98460774114264
H            1.00547206269005        2.72650872233291       -3.09124953870878
O           -1.34118931222740        2.74368110997166        4.55823995569372
H           -0.36630137862940        2.85393109292056        4.62343561174954
H           -1.69129161023895        3.59233150075543        4.26973004241361
O           -1.30592483193548        3.03455438805337       -5.41103074754430
H           -1.91307898102945        2.30912728833414       -5.22109513953021
H           -1.81176395664235        3.85718146978018       -5.28346011057117
O            2.48387543561240        3.91903329452106       -0.89233871367067
H            1.53567161766420        3.72704571861139       -0.80832838071332
H            2.86945037487198        3.15908724570901       -1.36135383463432
37
 energy: -59.811771048881 gnorm: 0.069167900625 xtb: 6.7.1 (edcfbbe)
N           -0.43611640116815       -0.47108205672783        1.74608737398821
C            0.71427470807664        0.13914143074945        1.03657497440223
C            0.23750707743877        1.02003521434361       -0.10877677716089
C           -0.57968576542719        0.27408069758823       -1.16702511297577
C            0.17745780945641       -0.92720791674749       -1.82281234174791
O            0.55077938593413       -0.76998296255382       -3.01181895751771
O            0.47588069359838       -1.86152320583465       -1.07740038126863
H           -0.12363594077173       -1.00201195458184        2.56165117191837
H           -1.09981002980746        0.25208500535438        2.04133779441312
H            1.29251358451314        0.73275204675649        1.73730428645485
H            1.31967912205375       -0.66609211013374        0.62562213343000
H            1.11984563182224        1.43599659650188       -0.58907362946126
H           -0.36715712230805        1.84199884788653        0.27160360128292
H           -1.50130979127933       -0.13218102449168       -0.75584342028096
H           -0.84969140215037        0.96395860185258       -1.96317718733933
H           -0.88910594958762       -1.11130420556618        1.08505363565124
O            1.64056122740464        2.48748457848091       -6.13305357893110
H            0.67730510406358        2.74436329509972       -6.04629818726519
H            2.04465506480091        2.88891165548302       -5.34848635975851
O           -1.63645856395652        3.29188284986900       -2.22247290875608
H           -1.95188309809445        4.16914143169531       -1.97502860672659
H           -1.10703093443358        3.38421077294199       -2.99983380880191
O            1.51055155088538        3.15119333436526        3.88875529295078
H            2.36853599074382        2.73976312787885        3.99960575764478
H            1.67301139984178        4.08530975903817        3.66953248535781
O            0.91108725581056        3.63361927111922       -3.42512848436757
H            1.54095523429707        4.18565808585975       -2.95058846216311
H            1.02537506486015        2.71723741016043       -3.13389450159791
O           -1.32121282879094        2.73859044508185        4.51491557445216
H           -0.37257468364959        2.86561012265035        4.60347767979444
H           -1.70475064970043        3.58783198684051        4.28145344924753
O           -1.30826736268807        3.05515027838581       -5.42296446913914
H           -1.90062549191344        2.32179596550681       -5.23801175649375
H           -1.82131380492541        3.86829593217610       -5.30604935247687
O            2.49686228431913        3.90083673251713       -0.88168209078741
H            1.55661145031544        3.72435259374581       -0.80600246307671
H            2.89560818041762        3.15939536670893       -1.34384437289754
37
 energy: -59.815126339738 gnorm: 0.028622180902 xtb: 6.7.1 (edcfbbe)
N           -0.43451899458244       -0.47193292842130        1.74554752154512
C            0.71425659644065        0.14259529668783        1.03960025492336
C            0.23480151528720        1.02237822919003       -0.10767676957446
C           -0.57851218356285        0.27459462899287       -1.16796703964669
C            0.19625762437157       -0.92294344950222       -1.80697483114885
O            0.55469381839043       -0.79218534522374       -2.99834371429631
O            0.44959298247967       -1.88190165463636       -1.05149909163513
H           -0.12107609985455       -1.00141080816478        2.56393037259628
H           -1.10358665944060        0.24944265694877        2.03883899809638
H            1.29079009415987        0.73936397163279        1.74228131410299
H            1.32678092795049       -0.66028571283755        0.63114983746042
H            1.11728372668256        1.43988884357482       -0.59019960697674
H           -0.37171640579759        1.84523397774745        0.27300102449306
H           -1.50170945085011       -0.13151584330219       -0.75468317125128
H           -0.84829906508050        0.96092150337284       -1.96913350209624
H           -0.88276445644228       -1.11658205137350        1.08327011887846
O            1.60086189659352        2.47447688803298       -6.13338795518827
H            0.68640078547827        2.77474196430745       -6.06439953550554
H            2.03214246690108        2.86609705563881       -5.36510645553011
O           -1.68143707823193        3.29595397216824       -2.24024568207646
H           -1.95958504463684        4.17775027418990       -1.97635002373424
H           -1.04563207570145        3.40975853699650       -2.98151856418246
O            1.50891108520723        3.14913476560829        3.85875071621656
H            2.36214241991097        2.72937731711557        4.02106427207923
H            1.67280927803300        4.07575533583240        3.68660258868813
O            0.92809116686555        3.62822985339355       -3.44051924467422
H            1.53827436344102        4.18692472505215       -2.92368634861464
H            1.02548801241956        2.71822721967957       -3.14351276974064
O           -1.32109050296425        2.74035579938124        4.51587580823560
H           -0.36503895600847        2.86892938818091        4.57566787181109
H           -1.70997073246270        3.59169564741192        4.28726775281725
O           -1.31503562626839        3.06209741379186       -5.43791203778025
H           -1.90129433259438        2.32837467608441       -5.24505451886161
H           -1.81379576713995        3.87017237179252       -5.31069717547924
O            2.50313406872362        3.90975557455926       -0.89067390345762
H            1.56329590235407        3.71281022347576       -0.79797912924805
H            2.90748269993005        3.15301768262208       -1.33161938124864
37
 energy: -59.809792484277 gnorm: 0.099845027218 xtb: 6.7.1 (edcfbbe)
N           -0.43142120020549       -0.47477436561633        1.74471536203250
C            0.71359817436652        0.14956560356085        1.04622211165693
C            0.23026842701381        1.02788562990555       -0.10382131282387
C           -0.57522127258822        0.27682652991606       -1.16771149025424
C            0.25082172115664       -0.89881853605541       -1.77457701834187
O            0.55073648458723       -0.83010426688189       -2.97686202558662
O            0.37975680499178       -1.92458539687206       -1.01820970305560
H           -0.11559045829735       -1.00085384890407        2.56809815592621
H           -1.11088885342789        0.24204685513773        2.03481778695416
H            1.28437985326413        0.75422590537215        1.75228488182002
H            1.34136926096402       -0.64770426301611        0.64323865478236
H            1.11295946137065        1.44861474877805       -0.58925390539476
H           -0.38090482669507        1.85071262969483        0.27730941350403
H           -1.50204066978012       -0.13151721318319       -0.75418254289250
H           -0.84587375086870        0.95740146876912       -1.97656123725001
H           -0.87023666951953       -1.12846598177270        1.08106035285401
O            1.56974340411343        2.47964981868533       -6.14855593965029
H            0.65128220186413        2.75862683488314       -6.06728658831367
H            2.01108739935010        2.88004689555420       -5.39269353457196
O           -1.62916468419657        3.31851041946754       -2.22529556223988
H           -1.97273301826677        4.19494837181501       -1.98228827801323
H           -1.06814013904896        3.43437908754937       -2.98188154999743
O            1.49242193101387        3.15017746584239        3.90695555150863
H            2.34544461526270        2.72114694145432        4.04850589259379
H            1.68674540358130        4.07752433301245        3.64502900738479
O            0.91938639185337        3.64197216095107       -3.42243056091625
H            1.55919013713654        4.16425432192022       -2.92123091001319
H            1.04751540217072        2.70895323695286       -3.16998865896594
O           -1.33650809862949        2.73828562379943        4.54331420767559
H           -0.33606532212579        2.85641479835649        4.48633854765426
H           -1.71179423110086        3.58394489693772        4.28062876812346
O           -1.26428664710058        3.07337641992907       -5.39393388470036
H           -1.88554936675873        2.32544817704804       -5.28504176714297
H           -1.86009312440029        3.88039901589749       -5.36864879172709
O            2.50887934779082        3.95514855753941       -0.93438344704839
H            1.57246946209820        3.68122023766802       -0.77531615661270
H            2.92688444906191        3.12441488590511       -1.29465582896191
37
 energy: -59.816911153702 gnorm: 0.026373181007 xtb: 6.7.1 (edcfbbe)
N           -0.42965295043723       -0.47625206016235        1.74457422323878
C            0.71487576762075        0.15278564758773        1.04761328544691
C            0.23087627226684        1.02767173366903       -0.10319893501135
C           -0.57835633802363        0.27251719591874       -1.16156762965469