37
 energy: -59.755238237296 gnorm: 0.191170196340 xtb: 6.7.1 (edcfbbe)
N            0.06495200000000       -0.17036600000000        2.24069000000000
C           -0.42508700000000       -0.28387700000000        0.86827900000000
C            0.36773000000000        0.64114900000000       -0.07116600000000
C           -0.13442900000000        0.59759400000000       -1.52314500000000
C            0.09666800000000       -0.71348800000000       -2.23073300000000
O            0.72724600000000       -1.73996500000000       -1.62853300000000
O           -0.27063500000000       -0.83895900000000       -3.38700000000000
H            1.07233000000000       -0.44720500000000        2.28653100000000
H           -0.04872800000000        0.81071300000000        2.58374800000000
H           -1.50104700000000       -0.00273500000000        0.84068300000000
H           -0.33838800000000       -1.34087900000000        0.54567800000000
H            1.44982600000000        0.38979400000000       -0.04170700000000
H            0.24571000000000        1.68308900000000        0.29572000000000
H           -1.21792700000000        0.84024100000000       -1.53588800000000
H            0.40005500000000        1.38331800000000       -2.09874700000000
H           -0.48827700000000       -0.80842500000000        2.85559100000000
O           -4.44109400000000       -1.12082700000000       -0.11859500000000
H           -4.47133300000000       -2.06032600000000        0.19291400000000
H           -4.10018000000000       -1.17798200000000       -1.04656200000000
O            1.45106600000000       -1.52974400000000       -6.03283200000000
H            1.71290800000000       -1.30054900000000       -6.95993400000000
H            2.25451100000000       -1.32673400000000       -5.49072800000000
O           -2.23741100000000       -3.02782200000000        0.24203400000000
H           -2.29531200000000       -2.11410100000000       -0.13528700000000
H           -2.59334400000000       -2.93941000000000        1.16187500000000
O            3.18199000000000       -0.96861100000000        2.74127500000000
H            3.29637600000000       -1.94315900000000        2.60791800000000
H            3.72361100000000       -0.55465400000000        2.02301300000000
O           -1.72537500000000       -1.71438700000000        4.74787700000000
H           -1.57095700000000       -0.73630800000000        4.75913300000000
H           -2.34462700000000       -1.85907300000000        3.98879500000000
O            0.46968500000000       -2.08444100000000        4.88268100000000
H            1.32212600000000       -1.88149500000000        4.42141300000000
H            0.73863200000000       -2.33439200000000        5.80235700000000
O           -1.47566800000000       -1.28722700000000        6.89020200000000
H           -1.20338300000000       -2.23693100000000        6.82286800000000
H           -1.20064800000000       -1.01429500000000        7.80151100000000
37
 energy: -59.787288240095 gnorm: 0.091108626341 xtb: 6.7.1 (edcfbbe)
N            0.07022274562447       -0.17710970724980        2.25229813960548
C           -0.42408936248528       -0.28535118824608        0.86927515972117
C            0.36316382502352        0.64634758679927       -0.05354861491500
C           -0.12616212462345        0.59236322558880       -1.50107798859149
C            0.10771478432556       -0.72413448734973       -2.23034569818667
O            0.71174628045442       -1.68759820695612       -1.61380582914231
O           -0.29120524607404       -0.84083110059233       -3.39729749333755
H            1.07175702703138       -0.44168027912595        2.29916427224341
H           -0.03624886748175        0.79158110759607        2.59253649478726
H           -1.48596721594767       -0.00486330465246        0.83603240229578
H           -0.32332568849963       -1.32149672595418        0.52197461850692
H            1.42723190208530        0.38003541135044       -0.04323914650361
H            0.25446034827572        1.68152326426723        0.29673488359996
H           -1.19967553919613        0.82392068308649       -1.54577349175941
H            0.38722726472689        1.36315886013209       -2.09457304020335
H           -0.45981788304306       -0.81239903710887        2.87474127378913
O           -4.40794157112495       -1.12339489622407       -0.11406111696667
H           -4.49103303911390       -2.05118502660206        0.17387345913788
H           -4.12799564720469       -1.17853157652324       -1.04334979941235
O            1.46704844885763       -1.53341047514771       -6.04605812908354
H            1.71951676259413       -1.29812460393574       -6.95587958542313
H            2.24488795990029       -1.33025793691190       -5.50163979005491
O           -2.24485766963889       -3.02825472684670        0.24986063300921
H           -2.29383721521592       -2.13284946818387       -0.12610572797314
H           -2.58362303279384       -2.94151661533830        1.15787248612011
O            3.13028803000233       -0.97838976255762        2.70054448631651
H            3.30522744231068       -1.93182930798330        2.60595694926053
H            3.72150289308355       -0.55798860385047        2.04966372957498
O           -1.78461454869714       -1.71099497318111        4.66149838465746
H           -1.62338310161382       -0.75350901672679        4.74311625835424
H           -2.40909905827580       -1.83076253166162        3.93406962182486
O            0.54573054825914       -2.09772377279530        4.86454886244953
H            1.38764751038008       -1.87985328265792        4.43452311857373
H            0.76813255697916       -2.32703687000598        5.78016441738817
O           -1.47224881245738       -1.27679944603976        6.96497443863625
H           -1.22108403263756       -2.20904505768222        6.84983853920595
H           -1.18572467378928       -1.02447715072935        7.85542182249478
37
 energy: -59.800099622148 gnorm: 0.028443710500 xtb: 6.7.1 (edcfbbe)
N            0.08282312007775       -0.19239381129562        2.26550661388170
C           -0.41866753621259       -0.28599133602446        0.87364016815494
C            0.36599944455780        0.64799398951494       -0.04118542676681
C           -0.13002038043005        0.59470665124904       -1.48154387315904
C            0.09879679094342       -0.74845680725127       -2.20844580753278
O            0.72346073964603       -1.64176409034637       -1.61188233025883
O           -0.31633209486627       -0.82691542888469       -3.38691920507881
H            1.08267334704883       -0.44662446215725        2.30701809940437
H           -0.01789991201423        0.76718274419660        2.60669630900808
H           -1.47281463451819       -0.01011278440574        0.84632830157222
H           -0.30096836987071       -1.30566001533791        0.50594981266234
H            1.41733302006264        0.36509991528810       -0.04333541478665
H            0.26796919248875        1.67804281271731        0.30047327893042
H           -1.19832423508129        0.81417846611634       -1.54662317191300
H            0.37725090218915        1.35022501933708       -2.08867281955336
H           -0.42276165031056       -0.83211726816839        2.89596743868461
O           -4.38478876645063       -1.12395398494296       -0.11274611782029
H           -4.51890350198062       -2.04222875336338        0.15718572896407
H           -4.15681374188319       -1.17043162549967       -1.04552072638920
O            1.48879627785806       -1.54518788180838       -6.06974728913036
H            1.73073705546288       -1.29102197296209       -6.96544705975550
H            2.23954026334644       -1.33478743521532       -5.51153879584146
O           -2.24755809896927       -3.03796030933158        0.26315344484981
H           -2.29394533562696       -2.15804712390953       -0.11933734531035
H           -2.56537670994608       -2.95213476512233        1.16678789443413
O            3.09079839609973       -0.98951187716889        2.67814820938067
H            3.28423798503032       -1.92533236789008        2.58601724096086
H            3.69129194634001       -0.55003314629530        2.06828069400009
O           -1.80735918693370       -1.71039407662646        4.57062177305622
H           -1.68906988334549       -0.76450883116241        4.75888948029206
H           -2.48610309622557       -1.79621731010469        3.89899959808289
O            0.61843531684449       -2.08917998790949        4.83862486604119
H            1.45741389563591       -1.86682051478591        4.43307800791650
H            0.79833903484985       -2.32292627930531        5.74873613726147
O           -1.46094544592178       -1.25326948292575        7.01269041430535
H           -1.25907691790756       -2.18085254919442        6.85215910923411
H           -1.17659522998721       -1.03506231902410        7.89992176221867
37
 energy: -59.806121563752 gnorm: 0.070836257689 xtb: 6.7.1 (edcfbbe)
N            0.10339291493389       -0.21397815294048        2.27917676780805
C           -0.40714800962524       -0.29041004210728        0.88424063046074
C            0.36884889015688        0.65288521847977       -0.02933140363319
C           -0.13597979332945        0.60280271348392       -1.46770609743185
C            0.13255498963454       -0.74959434866211       -2.20002243798482
O            0.72645207238627       -1.63647431999154       -1.58589564436720
O           -0.36230213444423       -0.83070868249832       -3.35635411145589
H            1.10614915386941       -0.46159868627706        2.31242952375935
H            0.00351174947066        0.74155524949231        2.62792716376617
H           -1.46131325704554       -0.01950985775204        0.86804424742603
H           -0.28094686033171       -1.30179594364106        0.50068634827747
H            1.41616700449071        0.35793148552789       -0.04459495770273
H            0.28188171430590        1.68122507572756        0.31714935237759
H           -1.20682843293645        0.80137081895665       -1.53756842668930
H            0.36498454147170        1.35548679856531       -2.07954914769461
H           -0.38520946677806       -0.86310677398139        2.91529059171060
O           -4.32662378772478       -1.11736377251486       -0.09618221501134
H           -4.56661804563241       -2.03865089819299        0.13429806972510
H           -4.20937222883732       -1.15553729988983       -1.06381428657107
O            1.51414208694066       -1.58085957534095       -6.10576417964782
H            1.74857865163725       -1.26792055316544       -6.98690565981386
H            2.23255053400236       -1.33337144690361       -5.51721216307425
O           -2.25332827684022       -3.05992546243192        0.27495204245227
H           -2.29656564050658       -2.18428918395025       -0.11486046632994
H           -2.53611566579380       -2.96779161270915        1.18971550635401
O            2.96653706114798       -1.00402497660123        2.60834027102860
H            3.27980472649543       -1.92984903898621        2.57064875333077
H            3.67854601105546       -0.52389778054780        2.11440937392024
O           -1.80757860199801       -1.70805444721706        4.46766164149027
H           -1.76056562888699       -0.76926398066717        4.77814570553372
H           -2.58709854030621       -1.74519660128724        3.87587925197057
O            0.69669529079903       -2.08018309441394        4.78971444712476
H            1.55620004870156       -1.83393479269750        4.43504674070427
H            0.81997913112848       -2.31449382042519        5.71257063217681
O           -1.44858803421050       -1.21634211865749        7.04560498786641
H           -1.30909693077958       -2.15102608857436        6.83621220461355
H           -1.16412523662070       -1.05657300720864        7.94954594353126
37
 energy: -59.811132432444 gnorm: 0.069478704047 xtb: 6.7.1 (edcfbbe)
N            0.12274514377692       -0.23797020590201        2.29308635285916
C           -0.39691583063928       -0.29600546791606        0.89767205268686
C            0.36999834032679        0.65770217200489       -0.01556415243601
C           -0.14823013857113        0.60888554491925       -1.45185219743823
C            0.13156145666295       -0.76095946270531       -2.18148151782629
O            0.76196519944703       -1.62869871425099       -1.56574014749250
O           -0.39031186509055       -0.83098660320178       -3.32921586268011
H            1.12893981642869       -0.48308750147746        2.31605106213837
H            0.02470798348071        0.71452146566888        2.65240772120401
H           -1.45302461620393       -0.03025497859170        0.89277988000371
H           -0.26517419567467       -1.30101452263552        0.49926854116630
H            1.41485276923098        0.34878996271493       -0.04634042876799
H            0.29909527526063        1.68598116577385        0.33913622481190
H           -1.21976830944040        0.79501446103555       -1.52114676261152
H            0.35281727368932        1.35450462501318       -2.07102297368550
H           -0.35133486896300       -0.89784934420423        2.93392752218076
O           -4.35946731301631       -1.11987720249283       -0.11539771572483
H           -4.57444494481462       -2.02374014058927        0.12995839976718
H           -4.21898649630591       -1.13368998566274       -1.06298163272660
O            1.54262680662215       -1.62504306967824       -6.14668362428110
H            1.76763187548772       -1.23929663746443       -7.01117121485333
H            2.22517017098791       -1.33136430943275       -5.52415808771122
O           -2.25987808632955       -3.08899269386613        0.28794265681241
H           -2.30006690372212       -2.21416309080285       -0.10891275571053
H           -2.49674028682963       -2.98615882537303        1.21972249320850
O            3.01048887496778       -1.00887327553163        2.65384489949354
H            3.19532671446343       -1.92753824911319        2.51921843880883
H            3.57899668597327       -0.51225478228877        2.08602537222463
O           -1.83245269139734       -1.69024592401223        4.37135190448646
H           -1.80994819601318       -0.77881987756546        4.74365834644238
H           -2.67144929865009       -1.70905063150550        3.84377653216962
O            0.77274716972914       -2.06704780016308        4.73766979581975
H            1.65396941023301       -1.79627927127282        4.43393467483539
H            0.84385738730065       -2.30061322150319        5.67290625783614
O           -1.44464970030140       -1.17122849412122        7.09116905436267
H           -1.36006926298218       -2.10793868763118        6.82561013725726
H           -1.15301334912318       -1.07882542617553        8.01247975337051
37
 energy: -59.811951870441 gnorm: 0.075081561734 xtb: 6.7.1 (edcfbbe)
N            0.14147775378214       -0.25921032643488        2.30326387986010
C           -0.38679136644450       -0.30340006628437        0.91360516617001
C            0.37334554621878        0.65648743332392       -0.00199068025804
C           -0.16192354591931        0.60723359725473       -1.43443227081217
C            0.06971758024506       -0.78231415568677       -2.15009711387140
O            0.82272262805575       -1.61670841919835       -1.57168683805363
O           -0.37501122503965       -0.82415134557115       -3.31467850927740
H            1.15050824778051       -0.51084400811245        2.31976784909845
H            0.04526687643348        0.69193279494959        2.67463578409958
H           -1.44665316533160       -0.04038575932003        0.91834919022544
H           -0.25986547092740       -1.30764784499756        0.50793715932019
H            1.42024463425330        0.34533722267582       -0.04569996387588
H            0.31217726334437        1.68578166417730        0.36157005168877
H           -1.23139255170469        0.79997173753624       -1.49345615952590
H            0.34590362368311        1.34598818913373       -2.06064490863634
H           -0.33243121937700       -0.92598246761789        2.94218207558567
O           -4.34340555469845       -1.11695999903885       -0.11307683606376
H           -4.59742445567581       -2.01545324067076        0.12056463422229
H           -4.24675370478467       -1.11135449737648       -1.06971064307929
O            1.55910092098097       -1.62887452040557       -6.16985370390475
H            1.78553501204353       -1.24142971290780       -7.02823521020660
H            2.23425287772465       -1.34657562799670       -5.54023094253699
O           -2.26621478780254       -3.11690572080834        0.30016043154604
H           -2.30770389359908       -2.23818968424749       -0.09866888380788
H           -2.46165090746760       -3.00298256363097        1.24685207465629
O            2.93931860532079       -1.02398462631309        2.62925127835904
H            3.16246581459125       -1.93719115363764        2.46779459699441
H            3.54097103164430       -0.47296115781855        2.12267997537948
O           -1.89921149213766       -1.65098296787663        4.33993412388304
H           -1.81177261955411       -0.78574921104730        4.65785993308254
H           -2.65065451913701       -1.71515535902631        3.78599965463475
O            0.80525934687833       -2.03362690751070        4.71220867393182
H            1.68875835439858       -1.76747307642923        4.41707202798812
H            0.87665598029784       -2.28262665191515        5.63740501216096
O           -1.46719903731421       -1.14872406523546        7.12517532959910
H           -1.36967175491518       -2.06564094860517        6.84829110540183
H           -1.16637882584539       -1.07171555332974        8.04183165602182
37
 energy: -59.818286716038 gnorm: 0.042725469357 xtb: 6.7.1 (edcfbbe)
N            0.15223768667283       -0.27474492340302        2.31150179942045
C           -0.38036261906346       -0.31191692420902        0.92535936229084
C            0.37840703469629        0.65044679156889        0.01255604576833
C           -0.15707532952081        0.60324968461526       -1.41748487150632
C            0.09118444889598       -0.77050948489491       -2.15075081580095
O            0.79895503501161       -1.62009235561573       -1.57093139980010
O           -0.38586570451089       -0.82740756004847       -3.30043472251745
H            1.16039882258622       -0.53327508032544        2.32597105268721
H            0.06034623756096        0.67335175095876        2.68943248888212
H           -1.43962052564911       -0.04842110348083        0.93399456437896
H           -0.25789306556025       -1.31443351320233        0.51542556824459
H            1.42563689271011        0.34717824891073       -0.03679904173908
H            0.31338034108378        1.67754887629675        0.37803222488424
H           -1.22858223945256        0.78992379690608       -1.47384377016319
H            0.34050388944750        1.34959062867273       -2.04136910724247
H           -0.32489490771094       -0.94162301383457        2.94622787828634
O           -4.33087179133757       -1.11204667140201       -0.11111803686625
H           -4.61190105474499       -2.01077481119143        0.11151465489624
H           -4.26164914553451       -1.09742743479440       -1.07412443073128
O            1.57231670932716       -1.63282473829457       -6.18662031031536
H            1.79929727345803       -1.24171170513652       -7.03753722632111
H            2.24000038729572       -1.35641297995935       -5.55453593517138
O           -2.26047967609030       -3.13249608115969        0.31294904117391
H           -2.31713576844998       -2.25598551043695       -0.08548362153878
H           -2.44551832058703       -3.01984068008303        1.25780104085606
O            2.89771931781691       -1.03085350195021        2.62118417298361
H            3.13695495962238       -1.94118066773361        2.42591552978305
H            3.51382960999022       -0.44969483848787        2.14260943438063
O           -1.87344360150267       -1.65225781032507        4.26328693238302
H           -1.86049674202681       -0.77546634595171        4.72479828515412
H           -2.69085479407775       -1.66590678463537        3.75885886145813
O            0.84031398556114       -2.01096267173085        4.68763749162314
H            1.72064747367922       -1.74116089268017        4.40245229448230
H            0.90693771083400       -2.26918714620733        5.60600833727849
O           -1.46468208969025       -1.14261963843391        7.11069875797349
H           -1.37815833224686       -2.05514412924641        6.85116464108931
H           -1.18801010849234       -1.06737977907465        8.02758182935487
37
 energy: -59.818358345066 gnorm: 0.071563452162 xtb: 6.7.1 (edcfbbe)
N            0.16206372830881       -0.29841950755800        2.32452723913045
C           -0.37122742780990       -0.32635668600043        0.94138764663726
C            0.38698767714560        0.63886866804624        0.03387322523241
C           -0.14687558740933        0.59936801039932       -1.39353394022078
C            0.15288194500613       -0.74193531815050       -2.16165377109489
O            0.75813849379191       -1.62826632242722       -1.56661685131435
O           -0.43068287367941       -0.83754122100221       -3.27351115815963
H            1.16807500946216       -0.56977361642364        2.34028648142875
H            0.08004546346498        0.64546798032853        2.70928770439919
H           -1.42828501847258       -0.06006771379724        0.95198638400634
H           -0.25430816446290       -1.32596575170723        0.52488748915835
H            1.43413715777445        0.34567795075137       -0.01814791622313
H            0.31313708372764        1.66201241330155        0.40243461000114
H           -1.22393865680183        0.76908586774285       -1.44364730192518
H            0.32951629719061        1.36258196897764       -2.01093740208739
H           -0.32380402545185       -0.96166624070002        2.95378857619367
O           -4.31815058432996       -1.10811232498902       -0.11316281880441
H           -4.62734727598350       -2.00286196676313        0.10023562227815
H           -4.27383187863429       -1.08022597215819       -1.07721445707631
O            1.60000873525812       -1.67417795401856       -6.22634664338965
H            1.82027223604969       -1.21381129464646       -7.05626951423879
H            2.23362740673567       -1.35494434868738       -5.56812199282398
O           -2.25151744136041       -3.15392361032430        0.33510392557265
H           -2.33686885338920       -2.28058468852536       -0.06020311858633
H           -2.42331555779686       -3.04892440467760        1.27642553629098
O            2.85282967873613       -1.02145171631172        2.60217287162405
H            3.09655712690443       -1.93214842073912        2.39951416847399
H            3.48564000426171       -0.45132831962913        2.14273017205994
O           -1.87387809716962       -1.61311805010979        4.21114433052246
H           -1.82886836940039       -0.76401330732758        4.63741035787765
H           -2.76230159372087       -1.64574088263377        3.77527615333162
O            0.87891360718721       -1.97655355434871        4.65570678872764
H            1.75874623214098       -1.70383553428949        4.38339488281256
H            0.93599609919960       -2.24943717649164        5.56953821964963
O           -1.44233481475894       -1.08959328447769        7.12080766051868
H           -1.45715652837421       -2.02765401806248        6.82048930324681
H           -1.18130923333860       -1.09309865257005        8.05888653676990
37
 energy: -59.823312175306 gnorm: 0.027966160633 xtb: 6.7.1 (edcfbbe)
N            0.16465502426842       -0.31466255628327        2.33402487603738
C           -0.36780008572599       -0.33616130643528        0.95312883013053
C            0.38946513433375        0.63171117984094        0.04731699049864
C           -0.15273895542495        0.59749853361359       -1.37799830007787
C            0.11377999429259       -0.75094773554681       -2.14072854936992
O            0.79454678851868       -1.61940757679226       -1.57235155025777
O           -0.42534624857111       -0.82883781717823       -3.26466647948112
H            1.17048925646150       -0.59530931853237        2.35016966240362
H            0.08974841074685        0.62829727992685        2.72355718025362
H           -1.42499405071750       -0.06795386840252        0.96438895359927
H           -0.25508267761326       -1.33534640164921        0.53257683941137
H            1.43745808267549        0.33784111212951       -0.00644351986229
H            0.31759098839064        1.65425895960650        0.42158396649901
H           -1.22855340260233        0.77154944701273       -1.41859731251350
H            0.32390652401111        1.36156136923348       -1.99614631446901
H           -0.32807911792591       -0.97617240738203        2.96121255676470
O           -4.31867596284601       -1.10818820238153       -0.12024119286237
H           -4.63014083154445       -1.99584174654928        0.09367963215524
H           -4.27970417338438       -1.06642484430290       -1.07981273694270
O            1.61233487070226       -1.66974276161360       -6.24498868856111
H            1.83892997776535       -1.22278224443890       -7.07113076798342
H            2.24331879243106       -1.37024804748518       -5.58195637482272
O           -2.25481299017656       -3.17265051642969        0.34630351975326
H           -2.35418598124525       -2.29647514382870       -0.04336327616483
H           -2.39729648582273       -3.06976845866542        1.29739090145734
O            2.83537639752579       -1.01812628179550        2.59065598444435
H            3.06537077648890       -1.92836821381459        2.37517472814400
H            3.47217991395739       -0.45133843847003        2.14373015279673
O           -1.88677258010437       -1.59709941143244        4.15698851267111
H           -1.86348622645040       -0.76054325681643        4.66610141942956
H           -2.75034517431261       -1.60664608602894        3.71767937793481
O            0.91018851226943       -1.95499128889048        4.62635995480589
H            1.79826912194376       -1.66301416238589        4.37822531383435
H            0.95118440881150       -2.24066779593490        5.54194644831642
O           -1.46394312521717       -1.09080257999530        7.11914522286632
H           -1.44971285815302       -2.01142970943943        6.83281490345867
H           -1.20555004775519       -1.07523870246269        8.04619813570153
37
 energy: -59.822680663206 gnorm: 0.073790305034 xtb: 6.7.1 (edcfbbe)
N            0.15450745726428       -0.33585470273884        2.34815663912122
C           -0.37029840058581       -0.35179400246860        0.96898203721087
C            0.39187986200843        0.61889264161989        0.07077671601305
C           -0.15809976486503        0.59404652070146       -1.35164240986331
C            0.08617190305710       -0.75108945880238       -2.11785900077906
O            0.83781049030447       -1.60335908339925       -1.58276584520614
O           -0.43803430620003       -0.82136740739527       -3.24473899727858
H            1.15937216353281       -0.62831011261940        2.36769045030684
H            0.09107172338395        0.60563775785480        2.74147213808755
H           -1.42704174777056       -0.08144091292445        0.97648559310216
H           -0.26018676261029       -1.35021536453536        0.54486772027232
H            1.44004694853745        0.32283397467097        0.01666449612952
H            0.32224129119830        1.63963007692160        0.45313556195243
H           -1.23412212550124        0.76891871466786       -1.37831723728993
H            0.31240439302220        1.36494661624794       -1.96751683199912
H           -0.35069136196319       -0.99266842211367        2.97230549944522
O           -4.23549718494349       -1.10299973719228       -0.09827087257631
H           -4.67019458781720       -1.99579494272823        0.06408360224095
H           -4.32597077462119       -1.04279649976355       -1.09728446838928
O            1.64195319025273       -1.69189622729692       -6.28671182128791
H            1.86719268178396       -1.20997398674821       -7.09671480592097
H            2.25136485383947       -1.38732106019105       -5.60493279560405
O           -2.25167237419480       -3.20119527648654        0.37033804346866
H           -2.39369437406056       -2.32264506533295       -0.00733656127627
H           -2.36225084755199       -3.11335558755327        1.32812442013387
O            2.86151428168659       -1.03600902152928        2.60173502153017
H            3.01831978219708       -1.93948933614815        2.28183113359173
H            3.47323328571690       -0.43463331165664        2.16802207229259
O           -1.89712852935046       -1.55512495039504        4.08524260862778
H           -1.87457668478387       -0.74697578442211        4.64456387633203
H           -2.77474350071730       -1.55677357992001        3.67940140255376
O            0.95505692156418       -1.91687660420900        4.60029218944952
H            1.83445009604267       -1.61598870531941        4.35220295664958
H            1.00594297878074       -2.22302548839734        5.50342967386675
O           -1.46905786548297       -1.06535940031486        7.11651807778429
H           -1.48666208398531       -1.98366232110699        6.83154163931236
H           -1.23303902716671       -1.06937894897553        8.04815707799409
37
 energy: -59.825487731148 gnorm: 0.056366554152 xtb: 6.7.1 (edcfbbe)
N            0.14215446027867       -0.34849075440838        2.35668442557167
C           -0.37369500661817       -0.36412455908053        0.97972472024571
C            0.39402661299337        0.60728177943923        0.08789798822132
C           -0.15869681481412        0.59066446760485       -1.33287271984593