28
 energy: -44.565120161218 gnorm: 0.065435350385 xtb: 6.7.1 (edcfbbe)
N            1.37692528130000       -0.61624092010000        0.29464962470000
C            2.79574683020000       -0.21860629030000        0.15719455680000
C            2.96752685390000        0.73449807710000       -1.01952646440000
C            4.41708795980000        1.17102182110000       -1.18623018180000
C            4.59507590920000        2.23476340470000       -2.29668369470000
O            3.56219718870000        2.78977528880000       -2.74290472810000
O            5.76160322320000        2.47788331140000       -2.66543940250000
H            0.77745618400000        0.23563671430000        0.41266566690000
H            1.06342473080000       -1.09949150820000       -0.55179240410000
H            3.41371752700000       -1.10335101610000        0.00193081320000
H            3.11905875080000        0.27715414130000        1.07190926930000
H            2.36721866780000        1.63452986410000       -0.88207000050000
H            2.64786849060000        0.26766985580000       -1.95256741740000
H            5.07305223210000        0.33656040820000       -1.44054249950000
H            4.80163204890000        1.62840408330000       -0.27126720540000
H            1.24153311360000       -1.22797583790000        1.10424611830000
O           -0.24589364000000        1.58404188930000        0.57266822930000
H           -0.20665395070000        2.24612553940000        1.26819556060000
H           -0.73232532050000        1.96073012200000       -0.16516475500000
O            4.13293110770000        4.62358520740000       -4.67541679980000
H            3.85630010100000        3.97707507480000       -3.98450980960000
H            5.09154065800000        4.54541590460000       -4.70836726800000
H           -0.99781852850000       -2.40845027540000        0.75566918710000
O           -0.51151264300000       -1.58051596330000        0.72380038400000
H           -1.14689232380000       -0.87050108620000        0.59808309970000
O            8.41892687210000        3.40241718660000       -4.03304420350000
H            7.68343422720000        3.64092452700000       -4.64458115080000
H            8.02112254700000        2.79175659100000       -3.40458294300000
28
 energy: -44.578289049371 gnorm: 0.018281059504 xtb: 6.7.1 (edcfbbe)
N            1.43182375442810       -0.58957966013772        0.28549438159387
C            2.84189161894062       -0.20183879883148        0.15491305073571
C            2.98712599423171        0.74507000487222       -1.02580793639712
C            4.43319666188408        1.17935376743526       -1.19299383684557
C            4.60647239446223        2.24081157231976       -2.30285921382989
O            3.57200503815520        2.79316018866563       -2.74775650341706
O            5.77136036713859        2.47882543049449       -2.68130364807468
H            0.82646409057869        0.25619769337752        0.40016392874762
H            1.10919590478430       -1.07575709257470       -0.55426310375010
H            3.44763252885128       -1.09418053367741        0.00002094556992
H            3.15658479055820        0.29121547942967        1.07283630285938
H            2.37916419942093        1.63937570545926       -0.88353350384939
H            2.65897421057296        0.27081126495875       -1.95253857134788
H            5.08396157818886        0.33999091060759       -1.44407704346863
H            4.81377441991006        1.63366983581489       -0.27494606475109
H            1.26399708434316       -1.20451827670147        1.08827081891972
O           -0.26992298712531        1.57158829784478        0.57636383989373
H           -0.20053759204971        2.23919730758163        1.26493664064061
H           -0.71598166923290        1.97419147805540       -0.17471261999594
O            4.12606973162255        4.61713916017149       -4.68177174957878
H            3.85307755411634        3.97986266548905       -3.98048480884506
H            5.08619952362991        4.55955698124492       -4.69776781208143
H           -1.14489980847709       -2.47170030960160        0.77040451431079
O           -0.64265972648702       -1.65677967451899        0.76573073492712
H           -1.24691564507430       -0.92115136049286        0.63192801786604
O            8.42024414323769        3.38152865231305       -4.04530425415632
H            7.70472153877352        3.64218382050484       -4.64438426351809
H            7.99126439901741        2.81661160459616       -3.39023666035741
28
 energy: -44.581758742188 gnorm: 0.017073911206 xtb: 6.7.1 (edcfbbe)
N            1.44118841802992       -0.58300582824638        0.28699032332290
C            2.85325465484361       -0.19778077156218        0.15524680152868
C            3.01257835469008        0.74959034014770       -1.02393962258151
C            4.45720406105255        1.18842841935496       -1.20279311621526
C            4.62826522116878        2.24270111431860       -2.31868274407223
O            3.59215145131407        2.80498513400988       -2.74701095258774
O            5.79151428294907        2.48585807557296       -2.70113463878279
H            0.83380910237389        0.25974157084271        0.39955172781271
H            1.11332373938195       -1.07061486584869       -0.55010624397396
H            3.46593170552495       -1.08560307725413       -0.00024093853662
H            3.17788957488793        0.29732456653800        1.06905946001884
H            2.40454755534745        1.64400913795910       -0.88355625712123
H            2.68160810995097        0.27457899229566       -1.94904396002855
H            5.10663556327334        0.34793290995673       -1.45253889337213
H            4.84019670126111        1.64465591995154       -0.28679015193923
H            1.25324767537996       -1.19959648158378        1.08523827632059
O           -0.29742431516193        1.56033004011179        0.57313451274644
H           -0.19876647266060        2.22588811504549        1.26147248236607
H           -0.68785900505643        2.00070488845714       -0.19365142359026
O            4.11475290791245        4.61876866604052       -4.68487969527152
H            3.84699445479119        3.97186797518476       -3.98975327510944
H            5.07719996075657        4.58984655871548       -4.68084836356038
H           -1.23537424870357       -2.51264503236290        0.78256586460618
O           -0.71475831740270       -1.70858738096516        0.77747615498239
H           -1.30770071281505       -0.95682420807915        0.68380794291305
O            8.42146714931455        3.34776432408113       -4.04458287758665
H            7.74613038438430        3.63841730037115       -4.66673753243444
H            7.92627614161169        2.85609971164747       -3.36193127805368
28
 energy: -44.583925953444 gnorm: 0.015820330843 xtb: 6.7.1 (edcfbbe)
N            1.45587201299171       -0.57041761256650        0.28442012318241
C            2.87072434107799       -0.18877265910579        0.15348332810578
C            3.04108826939027        0.75936604280115       -1.02771953112042
C            4.48755226235133        1.19910323719400       -1.21118472754272
C            4.65393720917535        2.26108594166208       -2.32015194371937
O            3.61364112811450        2.80686349710806       -2.75910125205226
O            5.81249885899929        2.48442226714138       -2.73151396767363
H            0.84673396449159        0.27037517575267        0.39448328140158
H            1.12324380144108       -1.06133520237489       -0.55000152161458
H            3.48751407952675       -1.07486237464257       -0.00009643548287
H            3.20263146955447        0.30708180955967        1.06552713888631
H            2.43680558115972        1.65705683157453       -0.89005115915947
H            2.70990247415709        0.28496223047351       -1.95321451702997
H            5.13918796865314        0.36051778368522       -1.46314269120115
H            4.87424414526807        1.65805951683921       -0.29797452356124
H            1.24895723505149       -1.18810324572518        1.07862753831462
O           -0.30303868416827        1.56167434512722        0.55108416881403
H           -0.21392738717088        2.20316222496404        1.26057814654924
H           -0.67440794378509        2.02143371363821       -0.20845484950965
O            4.09322384227592        4.62116101276271       -4.69662788846374
H            3.83717762987456        3.97146840812532       -3.99761586027206
H            5.05758128667656        4.63364810063215       -4.66726837066379
H           -1.34105790017703       -2.56236456849116        0.80868230002579
O           -0.79351990299720       -1.77447392876165        0.78885658275017
H           -1.37672943731677       -1.00393520352750        0.76620497423613
O            8.39682752213120        3.35230419676754       -3.97125245974895
H            7.81146289265804        3.60947327896647       -4.70207758498252
H            7.84615737899510        2.83588129512047       -3.36817671666673
28
 energy: -44.584841744369 gnorm: 0.029910836354 xtb: 6.7.1 (edcfbbe)
N            1.46424420380450       -0.55690632054858        0.27645962220241
C            2.88239698014878       -0.18162320067561        0.15144243132978
C            3.06174901807025        0.76528438268900       -1.03310322648695
C            4.51312454722674        1.19563260417016       -1.21356736413464
C            4.67671982085472        2.24013546521725       -2.34047765730543
O            3.64105673830174        2.81595417965574       -2.75284019382507
O            5.83709149857445        2.47911129224546       -2.73350066348839
H            0.85619141073643        0.28610395640997        0.38131764672717
H            1.13240282573247       -1.05186039642611       -0.55707783677116
H            3.49516077769651       -1.07180300430074        0.00238110927738
H            3.21301087417084        0.31288695970091        1.06533470947870
H            2.46532532891159        1.66933189312506       -0.90070840990847
H            2.73341727045692        0.29154685546649       -1.96003922632928
H            5.16562871286257        0.35647094851532       -1.46179838613774
H            4.90426883371781        1.66425440045174       -0.30630801344464
H            1.24937346433581       -1.17291374012064        1.07009919076182
O           -0.30757464585896        1.56252895206154        0.53528636068719
H           -0.22492401217248        2.18479142017043        1.26264485386863
H           -0.64949355493640        2.04323794882548       -0.22338865663004
O            4.07742334947643        4.63035771288194       -4.69994157868817
H            3.83524181078806        3.97331536980075       -4.00097198483344
H            5.04084303255483        4.68026949242617       -4.65271890958435
H           -1.41902187461310       -2.59836129055044        0.83636196557984
O           -0.85372976156484       -1.82214060003456        0.79955758754151
H           -1.43274052739731       -1.04788931766906        0.81936608099441
O            8.38928425864673        3.29404612490906       -3.96474673935214
H            7.86116640052340        3.61209019084007       -4.71911091887316
H            7.73664731735149        2.88098383546389       -3.34363021085463
28
 energy: -44.585043795893 gnorm: 0.024239946597 xtb: 6.7.1 (edcfbbe)
N            1.46583120578146       -0.54548416136025        0.26826738869287
C            2.88667984921730       -0.17486157951772        0.14833292514680
C            3.07580370848666        0.76988685117560       -1.03697241483514
C            4.53008081179179        1.19314022102279       -1.21344428919195
C            4.69705496764832        2.23117247571171       -2.34677912769903
O            3.66579586778642        2.82014251226805       -2.75167377310223
O            5.85947890643213        2.47060621653213       -2.73256097477149
H            0.85937357049682        0.30090301924335        0.36706685205271
H            1.13840736712896       -1.04423394536830       -0.56510344390744
H            3.49473194214287       -1.06890859301732        0.00343595755703
H            3.21290467492611        0.31929382206685        1.06376888827474
H            2.48528415635993        1.67817526620810       -0.90827640087164
H            2.75025379335670        0.29717828712874       -1.96512294615357
H            5.18200063439569        0.35298579110203       -1.45924718960716
H            4.92242477002490        1.66526018919573       -0.30846143922956
H            1.25318708746383       -1.15780180453663        1.06430556532187
O           -0.32215237536061        1.55678812235935        0.53193959355933
H           -0.23000796354742        2.17569785111578        1.26255817654656
H           -0.61530078039246        2.06248739038100       -0.24086147625636
O            4.06660401113215        4.65624658461264       -4.68923341310096
H            3.83446969737679        3.97026820398427       -4.01362736958972
H            5.02445493336693        4.71144149534488       -4.65461586779612
H           -1.45989688836563       -2.62272114930511        0.86016019499918
O           -0.89184869079765       -1.84954243893957        0.81800616772593
H           -1.47093891984702       -1.08453994761040        0.83868125676216
O            8.35868173420182        3.30385206546636       -3.95753488859017
H            7.82288258376106        3.58063121786782       -4.68959227208356
H            7.74804344343196        2.86677215156893       -3.35709409805176
28
 energy: -44.585877591317 gnorm: 0.010996477353 xtb: 6.7.1 (edcfbbe)
N            1.46508828769136       -0.54196698510417        0.26356696652120
C            2.88685594897208       -0.17209981168363        0.14569802980365
C            3.08177937366484        0.77127724864851       -1.03755226997377
C            4.53551087350707        1.19397004043661       -1.21157954204732
C            4.70898527742757        2.24772404628052       -2.32897925479293
O            3.67682933543378        2.80757354754732       -2.76586967468357
O            5.86983069053494        2.45400229187691       -2.74311226696350
H            0.86002294256406        0.30650866837156        0.36075563735082
H            1.14169433757311       -1.04081629138922       -0.57072373977525
H            3.49326284402340       -1.06691432595617        0.00216932455836
H            3.20961009732348        0.32274481269460        1.06136239919950
H            2.49269396178412        1.67998789625935       -0.90902505619031
H            2.75688444591917        0.29981741349186       -1.96621049343323
H            5.18600527408628        0.35327579513445       -1.45878985112779
H            4.92554374247691        1.66059381952429       -0.30376338296163
H            1.25964902097390       -1.15221226736955        1.06195790512767
O           -0.30661973496322        1.56474298706883        0.52581561390935
H           -0.23406086116280        2.18187215213203        1.25969270335261
H           -0.61926676100280        2.05327779256664       -0.23829905670108
O            4.05408073119123        4.65576770458653       -4.70104964926619
H            3.83500594603311        3.98193249611962       -4.01082493580944
H            5.01262374092454        4.73890799696083       -4.65496842700038
H           -1.46367878025613       -2.63338615317362        0.87150329925060
O           -0.90042751483744       -1.85806935849370        0.83009253325543
H           -1.48187179879160       -1.09831282108138        0.84969437088555
O            8.34912764489265        3.28968638166916       -3.93116328635585
H            7.85790451766073        3.56321090176868       -4.71335416171480
H            7.69122051475541        2.87174013581404       -3.35072215261601
28
 energy: -44.585926908856 gnorm: 0.026861683699 xtb: 6.7.1 (edcfbbe)
N            1.46498761320427       -0.53680405083192        0.25566364394490
C            2.88814763251152       -0.16689062355403        0.14338708947756
C            3.08892149731365        0.77403226546051       -1.03954434715502
C            4.54383325665529        1.19182117073967       -1.21063648872075
C            4.72205269741081        2.23617062451660       -2.33637323601404
O            3.69459154761054        2.80997357089643       -2.76568068857411
O            5.88604435948929        2.44931379273589       -2.73565458580442
H            0.85909713889844        0.31218034513522        0.35256657840180
H            1.14707616102529       -1.03426808757847       -0.58099742742612
H            3.49379494719864       -1.06236511200438        0.00254803668381
H            3.20688873950421        0.32843660569842        1.05992480999095
H            2.50193988236234        1.68447265237050       -0.91430900443862
H            2.76538569353037        0.30202090497866       -1.96837795870501
H            5.19256750731780        0.34840820960333       -1.45265727220415
H            4.93212388435004        1.66055645205633       -0.30313615439579
H            1.26495238519524       -1.14728116664504        1.05479799703611
O           -0.30818897961498        1.56304016743984        0.52222036365450
H           -0.23883125062070        2.17988420442670        1.25659452110623
H           -0.59125447559750        2.06211932298704       -0.25281465998917
O            4.03658931371718        4.67212454849543       -4.70176363852501
H            3.83417526490277        3.98900249041839       -4.01589403262693
H            4.99350053059014        4.77927991034235       -4.65759564024770
H           -1.48021059634283       -2.65424254777093        0.88039634899333
O           -0.91609432760612       -1.87940482171139        0.83060114457488
H           -1.50157614507148       -1.11330859364382        0.89770881118647
O            8.33406440454022        3.28215229499991       -3.89315130838355
H            7.89841396049246        3.53514760322737       -4.73870728194168
H            7.63129145543276        2.86926398191240       -3.35279403809641
28
 energy: -44.586231323702 gnorm: 0.024364900933 xtb: 6.7.1 (edcfbbe)
N            1.46212727104614       -0.53494099028349        0.24884033063604
C            2.88677975592840       -0.16501752609828        0.14150367061880
C            3.09262949835182        0.77445495738442       -1.04075758560298
C            4.54934401001656        1.18637271255274       -1.20713537959015
C            4.73356001066579        2.22546192168344       -2.33687422044898
O            3.71083497703817        2.80689168538268       -2.76666126073758
O            5.90037709280968        2.43580633920581       -2.72885374310558
H            0.85626079760512        0.31474935119960        0.34742355773677
H            1.14848776192985       -1.02953986708565       -0.59056760692169
H            3.49169040918524       -1.06116757890842        0.00298285067584
H            3.20203362867756        0.33008879501441        1.05925322069715
H            2.50828982831167        1.68701776063428       -0.91813078138544
H            2.77034114225467        0.30295131890451       -1.97044361937863
H            5.19589104525244        0.34013311866841       -1.44533457177233
H            4.93629270777847        1.65541513337740       -0.29914581946255
H            1.26839180837983       -1.14609704912379        1.04872825449784
O           -0.28794316519328        1.57391295743642        0.51181582755269
H           -0.24236395791161        2.18567454110011        1.25212838279868
H           -0.58314176511831        2.06034403036551       -0.25664078236391
O            4.01808053886733        4.67731399724121       -4.71062852424489
H            3.83558825977833        4.00383535297863       -4.01084921934566
H            4.97554466688380        4.82656740672049       -4.65229114975778
H           -1.48688415793231       -2.66919298056909        0.88398892267981
O           -0.92543145662028       -1.89185254015204        0.83605908121843
H           -1.51393595556390       -1.12296637831984        0.92976623367783
O            8.33532565845238        3.24396114738745       -3.92239277192108
H            7.88724901761894        3.53211147502974       -4.72229888624167
H            7.61886466990719        2.89254702297478       -3.34716282870659
28
 energy: -44.586401866344 gnorm: 0.021033838029 xtb: 6.7.1 (edcfbbe)
N            1.45520121149739       -0.53565526485112        0.24794204970206
C            2.88056792324704       -0.16629240321684        0.14083919768715
C            3.08972451645674        0.77257611251805       -1.04106742311700
C            4.54815223396554        1.18016216249903       -1.20263013222718
C            4.73960531320798        2.22246447867546       -2.32793257186677
O            3.72090398186445        2.80463870469520       -2.76538860198958
O            5.90864189368124        2.42210452336104       -2.72058718320489
H            0.84993640960467        0.31491355210508        0.34648543893560
H            1.14233623699699       -1.02994547872496       -0.59164486411707
H            3.48489739973055       -1.06327793679385        0.00449314106813
H            3.19427757214218        0.32901269055259        1.05899113648191
H            2.50759254298469        1.68675697336911       -0.91935342681136
H            2.76822354992542        0.30241496116855       -1.97188713149678
H            5.19259742911817        0.33198832360195       -1.44022425369746
H            4.93456475565168        1.64617996010100       -0.29284466540932
H            1.26626119316604       -1.14506846241556        1.05009524795432
O           -0.28301881389248        1.57892819819959        0.51136400374220
H           -0.23479060609029        2.19652348735091        1.24615819141609
H           -0.56498699334568        2.06738342680215       -0.26417330176985
O            4.01518304030683        4.71770309494951       -4.67801841838676
H            3.83469615729435        4.00621384286758       -4.01609437552838
H            4.96208415181076        4.82833192628349       -4.66730132650711
H           -1.47473646754782       -2.67284126315432        0.88608296789412
O           -0.92924643249202       -1.88418310802065        0.87186811406801
H           -1.51673869746871       -1.13604357755185        0.88513698621559
O            8.33560163371507        3.24610991219857       -3.92822617723998
H            7.88953420096872        3.51824077033055       -4.72846683326944
H            7.62721876190003        2.89549650780122       -3.35729420672416
28
 energy: -44.586727002170 gnorm: 0.018815684877 xtb: 6.7.1 (edcfbbe)
N            1.45443806704764       -0.53533180754187        0.24698143096938
C            2.87914379675363       -0.16292567683903        0.14060028390848
C            3.08887796762252        0.77433051224662       -1.04210102497642
C            4.54767835658276        1.18058378657904       -1.20211807866172
C            4.74373928335066        2.22104214290168       -2.32812722051537
O            3.72746713338228        2.80219385107944       -2.77127298547854
O            5.91455716295927        2.41774325597912       -2.71799312887825
H            0.84750648470342        0.31433694076513        0.34700785436152
H            1.14362216482797       -1.02833861824403       -0.59387781867592
H            3.48518336068331       -1.05910122900726        0.00648277033783
H            3.19045374505754        0.33422393165860        1.05853976048235
H            2.50695688461757        1.68882636680786       -0.92208359375073
H            2.76814256483525        0.30320612137990       -1.97275887073359
H            5.19157830975162        0.33121388405025       -1.43691500488368
H            4.93270814952319        1.64728825701520       -0.29208833705219
H            1.26928728781125       -1.14562975288349        1.04926525651255
O           -0.28621638343494        1.57723008044386        0.51057449109428
H           -0.23228784199728        2.20259192624237        1.23839487263445
H           -0.54475617221548        2.07178788989133       -0.27705506081919
O            3.98478944808054        4.70753812677151       -4.70247212497138
H            3.83081281019196        4.02136019084144       -4.01044894844479
H            4.93822624048506        4.88651260984656       -4.65987415602776
H           -1.46035498376592       -2.68659599418057        0.89646350714458
O           -0.92514165915706       -1.89104577092993        0.88460978109493
H           -1.52151261759558       -1.14807917424635        0.90695076844972
O            8.33320118838562        3.24692120352355       -3.90848177619721
H            7.91283239774924        3.48254492087369       -4.74567627851774
H            7.62335095216355        2.88040813967708       -3.36620478660263
28
 energy: -44.586894241069 gnorm: 0.024728835329 xtb: 6.7.1 (edcfbbe)
N            1.44926751434732       -0.53735291891662        0.23820840185615
C            2.87456188570667       -0.16422026135997        0.13885805600990
C            3.08985824277085        0.77328868310742       -1.04232948153424
C            4.55037370758174        1.17463148657096       -1.19736970026069
C            4.75724884360910        2.21540240034701       -2.32112699394345
O            3.74691552623062        2.80242564749095       -2.76938857733041
O            5.93168236399633        2.40510779304702       -2.70510406970348
H            0.84288909458387        0.31255732966241        0.34327188137240
H            1.14202125642515       -1.02295179935650       -0.60789543166559
H            3.48123774866095       -1.06023682645786        0.00686808580235
H            3.18152197984640        0.33233305588000        1.05861875566895
H            2.51022875539004        1.68936546026803       -0.92376087134138
H            2.77053350761828        0.30367062353867       -1.97427990160975
H            5.19144885813184        0.32230722123317       -1.42934010946334
H            4.93332676894417        1.63872399047487       -0.28516327946801
H            1.26337591027658       -1.15283570328905        1.03679051570647
O           -0.26283768075669        1.59337943024543        0.49475060342560
H           -0.22689153680049        2.21765490099097        1.22563962477561
H           -0.53695752173063        2.07356146392690       -0.28562135718761
O            3.96202603218015        4.74809636016411       -4.67736126627410
H            3.82601200166606        4.03413056301861       -4.01015160876425
H            4.90765458458102        4.92487351237947       -4.66735689493677
H           -1.45875449424896       -2.70544877069794        0.89675208491650
O           -0.92953199233218       -1.90532323294067        0.87072224521920
H           -1.54163557108765       -1.15432967843415        0.97160684716336
O            8.33710700995087        3.23616151872582       -3.89943295826465
H            7.95630249583444        3.44793332258444       -4.77570226302572
H            7.59529880702360        2.89193054249849       -3.37438075533990
28
 energy: -44.587209417756 gnorm: 0.015340953417 xtb: 6.7.1 (edcfbbe)
N            1.44472511189872       -0.53884194004701        0.23746230245522
C            2.87022077436302       -0.16572571355355        0.13913567666157
C            3.08817195954769        0.77152864425630       -1.04225163326929
C            4.54993949900225        1.17046209137293       -1.19466241441948
C            4.76189764326729        2.21200610936266       -2.31695982270165
O            3.75441022499495        2.80150597213874       -2.76821687474554
O            5.93795645168835        2.39932163571352       -2.69720264482711
H            0.83849130936260        0.31123665714451        0.34306677835932
H            1.13766607379993       -1.02341642360466       -0.60930508887021
H            3.47733167082336       -1.06182080368679        0.00874405187708
H            3.17614297877299        0.33124346806884        1.05909664904139
H            2.50980908895513        1.68852091242777       -0.92427717837900
H            2.76944992034740        0.30242904604951       -1.97471762487312
H            5.19005984803212        0.31706898347014       -1.42564339138065
H            4.93204793292983        1.63336210755102       -0.28138891372014
H            1.25809460204167       -1.15483376205172        1.03554431947876
O           -0.26827526878297        1.59347144834065        0.49499046131919
H           -0.21961949055351        2.22358685925054        1.21961825349250
H           -0.50929615202030        2.08807715411777       -0.30067130499740
O            3.94579260691088        4.75749086215668       -4.67332849108728
H            3.82103412221060        4.04763273851288       -4.00161909119879
H            4.88901330871807        4.94683924380194       -4.66541001861121
H           -1.44678494594780       -2.71178173902530        0.90425942477590
O           -0.92784708073980       -1.90417420199275        0.88869319107365
H           -1.54506744329344       -1.16476728317845        0.95922364418597
O            8.35034309351367        3.21062366851912       -3.92211948067859
H            7.96626552509496        3.45423506848898       -4.77260481882348
H            7.59231073346181        2.89955531109801       -3.38313437833432
28
 energy: -44.587055921739 gnorm: 0.026555402930 xtb: 6.7.1 (edcfbbe)
N            1.43888175180568       -0.54296459503827        0.23783215044667
C            2.86394966878450       -0.16937597746658        0.13961544889900
C            3.08368849039909        0.76785929238974       -1.04218364938991
C            4.54647055682790        1.16483941716802       -1.19304678045299
C            4.76432524895396        2.20048173489633       -2.32015793504790
O            3.76167881483989        2.80606201828893       -2.76182763860642
O            5.94374211742354        2.39917676105618       -2.68184119126715