37
 energy: -59.869242408128 gnorm: 0.004627957242 xtb: 6.7.1 (edcfbbe)
N           -1.54837365956243        0.08610985523628        1.45307414093211
C           -0.08344871267506        0.24014679810571        1.45589299935997
C            0.42718617720852        0.62876299145925        0.06870944298482
C           -0.12028135628978       -0.26558537370192       -1.05341543151868
C           -0.11408792434021       -1.76502456277838       -0.68224586474198
O            0.86939289273778       -2.46262714937650       -0.97401288755489
O           -1.14748510762381       -2.18943862450700       -0.08606978226804
H           -1.90268295840055       -0.05519953839384        2.41465502256120
H           -2.01270098726803        0.93136492864638        1.02829692708185
H            0.20036486858879        1.00554093205212        2.17736248211786
H            0.36692810728117       -0.71045947354894        1.75272433541821
H            1.51665260505752        0.56574275374802        0.07474674774011
H            0.14190075301458        1.65929161334614       -0.15192692896325
H           -1.14877903441462        0.01466328968930       -1.28512391096241
H            0.49071106944280       -0.14211186774225       -1.94858896162178
H           -1.75627664334409       -0.75661447597832        0.88462201784685
O           -2.77381304635627        2.24852513090766        0.32909754365858
H           -3.46241572269642        2.65609268256072        0.86356378384128
H           -3.23526823373379        1.82765568471281       -0.42748197021289
O           -4.04357772311876        0.90180286309716       -1.62926878198810
H           -3.81990528427035        1.03766926316588       -2.56375693776105
H           -3.95465947353609       -0.05547430952506       -1.46801657975003
O           -3.49386217668811        1.60817986394762       -4.34199054938035
H           -4.33669586846763        1.74708009548477       -4.78897131524010
H           -3.03684202522453        2.45589706694129       -4.34126028936638
O           -1.90377963654099        5.15889820323485        4.58156692696348
H           -1.10787259400905        5.02612721551438        4.05637619661003
H           -2.42615974008435        5.83202308197724        4.13556530726865
O           -2.00092349111293       -0.11797555344323       -6.06606818569275
H           -2.49805308243091        0.42292541741911       -5.42735081129634
H           -2.02174525837061       -1.01618410257464       -5.71680931492798
O           -3.63321098341328       -1.78118271990210       -1.08757787249613
H           -2.72803662072485       -1.99970759254246       -0.78455155303346
H           -4.22415890971316       -2.36548310746611       -0.60200332836456
O           -2.34527406337214       -0.24223141259574        4.13339016421521
H           -2.60210683088017        0.44808471371640        4.75153640641807
H           -2.41559132481530       -1.08397858099518        4.58889081206112
