37
 energy: -59.747687645057 gnorm: 0.187536965966 xtb: 6.7.1 (edcfbbe)
N           -0.44376700000000       -0.47181200000000        1.74520500000000
C            0.69351000000000        0.10436000000000        1.02689900000000
C            0.25232500000000        0.99958500000000       -0.14624500000000
C           -0.57382300000000        0.30680200000000       -1.24485700000000
C            0.17276200000000       -0.78812900000000       -1.95771100000000
O            0.40822200000000       -0.68794500000000       -3.15102700000000
O            0.54634400000000       -1.90328400000000       -1.30373900000000
H           -0.08747200000000       -1.00411400000000        2.57127000000000
H           -1.08118400000000        0.28586300000000        2.08138600000000
H            1.28097900000000        0.73286000000000        1.73117400000000
H            1.36804500000000       -0.70373400000000        0.67713900000000
H            1.15866700000000        1.44313000000000       -0.61117500000000
H           -0.35578800000000        1.83434200000000        0.26527400000000
H           -1.51736400000000       -0.10080200000000       -0.82923500000000
H           -0.85273400000000        1.08677100000000       -1.98587200000000
H           -0.96872000000000       -1.13389300000000        1.13151600000000
O            1.99631200000000       -3.00125300000000       -2.87073300000000
H            2.47461200000000       -2.13833300000000       -2.95563900000000
H            1.17353300000000       -2.88286500000000       -3.40890800000000
O            1.17284200000000        2.47868300000000        3.56815500000000
H            0.52300900000000        3.01358800000000        4.08988900000000
H            1.62746300000000        1.91383900000000        4.24260500000000
O           -1.11723900000000       -2.36774100000000       -4.10299100000000
H           -0.45612100000000       -2.92305100000000       -4.58792800000000
H           -1.19940600000000       -1.54597600000000       -4.64940000000000
O            1.07184900000000        0.67654700000000        6.15765800000000
H            0.56698500000000        0.38708000000000        6.95886400000000
H            0.46348300000000        0.48775800000000        5.39946100000000
O            2.07686600000000       -1.20401500000000       -5.70378400000000
H            1.20735600000000       -1.65563400000000       -5.56024700000000
H            2.26542600000000       -0.74986500000000       -4.84424600000000
O            2.65636200000000       -3.22896800000000        0.57018100000000
H            1.71438100000000       -3.53436200000000        0.56608300000000
H            2.67667600000000       -2.49608300000000        1.23582400000000
O            1.04369100000000       -2.98882200000000        4.15673300000000
H            1.55084100000000       -2.13862200000000        4.18059900000000
H            0.11744200000000       -2.71900900000000        3.93340200000000
37
 energy: -59.779339898609 gnorm: 0.096713385194 xtb: 6.7.1 (edcfbbe)
N           -0.44206747522541       -0.47224569015541        1.74550274692644
C            0.70133890941228        0.11283625456285        1.02709521276808
C            0.24853307980991        1.00610842975808       -0.12966751503561
C           -0.58058570859465        0.32188061950055       -1.22570895838485
C            0.16231110476747       -0.78804420993774       -1.93936087923154
O            0.46995701538203       -0.65872359834028       -3.13662832660418
O            0.47883287190700       -1.82591658928913       -1.24123347060646
H           -0.09708234775764       -1.00526855851175        2.55870378229227
H           -1.07861460071554        0.27336378490078        2.07188943569389
H            1.27824923107242        0.73531391352755        1.72422602608758
H            1.34510523622402       -0.69396757977906        0.65230511126434
H            1.14407388779421        1.43525455391942       -0.59612676718352
H           -0.34572280441628        1.83818073136834        0.26881439309674
H           -1.51631122895429       -0.09288472147409       -0.83042837988201
H           -0.84582964618126        1.07303174048009       -1.98277145132862
H           -0.95561427067480       -1.12049346628367        1.12649517205643
O            2.08586054205976       -3.06474120188876       -2.99334561484389
H            2.46844067747357       -2.15767230312791       -2.93398966410974
H            1.17580912765808       -2.86782853957712       -3.34763366140986
O            1.14311738671214        2.43737014398845        3.57232698172825
H            0.55067108908110        3.02129177166717        4.07995980269783
H            1.63731255212548        1.94198830072337        4.25248368780438
O           -1.17307099705530       -2.41069707073126       -4.15706201802120
H           -0.47969493004969       -2.93005253498575       -4.59880012576416
H           -1.19152179795793       -1.55954585110420       -4.63699539089276
O            1.06509561970011        0.67104051645417        6.14804618278175
H            0.58790100166694        0.40018949912345        6.95046287105842
H            0.45031417597626        0.49094336716736        5.41718063984521
O            2.07999702042370       -1.21017645321959       -5.69419964254118
H            1.21988549933411       -1.63977996725353       -5.56075294624016
H            2.24548918840577       -0.74552475669736       -4.85702847539641
O            2.66360119602891       -3.24557027965887        0.59823778905595
H            1.73147682876676       -3.52033374347699        0.53779782110058
H            2.67384483311472       -2.50890202390766        1.23324547060514
O            1.04507632599501       -2.98085651479761        4.12743968237928
H            1.53999593475131       -2.14550065539633        4.19242893358779
H            0.12019047194002       -2.73117131754742        3.95267154464588
37
 energy: -59.788225247770 gnorm: 0.043949596241 xtb: 6.7.1 (edcfbbe)
N           -0.44196875770778       -0.47433873941416        1.74144416007604
C            0.70565108669901        0.12561464216599        1.02252509162186
C            0.24190295524141        1.02321330735033       -0.11627350314431
C           -0.58667454593983        0.34112155408048       -1.21012997062868
C            0.19425048192114       -0.78313639129855       -1.90583322490344
O            0.52602530533838       -0.62729926977866       -3.11027186998491
O            0.40655058429593       -1.78403386162203       -1.21272843906540
H           -0.10514587719366       -1.01117430904041        2.54140688137096
H           -1.08051330342053        0.25961991974623        2.05802185008149
H            1.27455978047293        0.73619622345234        1.71894959204627
H            1.31941247289705       -0.67973894050096        0.62128130938652
H            1.13020117989115        1.44000634406151       -0.58398622620392
H           -0.34128133182609        1.85008846264341        0.27937400437210
H           -1.51090872969452       -0.08828907683095       -0.82716661769587
H           -0.84735849572812        1.07419842478349       -1.97287027880076
H           -0.93863155386243       -1.10805290678923        1.10813767222284
O            2.07826751409121       -3.06152404730297       -2.97484907423519
H            2.50220217348384       -2.21739023963360       -2.96071650270424
H            1.21694062546183       -2.88113649837781       -3.33916989722009
O            1.11835789501983        2.38888131922729        3.58003428870995
H            0.57712008162131        3.02837245774781        4.05960535575888
H            1.64783186068944        1.96378789739976        4.26935347090831
O           -1.20451796231345       -2.43995686898448       -4.19335475166311
H           -0.52283663762835       -2.95550774731956       -4.62084548261481
H           -1.19349675737075       -1.57798718070824       -4.62596386533860
O            1.05976886356515        0.66520482985197        6.13167617823465
H            0.62435467431088        0.41872751520444        6.94975854660457
H            0.42134286867518        0.50040105768096        5.43566490377344
O            2.08156933364388       -1.20073411460545       -5.68964770733316
H            1.23815826138929       -1.63209637304209       -5.56917917779531
H            2.22267834381798       -0.73261048092389       -4.86628974715537
O            2.67416307746228       -3.26120910670041        0.62022385281568
H            1.75236825216830       -3.51065992068423        0.49595226238634
H            2.67719403005533       -2.53062836302362        1.23962934199073
O            1.04875763133701       -2.97447365023928        4.07928902199674
H            1.52638245040349       -2.14940179729603        4.21488403948434
H            0.11368716873310       -2.75115807127901        3.98764451264549
37
 energy: -59.792938429150 gnorm: 0.081482459843 xtb: 6.7.1 (edcfbbe)
N           -0.44271819233126       -0.47710237087276        1.73012911795970
C            0.70424277366459        0.13639697075129        1.01439536045017
C            0.23634272915194        1.04580062509474       -0.11381569237507
C           -0.58833106505141        0.36016001631760       -1.20973250483287
C            0.20537321786004       -0.79450988082362       -1.88145502183121
O            0.56879836883730       -0.61984874996116       -3.07695551434497
O            0.38882889256288       -1.79674839661419       -1.19109667948781
H           -0.10541860212015       -1.02248768216232        2.52443243600452
H           -1.08687395523738        0.25179315332475        2.04674234453792
H            1.27537937560414        0.73520813209396        1.71904859467101
H            1.30930637324068       -0.66674809344465        0.59803365355141
H            1.12644899238336        1.46025748392478       -0.58221032383689
H           -0.34264304969553        1.87194616601562        0.29286532451557
H           -1.51036007823810       -0.07171897300380       -0.82413009693219
H           -0.84752071561877        1.09212320625901       -1.97337144811944
H           -0.92718079270687       -1.10411704860486        1.07968636954741
O            2.13061597195305       -3.11531704063825       -3.06509959763524
H            2.52138984583198       -2.23829859110718       -2.91805523236858
H            1.17087926245749       -2.84155100905078       -3.24321220824789
O            1.09022003630285        2.32719813359967        3.58245000641494
H            0.60293139334161        3.04647260862509        4.03379368348921
H            1.66557448398821        1.97903143010077        4.29467568270004
O           -1.25108815709235       -2.47277245692184       -4.22959429390258
H           -0.55946737440319       -2.98834227126550       -4.64483258895726
H           -1.18285124098427       -1.57723442567356       -4.60752937618307
O            1.06785696258731        0.65087283778987        6.10609548603034
H            0.67347331902035        0.44492193251799        6.96307465857074
H            0.37069274534388        0.51766907766617        5.45005859985089
O            2.09899953070355       -1.20373562510400       -5.67650568600503
H            1.24513015766092       -1.62913340691395       -5.59032545942498
H            2.18743007124926       -0.69229719302905       -4.86353082137448
O            2.69966546237734       -3.29662609905920        0.65440755796042
H            1.76720047294754       -3.49531153173753        0.42990786356093
H            2.67749301466962       -2.54423677795732        1.25079951470525
O            1.06218239311100       -2.97755034622322        3.99529358709602
H            1.50818832871916       -2.14206994666490        4.25937435507094
H            0.09617404791056       -2.76919785724704        4.04176834917179
37
 energy: -59.795987478676 gnorm: 0.059887004511 xtb: 6.7.1 (edcfbbe)
N           -0.44532238086922       -0.48265462092463        1.71413928981517
C            0.70027499265707        0.14649923133068        1.00806837462047
C            0.23097768651844        1.07135258307012       -0.11024126412456
C           -0.59161146795650        0.38821046619725       -1.21088323261041
C            0.18997099448855       -0.80099548814438       -1.85781147077745
O            0.60976611683034       -0.62549582380895       -3.03702427669673
O            0.35247078252167       -1.80589129998920       -1.13847741150225
H           -0.10544432198931       -1.03951461865484        2.50350519257469
H           -1.09685221792649        0.24036351095756        2.03686766570455
H            1.27384952634865        0.73368737238604        1.72483215717582
H            1.30658280629160       -0.65145498038709        0.58099169734909
H            1.12392195876113        1.48857686944001       -0.57742629386062
H           -0.34615489076259        1.89758142460206        0.30805310419603
H           -1.51895220360218       -0.03671706834127       -0.82481345229155
H           -0.83911063773572        1.11519679228252       -1.98483206887565
H           -0.91896896296409       -1.10520361486375        1.04707626018225
O            2.13912584142244       -3.13240854427226       -3.06289991604148
H            2.55680664726169       -2.26460229406287       -2.89353965630985
H            1.21243214649616       -2.86538364625783       -3.26270113560937
O            1.13518024011247        2.34734237363332        3.60355401467774
H            0.58843228906067        3.01493618846212        4.01169950650921
H            1.64438707459660        1.94625618720892        4.30104308944559
O           -1.29086686491276       -2.49709473516920       -4.26060648634653
H           -0.58452468410103       -3.01740567179868       -4.66028199419760
H           -1.17472347285034       -1.58204408802026       -4.60105307697013
O            1.07747179202561        0.62772471753749        6.08033849787145
H            0.71852873678935        0.46217580609357        6.97221955889909
H            0.31973992438428        0.53573350560111        5.46406989966466
O            2.11664485128123       -1.19323237078432       -5.66795791636618
H            1.25906131078255       -1.63433708693380       -5.62288725988730
H            2.14734373980089       -0.65432050961853       -4.85533744063117
O            2.71469522757434       -3.30953427682651        0.65746698375626
H            1.78943249848605       -3.49622981425212        0.39797805924407
H            2.68359494259459       -2.55823548519533        1.25987670820049
O            1.03197692884538       -2.95737456554977        4.06165117115836
H            1.50127705346061       -2.14617487504842        4.24843624563797
H            0.09495099627935       -2.77643554989798        4.02248687641466
37
 energy: -59.796308557513 gnorm: 0.085128671155 xtb: 6.7.1 (edcfbbe)
N           -0.44544760834104       -0.48863633818812        1.69649396513213
C            0.69924899070687        0.15818399107137        1.00638313186249
C            0.22937501519310        1.09604280847208       -0.10388889736801
C           -0.59278684056009        0.41336989335511       -1.20475978564418
C            0.17885120183294       -0.79156896524352       -1.83355477996665
O            0.62450516835737       -0.63924409351322       -2.99858823335945
O            0.31414816751934       -1.80373057948970       -1.08575317030781
H           -0.10328657002752       -1.05549681823802        2.48230789757998
H           -1.10741712393462        0.22571462188003        2.02669297832262
H            1.27314635650488        0.73617390719071        1.73493328988170
H            1.31467801907171       -0.63106438639077        0.57343305191046
H            1.12163624148015        1.52370161244950       -0.56940564599905
H           -0.35182538139303        1.91948135482115        0.32173289760877
H           -1.52847510947597       -0.00075415124645       -0.81927474815532
H           -0.82721284811700        1.12856438729956       -1.99576209344214
H           -0.90617346528834       -1.11025397716114        1.01502532687961
O            2.12354844524233       -3.12408069455484       -3.01071111550384
H            2.60841581147682       -2.30589103181456       -2.91553083343185
H            1.27260497825442       -2.91019851331015       -3.29206264474935
O            1.09881666575141        2.26971904399407        3.60064975241277
H            0.61687864342469        3.03837156137064        3.97248760056037
H            1.66249806972908        1.96092906896499        4.33443126277961
O           -1.29101953881624       -2.49400388291718       -4.25988643769964
H           -0.61384945459492       -3.04800659719472       -4.66935562422247
H           -1.20795348815057       -1.61983821598648       -4.62373394059104
O            1.06535775711102        0.66285826110706        6.08247686235217
H            0.73740333106889        0.46012152908267        6.96792597094717
H            0.32314073263030        0.54090124882867        5.47523286717277
O            2.10682824144562       -1.13845851984212       -5.67238896672443
H            1.28194722280843       -1.65334383260681       -5.64899636398325
H            2.12124184279360       -0.65122107856119       -4.83510113613502
O            2.71271039907421       -3.30521177703260        0.62115016674151
H            1.81506283528437       -3.51384472717367        0.39535944895231
H            2.69679896394554       -2.58086217667928        1.25727420301571
O            1.03672786855636       -2.95515428486120        3.97994938826931
H            1.47130743270198       -2.13590657221541        4.29996187250468
H            0.07493402673628       -2.79446607566555        4.07043248239593
37
 energy: -59.802032824588 gnorm: 0.038414858488 xtb: 6.7.1 (edcfbbe)
N           -0.44247878379589       -0.49481628729708        1.68370532564395
C            0.70277042236510        0.16797464960097        1.00760463545369
C            0.23054300096261        1.10582211013378       -0.09919288172430
C           -0.58973454685270        0.41467672978487       -1.19422546216821
C            0.19613437022701       -0.78218277232243       -1.81990319539680
O            0.60686212488362       -0.64524126651525       -2.98714014981205
O            0.31186898919595       -1.79366574399256       -1.09299110455376
H           -0.10163328546434       -1.06500989684497        2.46527130368411
H           -1.11337716056375        0.20889970796057        2.01500857093744
H            1.26703758257805        0.74350234659349        1.74262203355263
H            1.32395039107649       -0.61300130042707        0.57189702184129
H            1.11738614470009        1.54270897171299       -0.56275063077438
H           -0.35710135141125        1.92250856084599        0.32525637873423
H           -1.52860565251578        0.00945796648581       -0.81005046502030
H           -0.81998692926845        1.12242218327693       -1.99169521291239
H           -0.88890154609505       -1.11578133648640        0.99274761671687
O            2.15628773053157       -3.15103309136756       -3.05875021755043
H            2.64534776806874       -2.34205785676287       -2.92729494095290
H            1.22902937091280       -2.86452230234711       -3.20408900997739
O            1.11613190911659        2.27760762131459        3.60731433047671
H            0.60819705637922        3.01355026477206        3.96152891101429
H            1.65417100313476        1.94410910673695        4.33113206994378
O           -1.30376431573720       -2.50176441778529       -4.27116598384506
H           -0.63824438490880       -3.06479610894081       -4.67903895278551
H           -1.19905897081412       -1.62315104346005       -4.61800726161583
O            1.05880214367125        0.67408508312880        6.08560116877789
H            0.74484717774835        0.45791237169452        6.96287713778448
H            0.32542032881072        0.54866822528426        5.48512738472629
O            2.09343341386911       -1.09831544362649       -5.67819009787891
H            1.30193029693249       -1.66332050138238       -5.66050825393604
H            2.10498858847750       -0.65738940067000       -4.82480850091202
O            2.72808787517347       -3.32765367454710        0.63700175436269
H            1.82369390816379       -3.49543482076074        0.34719333321407
H            2.69853945258342       -2.59663662097056        1.26261525036626
O            1.01891311827894       -2.94044213029683        3.99983209309498
H            1.45944730014046       -2.13477063322920        4.29599423815826
H            0.06543045944832       -2.80002324929267        4.07505176333032
37
 energy: -59.800143300666 gnorm: 0.106638451330 xtb: 6.7.1 (edcfbbe)
N           -0.43237475039235       -0.50481935112228        1.66360060177859
C            0.71006363151111        0.18442738683377        1.00704391932033
C            0.22898830950564        1.11824386026539       -0.09645464334912
C           -0.59337492355797        0.42068793719313       -1.18569642682041
C            0.17058123579993       -0.79809130159561       -1.80227889807909
O            0.60813024937236       -0.66579564775695       -2.96185176444344
O            0.29072592589349       -1.78567631446621       -1.07605182283184
H           -0.09162699782072       -1.07848689340149        2.43939330337609
H           -1.11908633855124        0.18125853412874        1.99507516113025
H            1.25724767689896        0.76000051194574        1.75134821337268
H            1.34366814291312       -0.58264600802408        0.56864417045693
H            1.10953300733757        1.56373348989876       -0.55941470744279
H           -0.36199521366222        1.92912503029278        0.32952680006392
H           -1.54133947559052        0.04351653388830       -0.80021304710941
H           -0.80655289811250        1.12236956273518       -1.99189085394115
H           -0.85477213687251       -1.12635662564269        0.95865041963103
O            2.16699698418664       -3.18563071105277       -3.09831314377236
H            2.68257319882925       -2.38713667916828       -2.87752706479570
H            1.23391389532815       -2.82498380189881       -3.17904550282345
O            1.09222039186916        2.22493291822350        3.60500280666569
H            0.63342977801768        3.01898388076706        3.93441229560371
H            1.66252551784003        1.94765433941507        4.34380478768647
O           -1.38829742541960       -2.55374918337416       -4.32961080367941
H           -0.67063849553768       -3.08962806369821       -4.69093482223701
H           -1.11701976963967       -1.58273097584064       -4.55989066825414
O            1.08390507262894        0.62818766466805        6.05141246910491
H            0.81519626433242        0.49474379082670        6.98036230490267
H            0.24753032251620        0.58804285534048        5.51900485937761
O            2.10039270269808       -1.08275970168806       -5.66512382356201
H            1.32579520885596       -1.66178860643794       -5.68688782764008
H            2.04878618610688       -0.63314896997470       -4.80802725310182
O            2.75029523459270       -3.36762493586679        0.66398191702217
H            1.83319459730720       -3.46056025837691        0.27065013780680
H            2.70164381871392       -2.62054495699239        1.26899776712928
O            1.00778472907490       -2.92129711259746        3.94928921002949
H            1.43230111788684       -2.12518173692624        4.33579269639598
H            0.04602022514343       -2.80437446051865        4.10879923302569
37
 energy: -59.806429718316 gnorm: 0.054417208709 xtb: 6.7.1 (edcfbbe)
N           -0.42732587130743       -0.51351348899515        1.65165365559328
C            0.71244413171871        0.19174911879729        1.00830445824879
C            0.22707426999716        1.12655914540606       -0.09275918846916
C           -0.59227087487940        0.43001294839675       -1.18510182900397
C            0.16162727815494       -0.79855204177201       -1.79309066875954
O            0.63269702813861       -0.66734922065200       -2.94536284020410
O            0.26728863761058       -1.78897560630157       -1.05602318782288
H           -0.08639640086860       -1.09013128641833        2.42586153159853
H           -1.12429600250204        0.16282216207712        1.98376841444440
H            1.24955489640834        0.76811960827377        1.76028718252733
H            1.35751555757852       -0.56633603350851        0.56962337465244
H            1.10603706019095        1.57744576534642       -0.55445773157286
H           -0.36753007365704        1.93416944606549        0.33587004622043
H           -1.54565546453852        0.06224369463123       -0.80196903733868
H           -0.79666004879169        1.13006634244125       -1.99505101606912
H           -0.83604756845793       -1.13591701711004        0.93784601746257
O            2.17244915995742       -3.19277029262293       -3.10364752683193
H            2.70202955256522       -2.40076959389452       -2.86481830952681
H            1.24855958445253       -2.81798080500480       -3.16823179493995
O            1.09055041130913        2.21667973799849        3.60638819570463
H            0.63867137337841        3.01118446554542        3.92731274922338
H            1.65969369302628        1.93788794815704        4.33817115550333
O           -1.33977475956499       -2.52413923533914       -4.29543335495685
H           -0.69006284164739       -3.10511335337517       -4.69697374475446
H           -1.18150228725074       -1.63332008820891       -4.60381276540905
O            1.07678568634978        0.64524420413709        6.05891725410832
H            0.81749009907438        0.49424356194683        6.98017858518529
H            0.25930193500627        0.58539754622911        5.52623613393946
O            2.10364883619467       -1.07318994792482       -5.66034610545393
H            1.33852890932477       -1.66292406332163       -5.70072057456683
H            2.02191744570736       -0.62137378393397       -4.80014536091794
O            2.73953894457177       -3.34447230441070        0.61692279843915
H            1.85079177481616       -3.48024440360881        0.29073999062022
H            2.71382391742087       -2.63883437448144        1.26821844355085
O            0.98810083456855       -2.90541384292887        3.96267506259925
H            1.42033659674047       -2.12477854568059        4.33415141312118
H            0.03742957920805       -2.80483036595400        4.11039857385170
37
 energy: -59.799390182642 gnorm: 0.130128409899 xtb: 6.7.1 (edcfbbe)
N           -0.41591194823289       -0.52815694325416        1.63365821336831
C            0.71679886885434        0.20081079570754        1.00946328438132
C            0.22710797642976        1.13994601315494       -0.08880947003794
C           -0.58594716540800        0.44697541726113       -1.18798230895537
C            0.17494454054292       -0.77929657567326       -1.77275997159783
O            0.62611724174552       -0.69698297674307       -2.92731779652994
O            0.19803292718968       -1.80689087710109       -1.01863548678893
H           -0.07320708625945       -1.10799471755822        2.40811191040951
H           -1.12790398095520        0.13434949797810        1.96737198073009
H            1.23794163003290        0.78112460682733        1.77341132340091
H            1.38543978950216       -0.54248235327155        0.57468479519083
H            1.10430099743821        1.59999129167836       -0.54903926979629
H           -0.37740033425448        1.94102009250243        0.34337777016829
H           -1.54548489901529        0.08415433886711       -0.80878501189899
H           -0.78324327346701        1.14141388539815       -2.00582192997215
H           -0.80622723314248       -1.15352767445808        0.90930307291628
O            2.16598975942912       -3.15694453928107       -3.02967087200760
H            2.72647582454747       -2.40967063025983       -2.93850923957097
H            1.29374479226603       -2.87384034790705       -3.15931944556910
O            1.11615620288389        2.24924923073920        3.61260657875013
H            0.62709856256210        2.98004339227877        3.92445628309678
H            1.64034914458069        1.90457775907205        4.31053762149268
O           -1.35037841834528       -2.52095460801340       -4.29735768571714
H           -0.70701408340023       -3.11951369678999       -4.69379264179383
H           -1.18120952501536       -1.64951573372501       -4.61113991154295
O            1.04796943526543        0.70338344277956        6.10142009054972
H            0.77115054072050        0.47431183126647        6.96459752942616
H            0.33978624735000        0.56693573792689        5.52647649126753
O            2.07843998799886       -1.02660226108409       -5.66558041805641
H            1.35315889266701       -1.67258170456092       -5.69536817273926
H            2.01660763156426       -0.63662927812086       -4.78914985685901
O            2.76197479582173       -3.39105404848905        0.65152692807014
H            1.85403701337332       -3.43474083490219        0.21230908530490
H            2.70804619827426       -2.65413022939093        1.27453360930779
O            0.97574504807385       -2.88525127198277        3.91707927741470
H            1.39531973729626       -2.11394732552177        4.35689003929731
H            0.01755916109031       -2.80468270534816        4.14280360488577
37
 energy: -59.806661079017 gnorm: 0.081319081561 xtb: 6.7.1 (edcfbbe)
N           -0.41054346141812       -0.53816412234024        1.62421811252116
C            0.71836148164251        0.20503082638051        1.01053734360503
C            0.22650634901462        1.14396559535661       -0.08687518341133
C           -0.58619976402640        0.44944215513174       -1.18628976456429