37
 energy: -59.765464115228 gnorm: 0.182196372655 xtb: 6.7.1 (edcfbbe)
N            0.05814800000000       -0.92758300000000        1.46960700000000
C            0.21195900000000        0.51002000000000        1.25738900000000
C           -0.42029600000000        1.02660100000000       -0.05399500000000
C            0.23290900000000        0.51099500000000       -1.35178600000000
C           -0.12525300000000       -0.89643600000000       -1.75561800000000
O            0.43258500000000       -1.42088200000000       -2.86197900000000
O           -0.94795900000000       -1.55110300000000       -1.13717200000000
H            0.42854800000000       -1.16686800000000        2.41684100000000
H           -0.95187600000000       -1.19383100000000        1.43153800000000
H           -0.27873900000000        1.04478500000000        2.10014800000000
H            1.29199600000000        0.77262900000000        1.27882300000000
H           -0.26331200000000        2.12751800000000       -0.03828000000000
H           -1.51695700000000        0.85134800000000       -0.07337000000000
H            1.33463900000000        0.61768200000000       -1.26361400000000
H           -0.10456000000000        1.15854300000000       -2.18948000000000
H            0.61816600000000       -1.46341800000000        0.77094700000000
O            2.01539700000000        3.50722700000000       -1.76151500000000
H            2.78426400000000        2.92765200000000       -1.99291700000000
H            2.02976600000000        4.22324500000000       -2.44542000000000
O            3.31089700000000        1.08988200000000        2.09193000000000
H            3.67559400000000        1.92496000000000        1.70430700000000
H            3.52367300000000        1.15078200000000        3.05714000000000
O           -2.21876300000000        2.51481500000000       -3.89258100000000
H           -1.72841600000000        3.28172200000000       -3.50267700000000
H           -1.74899300000000        1.71629900000000       -3.54286600000000
O            1.07244300000000        2.54440400000000        5.64853000000000
H            0.80737800000000        2.95882500000000        4.78910700000000
H            0.60071500000000        3.07748100000000        6.33694400000000
O           -0.80099700000000        1.23970900000000       -6.16711400000000
H           -1.21595600000000        0.36378100000000       -6.37001500000000
H           -1.25521800000000        1.87613400000000       -6.77478100000000
O           -3.00095300000000       -0.53440100000000       -4.71866800000000
H           -2.87999400000000        0.42668100000000       -4.92433900000000
H           -2.15715800000000       -0.80113200000000       -4.27428300000000
O            1.68617000000000        3.02110000000000        0.37166800000000
H            2.27207800000000        2.29033600000000        0.05025400000000
H            2.21379700000000        3.46876200000000        1.08006200000000
37
 energy: -59.791749739385 gnorm: 0.084887148239 xtb: 6.7.1 (edcfbbe)
N            0.05511768251005       -0.93039206550318        1.47292651224681
C            0.20456169020023        0.51564400994845        1.25328460116745
C           -0.41665294530368        1.02464441345683       -0.05082219806268
C            0.23182701610989        0.50970191799553       -1.34359923715664
C           -0.14321468439709       -0.90129194761081       -1.76608612232090
O            0.42755250895690       -1.37556091860258       -2.82816320981394
O           -0.94771980908023       -1.57286925948270       -1.10421277886932
H            0.41925458818012       -1.17782851930343        2.40678981704834
H           -0.93868463913053       -1.20071092560824        1.41130377779495
H           -0.28059185044214        1.04344961881676        2.08259903468086
H            1.27140791743169        0.76681175203089        1.27473464696998
H           -0.27492118311174        2.11198301917797       -0.04385482452041
H           -1.49504440224490        0.82635894810093       -0.07304604758180
H            1.32226971224571        0.60169002729615       -1.28047446183888
H           -0.08192580491043        1.15373320856954       -2.17639255259468
H            0.58834288914457       -1.45939703391668        0.76805480634923
O            2.02662788678077        3.52298337062277       -1.84862948930183
H            2.78705556324687        2.95232086951378       -2.04558044592084
H            2.05583382285087        4.23843078346711       -2.50028585304121
O            3.31322328177062        1.10126464254393        2.09824421440387
H            3.69811130110199        1.90838327303884        1.71962125295524
H            3.52626423127323        1.14097064527951        3.04485828361536
O           -2.22218269178498        2.51109018765696       -3.87899626378151
H           -1.74420195327976        3.27283324478177       -3.51113266788963
H           -1.74609221376196        1.73194180976807       -3.54862874396242
O            1.06790232668640        2.55392449443276        5.64476837468701
H            0.80102725553083        2.96318610618155        4.80554915726470
H            0.61147348901924        3.06676826633620        6.33156370437154
O           -0.81112004171086        1.23393593810021       -6.17399435942764
H           -1.20939186397984        0.37173097235268       -6.37827980797299
H           -1.24809061580656        1.86465313919324       -6.77074526757113
O           -2.98118197619650       -0.53223984827234       -4.73943851696647
H           -2.88012812999128        0.42568340578015       -4.89646839367147
H           -2.17162300805603       -0.79993030613893       -4.27279922194399
O            1.67836295429762        3.00120275640755        0.47627287950978
H            2.25727231183283        2.31646726810641        0.09622450391305
H            2.23500138401811        3.48669673548245        1.10759989723226
37
 energy: -59.800338873923 gnorm: 0.027078286635 xtb: 6.7.1 (edcfbbe)
N            0.04533352462981       -0.93474899629171        1.46933302161723
C            0.19924815335722        0.52060273478731        1.25222158341527
C           -0.41923722562436        1.01811677639859       -0.04668391421399
C            0.23708224433524        0.50197288230538       -1.32870330619451
C           -0.11533511622846       -0.93441673714065       -1.74601303529836
O            0.36640450878925       -1.32761371203874       -2.82974315150662
O           -0.93988125081061       -1.58278427395057       -1.06093996309266
H            0.40389378161413       -1.19418059214775        2.39236611348985
H           -0.93833622042676       -1.20578202962878        1.37804169347304
H           -0.28801680320986        1.04029878482240        2.07220271297995
H            1.25955897371458        0.75794692190588        1.27539344317808
H           -0.29947463279135        2.09862256669105       -0.04402671607895
H           -1.48334997819407        0.78590802083265       -0.07672732760204
H            1.32100424496808        0.57469699301789       -1.27902487875591
H           -0.06206312901621        1.13647320982521       -2.16546682417986
H            0.55161915903631       -1.45488318619669        0.74864243416580
O            2.05219430247599        3.53433218032606       -1.91289331318382
H            2.79398738439443        2.96507405731782       -2.11424155850017
H            2.07419612485445        4.25937783412015       -2.53478915098242
O            3.33111338179128        1.10188300967908        2.10690834822391
H            3.73911671036330        1.88692919451790        1.73710636418282
H            3.52915236379180        1.11972732288259        3.04474082957450
O           -2.23219497660007        2.50205416469257       -3.86543618575170
H           -1.77607840127598        3.27403741852015       -3.52223573931172
H           -1.73392906563093        1.74423778213715       -3.55343238180882
O            1.06423052900572        2.56380251213343        5.64115228559106
H            0.79077082608607        2.97281626802751        4.81821118753677
H            0.62518031347248        3.05446483346466        6.33849115450401
O           -0.81770864936412        1.22598165433079       -6.18440065950460
H           -1.20279350878818        0.37130940462255       -6.38755805777239
H           -1.24014854889325        1.85748500209686       -6.77106103391175
O           -2.96245836586163       -0.52793268645985       -4.76263804806958
H           -2.88342338513188        0.43261673058355       -4.86152927071198
H           -2.18421799631623       -0.80648607062410       -4.27329839638271
O            1.68856731482817        3.04122370943958        0.54280211649851
H            2.22899883319885        2.36019622201382        0.13580174882473
H            2.26271657945684        3.53490409298692        1.13019287555928
37
 energy: -59.803997005464 gnorm: 0.055441123232 xtb: 6.7.1 (edcfbbe)
N            0.03055412424610       -0.94224735402446        1.46126908912224
C            0.19554343517839        0.51827797606238        1.25776824533732
C           -0.42222453424890        1.01036633791382       -0.03966821853041
C            0.23292930685401        0.49806059958448       -1.31952074694687
C           -0.16393674658744       -0.92875653864481       -1.78092633017519
O            0.36452129789908       -1.33292853681138       -2.81545411205074
O           -0.89592763852921       -1.61313942059479       -1.00220234065994
H            0.38459234133308       -1.21803527809837        2.37914989389015
H           -0.95244412986864       -1.20744411883933        1.34606446428036
H           -0.29554826684520        1.03330303898660        2.07676054948933
H            1.25703453932661        0.74586007340028        1.28266574119857
H           -0.32137275331998        2.09203405229924       -0.03704730168085
H           -1.48022073221962        0.75295899719382       -0.07603272982527
H            1.32044988367634        0.53808153930442       -1.27243461726702
H           -0.05134606621636        1.14235615947225       -2.15169295998204
H            0.52014150522281       -1.45381966235477        0.72270784398279
O            2.07139228479406        3.53666644862632       -1.96832564145192
H            2.80770313511702        2.96999780978733       -2.18782340752285
H            2.09601281238357        4.28956126400615       -2.55999450756068
O            3.32903099382427        1.10502485811778        2.11369120471855
H            3.80696268041123        1.85986203046240        1.75233432227884
H            3.53721122671241        1.08057443941959        3.04994421875628
O           -2.26238331921856        2.48362686225427       -3.84083808382102
H           -1.82297386709018        3.28628099355557       -3.54293420604344
H           -1.69757003507386        1.75304164284438       -3.56389198713495
O            1.06709415735485        2.57164312039207        5.63482791660664
H            0.76989777402145        2.99417330260962        4.82759414498406
H            0.64361921202715        3.03590997749315        6.36013188026055
O           -0.82110378360345        1.21913074988924       -6.19067037613098
H           -1.19714643963186        0.36304739360065       -6.39883483027977
H           -1.23154594642321        1.85508445976557       -6.77864193438011
O           -2.93510556125298       -0.53111088347343       -4.81847649463997
H           -2.89001230090471        0.45046869069397       -4.80805427075824
H           -2.20119736844650       -0.81699849163716       -4.25722994038866
O            1.68389049863046        3.09120393647355        0.61495137836605
H            2.20032748489889        2.42141905481646        0.15658106497013
H            2.30887279556896        3.61472847545501        1.13701807898992
37
 energy: -59.807852752095 gnorm: 0.043069236807 xtb: 6.7.1 (edcfbbe)
N            0.01519144453587       -0.94955805787515        1.45528186772856
C            0.18984801212262        0.51229742717822        1.26694457311153
C           -0.42730842667719        1.00090834573622       -0.03272222318044
C            0.24107331258910        0.48555427596408       -1.30282217923398
C           -0.14898774310216       -0.95015868763108       -1.76622129240564
O            0.32218667360331       -1.31935895291956       -2.85866746526161
O           -0.88623963855543       -1.62484714336353       -0.99507658672095
H            0.36735110972016       -1.24204867177187        2.37042695584870
H           -0.97120889935387       -1.20665592619784        1.32665216406462
H           -0.30266437310209        1.02598600929590        2.08926746855689
H            1.25471419304123        0.73685367184190        1.29321720649263
H           -0.34552016336054        2.08755203505548       -0.03215763321254
H           -1.48294718531679        0.72428993221101       -0.07368986701681
H            1.33013628863540        0.51430096388091       -1.24067822632439
H           -0.02901520482965        1.12986117632970       -2.14282654359311
H            0.49478045970916       -1.45438654393859        0.70077459948436
O            2.08787301153779        3.53773428812974       -2.01720251689528
H            2.82384244284947        2.97400472705025       -2.26572692072363
H            2.11585240477896        4.32094398001794       -2.58160127752955
O            3.33529024385950        1.10188641186918        2.11482229123042
H            3.87209666188614        1.83609292832059        1.76904543401519
H            3.54532868724270        1.03927428451623        3.05516026491328
O           -2.29643921567858        2.45795932526336       -3.81602637664772
H           -1.87638421330097        3.29828574040827       -3.56682945793137
H           -1.64919178858593        1.76148035010288       -3.57671261696232
O            1.07232355179858        2.57729029800610        5.62801828900003
H            0.74340823532744        3.02233291174177        4.83817467480170
H            0.66301032488288        3.01420131606419        6.38662239163728
O           -0.81949418495905        1.21539999347642       -6.19490602706422
H           -1.19517566033451        0.35498788706459       -6.40319001425720
H           -1.22253637428692        1.85276635549987       -6.79216611969406
O           -2.94144254671211       -0.51294192357199       -4.79703710159470
H           -2.88039537996397        0.45027993594815       -4.81119354032983
H           -2.20448337244958       -0.82738655896500       -4.26607961105413
O            1.67467732022878        3.14858091102501        0.67832071015032
H            2.17464671757434        2.49021817351374        0.17068489955713
H            2.34152527464584        3.68428281072608        1.15288480704245
37
 energy: -59.809058483362 gnorm: 0.059614307113 xtb: 6.7.1 (edcfbbe)
N           -0.00213199219481       -0.95949119317583        1.45153845578076
C            0.18299496806855        0.50088343424677        1.27684479310894
C           -0.43286615880852        0.98624310888856       -0.02782055465597
C            0.25402071042634        0.47023773809131       -1.28806579585449
C           -0.13016171825114       -0.97350394139626       -1.74689096155474
O            0.26748082356759       -1.30797229546886       -2.90886602049986
O           -0.87749813682859       -1.63612058920742       -1.00133461147057
H            0.35011940661305       -1.27021866831978        2.36286606025025
H           -0.99356495875090       -1.20497050484418        1.31573479302000
H           -0.30644611061008        1.01567196416861        2.10492841536769
H            1.25134611042045        0.72564433738876        1.30477186016448
H           -0.37043637583592        2.07803337554680       -0.02848873105860
H           -1.48731580000067        0.69752193718605       -0.07070464580231
H            1.34384727786531        0.48490343541611       -1.19512110331210
H            0.00835072054799        1.11804251423282       -2.13768536515927
H            0.46607500598609       -1.45840671137124        0.68018377373345
O            2.11640016183871        3.54548506277107       -2.07789018406266
H            2.84607660957572        2.98567497795943       -2.38181524297587
H            2.12652081302548        4.35351434704370       -2.61590321754874
O            3.41373855291363        1.06085450988817        2.11101168848889
H            3.90597286636464        1.81440718981494        1.79175347389011
H            3.55327907018226        1.00889901630464        3.06571220001483
O           -2.26545727988440        2.44755241868118       -3.87041581732392
H           -1.92356576472903        3.29289891950125       -3.54994607786282
H           -1.67545267042782        1.76708139150029       -3.55860689319290
O            1.06666540419916        2.57956732285028        5.62832664114665
H            0.72257403931061        3.05397042603291        4.85565963932809
H            0.67802383514592        2.99996112885836        6.41151529336725
O           -0.81446897394898        1.21500379853963       -6.20206114727678
H           -1.19404956005309        0.34882681261490       -6.40163148760278
H           -1.21080391435951        1.84668764964179       -6.81743178949002
O           -2.91130528542274       -0.51692601839174       -4.86278038720422
H           -2.89457014913207        0.46988010394181       -4.74711191978719
H           -2.22010954577189       -0.83801071240033       -4.25339105055817
O            1.67051062570673        3.24212068399275        0.73123650528114
H            2.14440386513905        2.58350279855978        0.20420179539589
H            2.32752552811273        3.74081423091619        1.21044261591706
37
 energy: -59.811368530391 gnorm: 0.051879533889 xtb: 6.7.1 (edcfbbe)
N           -0.01318407528259       -0.96710644975799        1.45202135645821
C            0.17859366488599        0.49182725720240        1.27947709384514
C           -0.43504994386950        0.97561095261527       -0.02776803041119
C            0.25884554221229        0.46441287257434       -1.28719016263160
C           -0.15394437634539       -0.96943242939349       -1.76229423736300
O            0.26364807418898       -1.31863676939916       -2.89263877786640
O           -0.86682494898047       -1.64666104056156       -0.99638776859173
H            0.33970500700458       -1.28661908175573        2.35850785950261
H           -1.00547320854614       -1.20500676462892        1.31618150313903
H           -0.30639529473949        1.00750820924168        2.10887360014851
H            1.24704577242911        0.71477502017674        1.30918843830378
H           -0.37847780911042        2.06623973695778       -0.02659145581500
H           -1.48768129556728        0.68631703636416       -0.07012828098007
H            1.34782624989384        0.45658282975306       -1.17124663435732
H            0.04097177238483        1.12330071536085       -2.13600814811422
H            0.44442724892266       -1.46440886497558        0.67344544087343
O            2.14345786589814        3.54975206068385       -2.10713875942023
H            2.85999086996588        2.99542864120765       -2.45712770375797
H            2.12193151530296        4.35917929277251       -2.63390650089750
O            3.44250387041178        1.04193816102705        2.11182089619829
H            3.94315933909707        1.78856904236492        1.80400933772311
H            3.56292281055323        0.98525502211528        3.06625021809021
O           -2.27076795635532        2.43068483155248       -3.87868564144890
H           -1.96591504499897        3.28653473133463       -3.55385956726451
H           -1.66284443861031        1.77340104019099       -3.56461164575547
O            1.05546716031970        2.58162518888195        5.63681651126405
H            0.72053171988435        3.06919150280521        4.87306010006835
H            0.68183868402859        3.00169794738088        6.42008019412196
O           -0.79709143784197        1.21460075375878       -6.22253266366283
H           -1.19859107216542        0.35165671115915       -6.38718788222010
H           -1.20677665304553        1.83905988166827       -6.83335113202341
O           -2.93860370318023       -0.48764390940549       -4.77600881975418
H           -2.88247744213835        0.45162137878779       -4.79190221206554
H           -2.20097358820186       -0.84054998767936       -4.29098362002737
O            1.65875044037745        3.29722423390278        0.77393405773979
H            2.11746661197457        2.65339673229648        0.22069697364597
H            2.32771006924264        3.79693751342249        1.22595106330725
37
 energy: -59.811494731743 gnorm: 0.083911919652 xtb: 6.7.1 (edcfbbe)
N           -0.02135153251520       -0.97303748166527        1.45668168118813
C            0.17592585468704        0.48390095412318        1.27875331140344
C           -0.43424750654380        0.96853916864003       -0.02882163615581
C            0.26392778170941        0.45928823321918       -1.28874762542426
C           -0.17421593711719       -0.96103931584814       -1.77983788718336
O            0.25243170197078       -1.31538630298918       -2.87576559079612
O           -0.85235020687652       -1.65975444458007       -0.98879220658398
H            0.33371321642024       -1.29552145514522        2.35741402879143
H           -1.01253663018843       -1.20497814044496        1.33096986734133
H           -0.30538970958597        1.00156241314670        2.10494918331262
H            1.24280257890772        0.70288898287784        1.30933275311512
H           -0.37555757258426        2.05448973315259       -0.02572239791313
H           -1.48471024993977        0.68202523421126       -0.07171602483983
H            1.34852863437257        0.43495891623129       -1.15933234623374
H            0.06985648953842        1.12738120875216       -2.13120803726526
H            0.42608920729825       -1.47324072873824        0.67872008842968
O            2.16609382958193        3.54098533788507       -2.11211434746596
H            2.87237231478178        3.00519275812887       -2.49426455284541
H            2.11258187138555        4.34434288184506       -2.63128894934694
O            3.38893317274004        1.05890810720296        2.11608313218485
H            4.02238365086377        1.75065614098528        1.80902091655633
H            3.57464016443549        0.94760516651404        3.05378808854158
O           -2.33629398539186        2.39718481573548       -3.81900334508261
H           -2.02567099971619        3.29100750409516       -3.59466687566439
H           -1.57109241709509        1.78755265997249       -3.59895714164322
O            1.04669491629782        2.58556220278176        5.64528791881306
H            0.72119496714173        3.08461524661969        4.89343486129988
H            0.68846847493863        3.00406553225614        6.42747579320956
O           -0.77744510713669        1.21329214214142       -6.24767799562733
H           -1.20659100405179        0.36013164111551       -6.37384896575062
H           -1.20541163837713        1.83108970178476       -6.84438851422035
O           -2.91434969149821       -0.49517688769830       -4.82826894233123
H           -2.89457976135503        0.47260314741454       -4.73147644074485
H           -2.20632284626468       -0.84997142282906       -4.29387243311781
O            1.62285417602621        3.30946186429102        0.83389026908328
H            2.08239909448547        2.71383315452692        0.20819729486209
H            2.37194669865418        3.88324533029323        1.17853806810623
37
 energy: -59.815934477882 gnorm: 0.025517302252 xtb: 6.7.1 (edcfbbe)
N           -0.02618299980919       -0.97709013646591        1.45812906985119
C            0.17647918893685        0.47832928136646        1.28129229613047
C           -0.43262275904302        0.96562556304874       -0.02622996075327
C            0.26901331324729        0.45218830220855       -1.28248589302665
C           -0.16396563796774       -0.96818153723413       -1.77087518265327
O            0.22457233828577       -1.30298709267162       -2.91031262070093
O           -0.83741288456415       -1.67152657866275       -0.98252868293122
H            0.33298733231671       -1.30330620678123        2.35763937047272
H           -1.02060696883426       -1.20387826990794        1.34092676716937
H           -0.30404347426921        0.99960176868656        2.10761200073426
H            1.24510519780060        0.69585311817034        1.30920059041494
H           -0.37619484536448        2.05349044927832       -0.02431141754812
H           -1.48387988888395        0.67548445484319       -0.07239735932373
H            1.35337205747208        0.42588913868540       -1.15023836834828
H            0.07882654362596        1.12152510374470       -2.12493181764138
H            0.41621277543284       -1.47986321934930        0.67676205940354
O            2.17580081559862        3.54172830580378       -2.13835699545341
H            2.88408503330287        3.01849817998271       -2.53967284093241
H            2.10766510511823        4.35879422110643       -2.64602936122129
O            3.42388415031940        1.03500005451231        2.11344947554032
H            4.01133663700899        1.74581530806827        1.81545129632556
H            3.58548292733877        0.93486054250900        3.05704761550887
O           -2.31796330584473        2.39710098574298       -3.85047416233720
H           -2.02459357383674        3.28024932727640       -3.59014358482314
H           -1.60960925658759        1.78260488776801       -3.58394114509713
O            1.03699582628728        2.58230682136943        5.64313410252563
H            0.71005735442694        3.10754695437275        4.90234674994473
H            0.69889850330932        2.99807020900015        6.44503810776635
O           -0.76160388188258        1.21235671743024       -6.26344100778857
H           -1.21251143110980        0.36191569969464       -6.36300014537351
H           -1.20358324666450        1.82824654611483       -6.85574483109575
O           -2.91154988608221       -0.48917024226535       -4.83665898888423
H           -2.88815736198833        0.47711795337266       -4.72681843725775
H           -2.21096253390292       -0.85136452194494       -4.28678959048790
O            1.63576814359977        3.36126677916215        0.81855154909600
H            2.07696854411762        2.73964499879228        0.23517379409821
H            2.32765414908859        3.88452013317716        1.22639254869913
37
 energy: -59.816000260461 gnorm: 0.064986819387 xtb: 6.7.1 (edcfbbe)
N           -0.04265556941160       -0.98491815494890        1.46565473550213
C            0.17469436912354        0.46797887179102        1.28866431203696
C           -0.43043657282834        0.95443203800482       -0.02150822183584
C            0.28063145192579        0.43738035787320       -1.27172489716189
C           -0.15845700567976       -0.97760028651100       -1.76981539680546
O            0.16846374370375       -1.27822924474453       -2.95415115859765
O           -0.81092189603476       -1.69322655381465       -0.97795894304951
H            0.32685272548781       -1.32174706658928        2.35795040167549
H           -1.04232907428442       -1.19773936406325        1.36418511986552
H           -0.30045915616245        0.99587069612903        2.11484438148067
H            1.24600947645086        0.67697321178179        1.31239259062365
H           -0.37932376230647        2.04338977188709       -0.02047662592801
H           -1.48079547643768        0.65903741793622       -0.07388603746360
H            1.36335684963903        0.39166739240971       -1.12179219906979
H            0.11447017183488        1.11349492909938       -2.11462140287597
H            0.37721227070376       -1.49229842239296        0.67059993546201
O            2.20491535630988        3.53087663448529       -2.16660541028806
H            2.90711559710301        3.03180485847485       -2.61748031944930
H            2.10041368911865        4.36437143667676       -2.65107917999862
O            3.48473955616589        0.98894481619494        2.10746021932094
H            4.01474176166908        1.71497635634113        1.82163254527247
H            3.60484811907214        0.90479500100865        3.05703933872804
O           -2.30152276388868        2.38174238508466       -3.89109158241526
H           -2.05101039553517        3.25862569308917       -3.58898360895968
H           -1.64879465192708        1.77949650906893       -3.57471887014035
O            1.02617391544682        2.58904883014899        5.65454137718828
H            0.69628660352791        3.13823559380521        4.93065100442751
H            0.71060420867786        2.99441772893294        6.47259875312561
O           -0.73958338718517        1.21041329868554       -6.29037922309808
H           -1.22050514643963        0.36676477436137       -6.34320326155881
H           -1.19606406673027        1.81823410101132       -6.88301448578774
O           -2.89527094103260       -0.47765802089285       -4.85231045321890
H           -2.88635270330512        0.47920466889558       -4.71804578910309
H           -2.21522555733219       -0.84107102251337       -4.27058278122844
O            1.60114872981829        3.42142424585911        0.89053330423323
H            2.02902627510495        2.84560929441753        0.20833561427118
H            2.35372525563647        3.97354122302296        1.21911121482302
37
 energy: -59.819741729260 gnorm: 0.030460126336 xtb: 6.7.1 (edcfbbe)
N           -0.05170055249652       -0.99039955555597        1.47364799346533
C            0.17558766349867        0.45960679560823        1.29158163706602
C           -0.42704329120892        0.94560269938919       -0.02061969328173
C            0.28885952161447        0.42782033842044       -1.26936884062989