52
 energy: -85.303315089027 gnorm: 0.057411189276 xtb: 6.7.1 (edcfbbe)
N            0.74793966200000        0.02449140230000       -0.33694210960000
C            2.17467176080000       -0.16103811860000       -0.02756900100000
C            3.01042304280000        0.64835746060000       -1.01713373230000
C            4.42590713000000        0.91779669760000       -0.50648548680000
C            5.14626082940000        1.86993715950000       -1.45965624870000
O            4.71924192350000        3.03866661290000       -1.56868271380000
O            6.13339354360000        1.42650534900000       -2.11087890350000
H            0.50521052170000        1.03021799670000       -0.21719954920000
H            0.55437151290000       -0.24290303850000       -1.31816882680000
H            2.43721332510000       -1.21594699440000       -0.09246095680000
H            2.37160964380000        0.17866986840000        0.99042093790000
H            2.53339009590000        1.61365310480000       -1.18557861900000
H            3.08015174740000        0.13182334310000       -1.97578843170000
H            5.00228352150000       -0.00365379490000       -0.42434931550000
H            4.38365195110000        1.40316429200000        0.47056106750000
H            0.11329855020000       -0.51926018430000        0.28777377620000
O            0.19868807460000        2.73097153120000        0.11080468860000
H            0.48990950120000        3.01046435030000        0.98396231150000
H            0.75434082100000        3.21656051840000       -0.52287928350000
O            2.09707367170000        3.98223476480000       -1.49499248910000
H            3.03239654450000        3.71508375000000       -1.45016972490000
H            2.04913149310000        4.65859231090000       -2.17563626360000
H           -1.90311065210000       -1.70738196560000        0.74785065610000
O           -1.34969608390000       -1.00321889380000        1.09526055250000
H           -1.82155712670000       -0.16536438500000        0.92666042080000
O            7.56411595890000        3.00478757200000       -3.86450645070000
H            8.39992478860000        3.19971540500000       -3.42882225710000
H            7.05487299400000        2.44866426460000       -3.23758692930000
H            0.38820907590000       -1.52655172190000       -3.40420056740000
O            0.21193610720000       -0.66370264550000       -3.02049982010000
H            0.34198197150000       -0.00578139170000       -3.70773298790000
H            6.15511211910000        4.35613179980000       -4.00222472990000
O            5.37409152590000        4.79839925420000       -3.63358138150000
H            5.13393356700000        4.24104980920000       -2.86838059320000
H           -1.55633416060000        2.01774938240000        0.15132978090000
O           -2.33185381430000        1.43617022310000        0.20408763110000
H           -2.83834594250000        1.58465298560000       -0.59889071870000
H            8.33719388720000       -0.82812288910000       -1.38544897470000
O            7.60722869470000       -0.56498410900000       -0.81609250060000
H            7.13463253100000        0.14382694700000       -1.28953637370000
H            2.22827125310000        0.09823118670000        3.94435834090000
O            2.92841618490000        0.12238519080000        3.28372041890000
H            3.63628879280000       -0.43911735660000        3.60949660340000
H            5.32559219960000        0.12535265930000       -3.25850256940000
O            4.81094661460000       -0.52027430620000       -3.76426736170000
H            5.34501144420000       -0.74929223240000       -4.53097477640000
H           -2.12982060070000        0.13495301710000       -2.18766094510000
O           -1.65360782630000       -0.66486821800000       -1.94931330980000
H           -2.30463355140000       -1.38499672940000       -1.95743010380000
H            5.56853661460000        3.58930674700000        0.28466695720000
O            6.19776665420000        3.88140779780000        0.94963879370000
H            5.95319273200000        3.43296965590000        1.77516738160000
52
 energy: -85.315390186386 gnorm: 0.022464441222 xtb: 6.7.1 (edcfbbe)
N            0.74557222163920        0.02275979886900       -0.33904794855995
C            2.17170773966124       -0.16182547079469       -0.02946468218353
C            3.00906541000866        0.64756437923813       -1.01770557337192
C            4.42571329458525        0.91293161773129       -0.50759802572220
C            5.14489604172616        1.86449567463695       -1.46135142166406
O            4.73021327209881        3.04266882172671       -1.54525538906269
O            6.12808356564671        1.42443258324321       -2.11737686681655
H            0.50064412651135        1.02691807839276       -0.22091263849370
H            0.54286015415164       -0.24651750512330       -1.31873885781183
H            2.43534624620512       -1.21638792837302       -0.09423027495609
H            2.36895584227782        0.17766618277388        0.98883122057250
H            2.53179744220347        1.61273690529218       -1.18601318666577
H            3.07761423803837        0.13178704566318       -1.97656659420523
H            5.00142562609421       -0.00849522124066       -0.42727857698313
H            4.38151263633294        1.39352221544485        0.47140974617195
H            0.10838283644093       -0.52032969336624        0.28261627017335
O            0.19658752743249        2.73447366095739        0.11135040412248
H            0.49113857302449        3.01073043009451        0.98435041910740
H            0.75487637208324        3.21564767316734       -0.52309262132307
O            2.09854553189270        3.98427381867339       -1.49397163623053
H            3.03264781773071        3.71324628347405       -1.45831963595178
H            2.04737797170921        4.65941880551718       -2.17549347615016
H           -1.88809829807321       -1.70562700124227        0.75241626469069
O           -1.35142708205338       -0.99950349379473        1.12091800019939
H           -1.81464502800658       -0.16415299591010        0.91670283188582
O            7.56511981197577        3.00318115811172       -3.86544615991053
H            8.39868066784122        3.20246550683046       -3.42752474835212
H            7.05582008201584        2.44922441102210       -3.23708318165184
H            0.44213173172321       -1.52959635557694       -3.44873360617672
O            0.35258956993633       -0.65464363420545       -3.05668255671135
H            0.40903759265876       -0.00644552880464       -3.76492910471227
H            6.15751686810306        4.35776145455188       -4.00011967443093
O            5.36955180634768        4.79339509883149       -3.63833383194892
H            5.13392028428584        4.24005208882370       -2.86925084657637
H           -1.55038596331222        2.01206976825112        0.15153030983023
O           -2.33791084516274        1.44805476772704        0.21606970609521
H           -2.84535176169101        1.59927565993930       -0.58480310697282
H            8.33789897416940       -0.82713922497054       -1.38360458348980
O            7.60370247529229       -0.56801321833413       -0.81786062133730
H            7.13652384278187        0.14618028250324       -1.28835949711245
H            2.22717662917828        0.09760230628488        3.94205586000598
O            2.93201996208997        0.12796468443501        3.28652328759536
H            3.63535788082909       -0.44164202975946        3.60902216530943
H            5.32624033891657        0.12363523274952       -3.25943002115672
O            4.81047037401789       -0.52033195456349       -3.76589613756711
H            5.34478177515598       -0.75029946654436       -4.53221998296460
H           -2.18236141282957        0.12482738513560       -2.18322635749268
O           -1.75356950700056       -0.67393926608782       -1.85362386082038
H           -2.39471573414531       -1.38873457330669       -1.94943285649694
H            5.58010170199564        3.61710378987892        0.27638632333673
O            6.20545470142459        3.88160681345685        0.96133597792018
H            5.93825889434068        3.43043561366962        1.77299466701736
52
 energy: -85.318318837619 gnorm: 0.016215190354 xtb: 6.7.1 (edcfbbe)
N            0.73885025911366        0.02009534137253       -0.34288749887237
C            2.16473382879136       -0.16380142441288       -0.03486779380236
C            3.00491636940652        0.64572892073610       -1.02117193573753
C            4.42273965023744        0.90381127992074       -0.50864397708780
C            5.15376184550689        1.86504231990487       -1.44332468881709
O            4.74618022011977        3.04917329088596       -1.50835255508221
O            6.11475873391054        1.42092585678050       -2.12742302847647
H            0.49325883375719        1.02354735045226       -0.22784793341873
H            0.53057496440488       -0.25208699280582       -1.31969082343060
H            2.42884854695732       -1.21818523974141       -0.09994245483277
H            2.36090196819724        0.17543435210566        0.98391219508496
H            2.53028842845652        1.61271044542473       -1.18564916404754
H            3.06939943106851        0.13249166011880       -1.98160163990251
H            4.99474506296884       -0.02057958429531       -0.43590232658621
H            4.37734248610431        1.37359438580178        0.47527531568503
H            0.10096091688256       -0.52139369210258        0.27902688405442
O            0.19557538391159        2.73708921646648        0.10932651534916
H            0.49093049362661        3.01083120679351        0.98277258794093
H            0.75553693021766        3.21679443053504       -0.52449614837214
O            2.10137009371217        3.98012518606584       -1.49995077311016
H            3.03622253543730        3.71322754162511       -1.46329719298441
H            2.04965422431124        4.66335035393129       -2.17350216626719
H           -1.85857890613531       -1.69732224512312        0.75736614521376
O           -1.34810761845772       -0.98514386931814        1.15390730295662
H           -1.80993323929429       -0.15678672313687        0.91406897470489
O            7.56656191772331        3.00452827034830       -3.86402572449205
H            8.39666527189402        3.20735929637745       -3.42104147572380
H            7.05593163050650        2.44909839810441       -3.23821651227364
H            0.48234264795251       -1.52895635188804       -3.46586457880569
O            0.41318163113862       -0.65198670575024       -3.07979359775314
H            0.44935418670413       -0.01184227446992       -3.79515516015751
H            6.15728569437027        4.35634793218068       -3.99759214222995
O            5.35894175217419        4.78017801457955       -3.64366404057994
H            5.13583318262402        4.23500344090216       -2.86533840834430
H           -1.54208122605571        2.01106706763949        0.15940184011181
O           -2.34324215023218        1.46743762264901        0.24186465983115
H           -2.85871426423270        1.62471524407596       -0.55254120850605
H            8.33941053237081       -0.82537039098254       -1.37976825985355
O            7.59910311341531       -0.56954853951961       -0.82035670355401
H            7.13535186231195        0.14501156365782       -1.29290057327010
H            2.22565576793237        0.09727958996209        3.93673454544963
O            2.93928347536263        0.13832942621338        3.29093258568643
H            3.63326517884925       -0.44641054130992        3.60791125873981
H            5.32440253767906        0.11966166314086       -3.26214845142197
O            4.81021078421729       -0.52350961070808       -3.77129188148708
H            5.34693058192462       -0.75230692642866       -4.53627138872142
H           -2.19291071402980        0.10523413503697       -2.19185155547462
O           -1.79794753553227       -0.69578645837751       -1.82668671081345
H           -2.43888715720862       -1.40032405645908       -1.96852668609965
H            5.60770886545664        3.67024293671606        0.25799285544944
O            6.21958901353324        3.88548036212271        0.97874312356956
H            5.90069679623816        3.42687895930136        1.76788568256258
52
 energy: -85.320825246438 gnorm: 0.019980057310 xtb: 6.7.1 (edcfbbe)
N            0.72901702778852        0.01672653169342       -0.35177896296999
C            2.15376121975004       -0.16740497163440       -0.04273403105378
C            2.99600101165219        0.64208069124825       -1.02756582297972
C            4.41528977834796        0.88738347137450       -0.51252872386091
C            5.14226603003069        1.85545418697781       -1.44245137619946
O            4.78417336729431        3.06568545297015       -1.43267542865298
O            6.09885384300772        1.42079130284197       -2.13450080358408
H            0.48489732258950        1.02033508839222       -0.24325654279504
H            0.51719119182118       -0.26152409139239       -1.32457962749336
H            2.41821754163558       -1.22166928419203       -0.10812461291583
H            2.34746785889973        0.17255281973078        0.97646328208303
H            2.52683794647892        1.61262925906708       -1.18644200049760
H            3.05447234312484        0.13236494761455       -1.99009727257589
H            4.98350038797497       -0.04077825704096       -0.45322745194022
H            4.37192868987938        1.34359502331575        0.47798368761511
H            0.09049894990543       -0.51971401264504        0.27441102382340
O            0.19323069463906        2.73975133900305        0.10268037971776
H            0.48776686530473        3.01115817836670        0.97708819722697
H            0.75550449481666        3.21827083875713       -0.52969627798919
O            2.10959701655399        3.97002153151471       -1.51274540038265
H            3.04711247801597        3.71660556346557       -1.46321616999847
H            2.05940804335530        4.66735860889934       -2.17251551294986
H           -1.81968053532158       -1.67511868402965        0.75495416496846
O           -1.33626847749354       -0.96281790936676        1.18711863943072
H           -1.80307837650430       -0.14139300091678        0.94087526467925
O            7.56979552852521        3.01151775245226       -3.85719704198412
H            8.39477631300904        3.21553196906041       -3.40506337540463
H            7.05538197343349        2.45075649307792       -3.23966743254130
H            0.54240938524210       -1.52787770308528       -3.49172397599508
O            0.50235491340866       -0.64636352490341       -3.11628851095654
H            0.51653531843937       -0.01864742008044       -3.84097460496552
H            6.14591226520625        4.34277797912053       -3.99708274136146
O            5.34772763991161        4.76260553295423       -3.63900329068627
H            5.13580185898629        4.22361997628987       -2.85439841942577
H           -1.53489025837444        2.01911972463843        0.18247870374961
O           -2.33962400382160        1.48381442756894        0.27940242572023
H           -2.88138845749020        1.66567263594621       -0.49355810654487
H            8.34128615876437       -0.82327068098943       -1.37340123584705
O            7.59401204087655       -0.57036478204435       -0.82174599804920
H            7.12868619394045        0.13701120173789       -1.30146436093270
H            2.22524032970236        0.10017607181861        3.92963276907493
O            2.94656259100248        0.14720636464685        3.29284163088309
H            3.63053195655919       -0.45152808616267        3.60619318344321
H            5.31835520497744        0.12068931560306       -3.26772039723941
O            4.81426426378792       -0.53174004483195       -3.77643732700140
H            5.35383272957546       -0.75220939427511       -4.54187371347977
H           -2.20169068397321        0.07261649115464       -2.19751381875918
O           -1.86671678496024       -0.73573035546841       -1.78930233513189
H           -2.50865949938293       -1.42231187974340       -2.00851811078028
H            5.64881988811931        3.72021629283303        0.23384008999040
O            6.22543213278289        3.90738720761526        0.99357217287450
H            5.85613910850609        3.44346524615084        1.75707051264524
52
 energy: -85.322498490787 gnorm: 0.012585410320 xtb: 6.7.1 (edcfbbe)
N            0.71826108392088        0.01546712784926       -0.36651960444181
C            2.14200458087701       -0.16939109026384       -0.05435837112354
C            2.98948689601161        0.64146157267948       -1.03441057769047
C            4.40818928049715        0.87498152022032       -0.51037832903747
C            5.16067342929062        1.86121065785570       -1.40110615455908
O            4.80510417501165        3.06825224207036       -1.38151000626979
O            6.07425089171197        1.41649720536557       -2.14705088554573
H            0.47727593435052        1.02024016951881       -0.26432395249080
H            0.50903353764788       -0.26877532827560       -1.33668026996978
H            2.40651317850887       -1.22365124473437       -0.11984020495271
H            2.33171730880839        0.16986658418956        0.96584617408290
H            2.52543615349352        1.61546883403889       -1.18695513344188
H            3.04511018204749        0.13656661837266       -1.99952315665942
H            4.97122765956682       -0.05760639748613       -0.46506610591368
H            4.35852485606368        1.31230413758917        0.48835397137405
H            0.07895401895510       -0.51437743788067        0.26690835837223
O            0.19131428014152        2.74265342768663        0.09448847868574
H            0.48697458185810        3.01194609975445        0.96924137798428
H            0.75436604261571        3.21987922028596       -0.53774761680796
O            2.11734309858794        3.95764617959739       -1.52841492147714
H            3.05690813041043        3.71871114934178       -1.45249607532831
H            2.07671570303779        4.66986289626322       -2.17372484873902
H           -1.78675976370044       -1.64782339918206        0.74881457584190
O           -1.31789079756183       -0.94270800589083        1.20612598441695
H           -1.79306925718147       -0.12280729171318        0.98514248030964
O            7.57115434606118        3.01716732494240       -3.84872008326352
H            8.38991613714915        3.22549165836532       -3.38708704994690
H            7.05350107367930        2.45209914777673       -3.23858551307183
H            0.60707577884824       -1.52838747976914       -3.51768804452284
O            0.58870262826557       -0.64082006140773       -3.15563302477324
H            0.58939436058566       -0.02522927824232       -3.88951481117556
H            6.13775394895734        4.33495174454447       -3.99080527468799
O            5.32381335484504        4.73133143551778       -3.63817910134957
H            5.14725710378286        4.21099788770705       -2.83120332808733
H           -1.53051949278800        2.03156194814740        0.20771712342343
O           -2.33293334556312        1.49673076748419        0.31914737856409
H           -2.90732040071905        1.70568868341033       -0.42634584136051
H            8.34307508217871       -0.81961111459071       -1.36843948660255
O            7.58575480544186       -0.57394602441308       -0.82669404704425
H            7.12359349171000        0.13265696907951       -1.30874341520299
H            2.22601415913393        0.10586095363264        3.92336404567177
O            2.94989371534300        0.14999914984367        3.29006310690782
H            3.62799344999289       -0.45460441940540        3.60358065704733
H            5.30854546102686        0.11521774004781       -3.27043163526280
O            4.81444599586236       -0.53957551864109       -3.78697916776059
H            5.36319593511414       -0.75301388049456       -4.54797754487325
H           -2.21478148085274        0.03767167008971       -2.18611092948741
O           -1.93582982896626       -0.78456030254878       -1.77740919486407
H           -2.58198710340637       -1.44676223078134       -2.03256705471158
H            5.69178012358586        3.74126729038702        0.20863365399649
O            6.21732004145116        3.94526021983062        0.99762293363730
H            5.82438029461174        3.47316570733446        1.73970577418222
52
 energy: -85.323351474119 gnorm: 0.020730615289 xtb: 6.7.1 (edcfbbe)
N            0.70802059771115        0.01783957530347       -0.38179025589641
C            2.13028601556957       -0.16977190842313       -0.06310920278645
C            2.98372856314888        0.63999187910430       -1.03874163907361
C            4.40173550921642        0.86431936620672       -0.50940516808759
C            5.15693834282761        1.85321628777340       -1.39297379545300
O            4.82329444321981        3.06438030572267       -1.34788819299585
O            6.06246364750176        1.41298882410834       -2.14775902146900
H            0.47136297243361        1.02457726017890       -0.28620754419346
H            0.50769161319588       -0.27160548848398       -1.35109108439200
H            2.39340444575185       -1.22435841455754       -0.12855175841057
H            2.31592063075019        0.16823961663537        0.95804534025912
H            2.52451168723932        1.61656099344793       -1.18923772444224
H            3.03822728303537        0.13799331787248       -2.00523401355927
H            4.96180713450688       -0.07024473285871       -0.47190457537487
H            4.34901130239313        1.29308151866878        0.49279626219802
H            0.06553836133887       -0.50420581442952        0.25860651101913
O            0.19267402933060        2.74813459038309        0.08685982699940
H            0.49482619615303        3.01391552191540        0.96067898316767
H            0.75638041765182        3.22083061848433       -0.54796048836185
O            2.13042069143274        3.95458136894211       -1.53528944693207
H            3.06935239517220        3.72169586693028       -1.43974159827364
H            2.09687401285240        4.66424668607755       -2.18221193136244
H           -1.76048591675746       -1.62322179838993        0.73495027531615
O           -1.29972205144840       -0.92967365388248        1.21696269653182
H           -1.78062513037429       -0.10480958891338        1.02556499226935
O            7.57060368973373        3.02079257922713       -3.83865515315521
H            8.38382969786119        3.23404989524447       -3.36956122972344
H            7.05054384725634        2.45254819165309       -3.23427150691942
H            0.66304911850986       -1.53022790410933       -3.53192952119234
O            0.65070834299432       -0.63900858918663       -3.18121917792215
H            0.64832045102818       -0.03084756614546       -3.92093952690458
H            6.11881248059722        4.31679497218594       -3.98546137259199
O            5.31151436825151        4.71243510960852       -3.61975409675663
H            5.14776732989336        4.19743581345973       -2.80865796560821
H           -1.52692485459007        2.04335645763298        0.23137408670533
O           -2.33409614874338        1.51725445424226        0.36087998732237
H           -2.92626203487666        1.73972502574771       -0.36505448974251
H            8.34305456918378       -0.81914825787120       -1.36555426108122
O            7.58151381775354       -0.57682485224440       -0.82858758287183
H            7.11559709169563        0.12322346986090       -1.31538789323013
H            2.22831832942838        0.11340847636776        3.91810296389870
O            2.95261082582129        0.15189465370081        3.28520236840374
H            3.62616696721886       -0.45750826505160        3.59865157735912
H            5.29881890498025        0.11529568355531       -3.27305039617029
O            4.81861665358365       -0.54841852855127       -3.79259331148436
H            5.37411620209104       -0.75056036153476       -4.55194982783697
H           -2.20538776741737        0.00313163240991       -2.18577105798988
O           -1.99570831226094       -0.83880998593304       -1.75075227418206
H           -2.65365457871992       -1.47419627815534       -2.07928305863758
H            5.71812933935678        3.77879545495892        0.19185267715482
O            6.22263041127907        3.96991390258057        0.99789508189361
H            5.79252888454045        3.50327805362995        1.72464282656777
52
 energy: -85.323800505066 gnorm: 0.024215468865 xtb: 6.7.1 (edcfbbe)
N            0.69475237218838        0.02345249591513       -0.40643556634556
C            2.11444823970358       -0.16882179518060       -0.07450951758298
C            2.97731314542383        0.63861552324975       -1.04314294854107
C            4.39426040556467        0.85186383314834       -0.50828639999233
C            5.14254020648134        1.83687706705594       -1.39785532780009
O            4.84557321543010        3.05593015774241       -1.31509213798310
O            6.05292700383352        1.40749567902159       -2.14470132585819
H            0.46453219404576        1.03308146507922       -0.31853110208700
H            0.51250556388882       -0.27128017934396       -1.37679719524769
H            2.37482113626052       -1.22406721187385       -0.13970719944869
H            2.29333118729381        0.16665756389686        0.94834252756069
H            2.52471247424863        1.61827039281680       -1.19345636295253
H            3.03212650231822        0.13952409595911       -2.01090931677039
H            4.95080397889976       -0.08448463438494       -0.47781631175207
H            4.34026621395375        1.27443924699414        0.49611983203532
H            0.04576032344324       -0.48809901678666        0.24201029387547
O            0.19712708525839        2.75608224872545        0.07539842595899
H            0.50893778204240        3.01568113725016        0.94808919629815
H            0.76089626203368        3.22415239303315       -0.56256891212334
O            2.15195632764685        3.95646472609727       -1.53852485359383
H            3.08810458837249        3.72574726854827       -1.42236688752453
H            2.12664696202884        4.65492166029302       -2.19527164273349
H           -1.73311461625257       -1.59017096284884        0.70651534994860
O           -1.27591081655878       -0.91727071869630        1.22026144344483
H           -1.76311176024282       -0.08122024789515        1.07643272288216
O            7.56844129481312        3.02327787608581       -3.82453508123624
H            8.37524271682002        3.24392358436150       -3.34819697152121
H            7.04692242434323        2.45172992294944       -3.22560849328440
H            0.73814120692067       -1.53479753778217       -3.54983292393682
O            0.72901931906189       -0.63534759065037       -3.21951981989389
H            0.73187616580802       -0.04059393079974       -3.97072862943844
H            6.09304444763241        4.29465797832802       -3.97432464140055
O            5.29432294679819        4.68884764443158       -3.59107264700399
H            5.14531949102779        4.17893051750101       -2.77707391871188
H           -1.52494586949687        2.06306030472540        0.26186586888313
O           -2.33685774081406        1.54661408363666        0.41293268777021
H           -2.94928223869277        1.78675738266698       -0.28660751497296
H            8.34195056777950       -0.81934774553825       -1.36326482231867
O            7.57654709197182       -0.58141036971576       -0.83071675747914
H            7.10442524385240        0.11036956125762       -1.32275585275567
H            2.23201166188646        0.12473020652820        3.91190896355695
O            2.95507987755894        0.15428365948420        3.27701137205798
H            3.62348737680612       -0.46119079026867        3.58947104817398
H            5.28883907080921        0.11458336882720       -3.27544438090560
O            4.82464947272710       -0.55769333465400       -3.79974662580913
H            5.38881757030084       -0.74668939852575       -4.55627821562934
H           -2.23468324637718       -0.05498329444243       -2.15500531095999
O           -2.06706426325274       -0.91058923881343       -1.76186183583748
H           -2.72666614949067       -1.51740870379486       -2.06608828927968
H            5.73940815142663        3.82351613651346        0.18049740454610
O            6.22960116141155        4.00029698747051        0.99557873106131
H            5.75900109136611        3.54711596750050        1.70773518465930
52
 energy: -85.324522180104 gnorm: 0.015043497360 xtb: 6.7.1 (edcfbbe)
N            0.69094960970594        0.02770849001000       -0.41917363669092
C            2.10881357770615       -0.16661234876235       -0.07982649657242
C            2.97663344384046        0.64010803992205       -1.04451358422734
C            4.39327226474505        0.84749967655484       -0.50601104116815
C            5.14781619354816        1.83607980541750       -1.38753204272306
O            4.85176342563758        3.05367419477071       -1.30443612116396
O            6.04609310534652        1.40066614388525       -2.15100614540077
H            0.46270965675677        1.03790042927922       -0.33385948303795
H            0.51707988471754       -0.26881553524668       -1.39024578155548
H            2.36690913139423       -1.22245513786538       -0.14457921101233
H            2.28335873259641        0.16747575748957        0.94423254277699
H            2.52747674581964        1.62151535783313       -1.19460083592894
H            3.03229727106214        0.14236834999723       -2.01311534455655