52
 energy: -85.345845753102 gnorm: 0.000373542212 xtb: 6.7.1 (edcfbbe)
N            0.99013659269203        0.17008263784147       -0.41077661873930
C            2.37331837835575       -0.14770410006787       -0.02947450473200
C            3.31401581726171        0.79242501596605       -0.77833671679333
C            4.71570660171288        0.84356307612833       -0.16578067440334
C            5.51121910304803        1.90907001257253       -0.91179922242188
O            5.37580188296206        3.10640278221847       -0.55023088557700
O            6.22319498843450        1.55974190687032       -1.88382083917625
H            0.77633482109882        1.14925852358367       -0.14202966728022
H            0.87851139819838        0.08296184749595       -1.43990478391073
H            2.59908327107587       -1.18251974749388       -0.28302377705073
H            2.49902344001477       -0.02181424629552        1.04651549387776
H            2.90255958598014        1.80117438443639       -0.75156095465018
H            3.40030135703549        0.48775559048667       -1.82200544004707
H            5.21704222244379       -0.11926756170314       -0.26325633987874
H            4.65906261910050        1.12332348537494        0.88696440505634
H            0.26817862127618       -0.44742128875305        0.03997674758101
O            0.52467317717207        2.85136480811628        0.34609863714204
H            0.71370260598375        3.00901580035509        1.27572768845143
H            1.16755246657473        3.38502888086636       -0.14893911788174
O            2.73225722355563        4.16508176475616       -0.84065350813438
H            3.61881604301672        3.84219860096394       -0.61515292903976
H            2.87556217815590        4.81349827663294       -1.53773482580201
H           -1.40295934842466       -1.51100055281708       -0.52456803404116
O           -1.24198635422205       -1.13748174688884        0.36321273876658
H           -1.72846262907082       -0.29617006607687        0.38625904876622
O            6.78791957381776        3.26882398347218       -3.96454150031041
H            7.74486990604562        3.29153413145255       -4.06052005403392
H            6.60843488053575        2.65286919803777       -3.22381745148223
H            1.56873743391983       -0.39145408385659       -3.55811195397453
O            0.71156920097635       -0.12549882498466       -3.18093938673560
H            0.42866851551362        0.65223031240355       -3.67059257048954
H            5.68540053365574        4.71970758992001       -3.22374388579676
O            5.23684052668672        5.13420778384566       -2.47016904015431
H            5.40822064430992        4.52155353112088       -1.73178577323473
H           -1.26088543821759        2.12266742169070        0.14971505456678
O           -2.04289634907671        1.55604826828350        0.06455730004270
H           -2.60427963043877        1.95906389328221       -0.60219494400731
H            6.45159411389786       -1.26395152052075       -3.30876701576316
O            5.63606062425577       -0.88847154143221       -2.96482231294785
H            5.87440774676265       -0.02132759140095       -2.57784263334417
H            2.98381061287224        0.15308143472402        4.05932897024008
O            2.82235555965847       -0.40305566035339        3.29227647865628
H            2.51736161079339       -1.25460771738717        3.62060075173715
H            3.50579486365249       -0.14763660043222       -5.09126318310616
O            3.20958066861140       -0.57732569229830       -4.28410437721067
H            4.01557223600645       -0.79435717596513       -3.78335432903732
H           -0.55726015853433       -1.36651758256907       -2.67317582973571
O           -1.18102126533390       -2.00024250654030       -2.27439596155298
H           -0.84037278105734       -2.87535780435013       -2.47610390105885
H            5.37847836046018        3.47883518638408        1.22478641435034
O            5.32582896442287        3.63230036757417        2.18481780509922
H            5.39141780268226        4.58479855052155        2.30399272122826
