
                                 *****************
                                 * O   R   C   A *
                                 *****************

                                            #,                                       
                                            ###                                      
                                            ####                                     
                                            #####                                    
                                            ######                                   
                                           ########,                                 
                                     ,,################,,,,,                         
                               ,,#################################,,                 
                          ,,##########################################,,             
                       ,#########################################, ''#####,          
                    ,#############################################,,   '####,        
                  ,##################################################,,,,####,       
                ,###########''''           ''''###############################       
              ,#####''   ,,,,##########,,,,          '''####'''          '####       
            ,##' ,,,,###########################,,,                        '##       
           ' ,,###''''                  '''############,,,                           
         ,,##''                                '''############,,,,        ,,,,,,###''
      ,#''                                            '''#######################'''  
     '                                                          ''''####''''         
             ,#######,   #######,   ,#######,      ##                                
            ,#'     '#,  ##    ##  ,#'     '#,    #''#        ,####,   ,####,        
            ##       ##  ##   ,#'  ##            #'  '#       #'       #'  '#        
            ##       ##  #######   ##           ,######,      #####,   #    #        
            '#,     ,#'  ##    ##  '#,     ,#' ,#      #,     #,   #   #,  ,#        
             '#######'   ##     ##  '#######'  #'      '#     '####' # '####'        



                #########################################################
                #                        -***-                          #
                #          Department of theory and spectroscopy        #
                #                                                       #
                #                      Frank Neese                      #
                #                                                       #
                #     Directorship, Architecture, Infrastructure        #
                #                    SHARK, DRIVERS                     #
                #        Core code/Algorithms in most modules           #
                #                                                       #
                #        Max Planck Institute fuer Kohlenforschung      #
                #                Kaiser Wilhelm Platz 1                 #
                #                 D-45470 Muelheim/Ruhr                 #
                #                      Germany                          #
                #                                                       #
                #                  All rights reserved                  #
                #                        -***-                          #
                #########################################################


                         Program Version 6.0.1  -  RELEASE   -


 With contributions from (in alphabetic order):
[Max-Planck-Institut fuer Kohlenforschung]                               
  Daniel Aravena         : Magnetic Suceptibility                        
  Michael Atanasov       : Ab Initio Ligand Field Theory (pilot matlab implementation)
  Alexander A. Auer      : GIAO ZORA, VPT2 properties, NMR spectrum      
  Ute Becker             : All parallelization in ORCA, NUMFREQ, NUMCALC 
  Giovanni Bistoni       : ED, misc. LED, open-shell LED, HFLD           
  Martin Brehm           : Molecular dynamics                            
  Dmytro Bykov           : pre 5.0 version of the SCF Hessian            
  Marcos Casanova-Páez   : Triplet and SCS-CIS(D). UHF-(DLPNO)-IP/EA/STEOM-CCSD. UHF-CVS-IP/STEOM-CCSD   
  Vijay G. Chilkuri      : MRCI spin determinant printing, contributions to CSF-ICE 
  Pauline Colinet        : FMM embedding                                 
  Dipayan Datta          : RHF DLPNO-CCSD density                        
  Achintya Kumar Dutta   : EOM-CC, STEOM-CC                              
  Nicolas Foglia         : Exact transition moments, OPA infrastructure, MCD improvements    
  Dmitry Ganyushin       : Spin-Orbit,Spin-Spin,Magnetic field MRCI      
  Miquel Garcia-Rates    : C-PCM and meta-GGA Hessian, CCSD/C-PCM, Gaussian charge scheme 
  Tiago L. C. Gouveia    : GS-ROHF, GS-ROCIS                             
  Yang Guo               : DLPNO-NEVPT2, F12-NEVPT2, CIM, IAO-localization        
  Andreas Hansen         : Spin unrestricted coupled pair/coupled cluster methods 
  Ingolf Harden          : AUTO-CI MPn and infrastructure                
  Benjamin Helmich-Paris : MC-RPA, TRAH-(SCF,CASSCF), AVAS, COSX integrals, SCF dyn. polar. 
  Lee Huntington         : MR-EOM, pCC                                   
  Robert Izsak           : Overlap fitted RIJCOSX, COSX-SCS-MP3, EOM     
  Riya Kayal             : Wick's Theorem for AUTO-CI, AUTO-CI UHF-CCSDT 
  Emily Kempfer          : AUTO-CI, RHF CISDT and CCSDT                  
  Christian Kollmar      : KDIIS, OOCD, Brueckner-CCSD(T), CCSD density, CASPT2, CASPT2-K, improved NEVPT2 
  Axel Koslowski         : Symmetry handling                             
  Simone Kossmann        : meta-GGA functionals, TD-DFT gradient, OOMP2, (MP2 Hessian; deprecated post 5.0) 
  Lucas Lang             : DCDCAS                                        
  Marvin Lechner         : AUTO-CI (C++ implementation), FIC-MRCC        
  Spencer Leger          : CASSCF response                               
  Dagmar Lenk            : GEPOL surface, SMD, ORCA-2-JSON               
  Dimitrios Liakos       : Extrapolation schemes; Compound Job, initial MDCI parallelization 
  Dimitrios Manganas     : Further ROCIS development; embedding schemes. LFT, Crystal Embedding 
  Dimitrios Pantazis     : SARC Basis sets                               
  Anastasios Papadopoulos: AUTO-CI, single reference methods and gradients 
  Taras Petrenko         : pre 6.0 DFT Hessian and TD-DFT gradient, (ASA, deprecated), ECA, 1-Electron XAS/XES, NRVS 
  Peter Pinski           : DLPNO-MP2, DLPNO-MP2 Gradient                 
  Christoph Reimann      : Effective Core Potentials                     
  Marius Retegan         : Local ZFS, SOC                                
  Christoph Riplinger    : Optimizer, TS searches, QM/MM, DLPNO-CCSD(T), (RO)-DLPNO pert. Triples 
  Michael Roemelt        : Original ROCIS implementation                 
  Masaaki Saitow         : Open-shell DLPNO-CCSD energy and density      
  Barbara Sandhoefer     : DKH picture change effects                    
  Kantharuban Sivalingam : CASSCF convergence/infrastructure, NEVPT2 and variants, FIC-MRCI 
  Bernardo de Souza      : ESD, SOC TD-DFT                               
  Georgi L. Stoychev     : AutoAux, RI-MP2 NMR, DLPNO-MP2 response, X2C  
  Van Anh Tran           : RI-MP2 g-tensors                              
  Willem Van den Heuvel  : Paramagnetic NMR                              
  Zikuan Wang            : NOTCH, Electric field optimization            
  Frank Wennmohs         : Technical directorship and infrastructure     
  Hang Xu                : AUTO-CI-Response properties                   
                                                                         
[FACCTs GmbH]                                                            
  Markus Bursch, Miquel Garcia-Rates, Christoph Riplinger, Bernardo de Souza, Georgi L. Stoychev 
                                                                 
  APM, Basis sets (HGBS, AHGBS, def-TZVP (Ac-Lr), def2-XVPD (La-Lu)), CI-OPT, improved COSX, DLPNO-Multilevel,           
  DOCKER, DRACO, updates on ESD, GOAT, IRC, LR-CPCM, MBIS, meta-GGA TD-DFT gradient, ML-optimized integration grids, 
  MM, NACMEs, nearIR, NEB, NEB-TS, NL-DFT gradient (VV10), 2- and 3-layer-ONIOM, interface openCOSMO-RS, QMMM,   
  Crystal-QMMM, SF, symmetry and pop. for TD-DFT, r2SCAN hybrids, SOLVATOR                                   
                                                                         
[Other institutions]                                                     
  V. Asgeirsson          : NEB                                           
  Christoph Bannwarth    : sTDA-DFT, sTD-DFT, PBEh-3c, B97-3c, D3        
  Sebastian Ehlert       : rSCAN, r2SCAN, r2SCAN-3c, D4, dhf basis sets  
  Marvin Friede          : D4 for Fr, Ra, Ac-Lr                          
  Lars Goerigk           : TD-DFT with DH, B97 family of functionals     
  Stefan Grimme          : VdW corrections, initial TS optimization, DFT functionals, gCP, sTDA/sTD-DF 
  Waldemar Hujo          : DFT-NL                                        
  H. Jonsson             : NEB                                           
  Holger Kruse           : gCP                                           
  Marcel Mueller         : wB97X-3c, vDZP basis set                      
  Hagen Neugebauer       : wr2SCAN                                       
  Tobias Risthaus        : range-separated hybrid DFT                    
  Lukas Wittmann         : regularized MP2, r2SCAN double-hybrids, wr2SCAN        
                                                                         
We gratefully acknowledge several colleagues who have allowed us to      
interface, adapt or use parts of their codes:                            
  Ed Valeev, F. Pavosevic, A. Kumar             : LibInt (2-el integral package), F12 methods 
  Garnet Chan, S. Sharma, J. Yang, R. Olivares  : DMRG                   
  Ulf Ekstrom                                   : XCFun DFT Library      
  Mihaly Kallay                                 : mrcc  (arbitrary order and MRCC methods)
  Frank Weinhold                                : gennbo (NPA and NBO analysis)           
  Simon Mueller                                 : openCOSMO-RS                            
  Christopher J. Cramer and Donald G. Truhlar   : smd solvation model                     
  S Lehtola, MJT Oliveira, MAL Marques          : LibXC Library                           
  Liviu Ungur et al                             : ANISO software                          


 Your calculation uses the libint2 library for the computation of 2-el integrals
 For citations please refer to: http://libint.valeyev.net

 Your ORCA version has been built with support for libXC version: 6.2.2
 For citations please refer to: https://libxc.gitlab.io

 This ORCA versions uses:
   CBLAS   interface :  Fast vector & matrix operations
   LAPACKE interface :  Fast linear algebra routines
   SCALAPACK package :  Parallel linear algebra routines
   Shared memory     :  Shared parallel matrices
   BLAS/LAPACK       :  OpenBLAS 0.3.27  USE64BITINT DYNAMIC_ARCH NO_AFFINITY SkylakeX SINGLE_THREADED
        Core in use  :  SkylakeX
   Copyright (c) 2011-2014, The OpenBLAS Project


NOTE: MaxCore=5000 MB was set to SCF,MP2,MDCI,CIPSI,MRCI and CIS
      => If you want to overwrite this, your respective input block should be placed after the MaxCore statement
Your calculation utilizes the atom-pairwise dispersion correction
based on EEQ partial charges (D4)


Warning: RI is on but no J-basis has been assigned. Assigning Def2/J (nothing to worry about!)
================================================================================

----- Orbital basis set information -----
Your calculation utilizes the basis: def2-TZVP
   F. Weigend and R. Ahlrichs, Phys. Chem. Chem. Phys. 7, 3297 (2005).

----- AuxJ basis set information -----
Your calculation utilizes the auxiliary basis: def2/J
   F. Weigend, Phys. Chem. Chem. Phys. 8, 1057 (2006).

================================================================================
                                        WARNINGS
                       Please study these warnings very carefully!
================================================================================


WARNING: Geometry Optimization
  ===> : Switching off AutoStart
         For restart on a previous wavefunction, please use MOREAD

================================================================================
                                       INPUT FILE
================================================================================
NAME = 03_Aminobutyric-acid_zwitterion.inp
|  1> ! Opt B3LYP D4 def2-TZVP TightSCF TightOpt CPCM(water)
|  2> 
|  3> %maxcore 5000
|  4> 
|  5> %pal
|  6> nprocs 6
|  7> end
|  8> 
|  9> * xyz 0 1
| 10> N          1.07890        0.09620        0.90050
| 11> C          1.64050       -0.24950       -0.40530
| 12> C          1.25090        0.79840       -1.46150
| 13> C          1.73740        0.46320       -2.88190
| 14> C          3.23540        0.48090       -3.03330
| 15> O          3.81300        1.37010       -3.86380
| 16> O          3.93390       -0.32540       -2.44110
| 17> H          1.44760        1.02270        1.21630
| 18> H          0.03490        0.13170        0.84650
| 19> H          1.25500       -1.24620       -0.71540
| 20> H          2.74400       -0.31220       -0.30900
| 21> H          1.63660        1.79820       -1.16420
| 22> H          0.14070        0.85290       -1.49580
| 23> H          1.34280       -0.52710       -3.19640
| 24> H          1.31440        1.23060       -3.56620
| 25> H          1.35580       -0.63310        1.59680
| 26> *
| 27> 
| 28>                          ****END OF INPUT****
================================================================================

                       *****************************
                       * Geometry Optimization Run *
                       *****************************

Geometry optimization settings:
Update method            Update   .... BFGS
Choice of coordinates    CoordSys .... (2022) Redundant Internals
Initial Hessian          InHess   .... Almloef's Model
Max. no of cycles        MaxIter  .... 50

Convergence Tolerances:
Energy Change            TolE     ....  1.0000e-06 Eh
Max. Gradient            TolMAXG  ....  1.0000e-04 Eh/bohr
RMS Gradient             TolRMSG  ....  3.0000e-05 Eh/bohr
Max. Displacement        TolMAXD  ....  1.0000e-03 bohr
RMS Displacement         TolRMSD  ....  6.0000e-04 bohr
Strict Convergence                .... False

------------------------------------------------------------------------------
                        ORCA OPTIMIZATION COORDINATE SETUP
------------------------------------------------------------------------------

The optimization will be done in redundant internal coordinates (2022)
Making redundant internal coordinates   ...  (2022 redundants) done
Evaluating the initial hessian          ...  (Almloef) done
Evaluating the coordinates              ...  done
Calculating the B-matrix                .... done
Calculating the G-matrix                .... done
Diagonalizing the G-matrix              .... done
Small eigenvalue found = 2.547e-02
The first mode is                       ....   23
The number of degrees of freedom        ....   42

    -----------------------------------------------------------------
                    Redundant Internal Coordinates


    -----------------------------------------------------------------
         Definition                    Initial Value    Approx d2E/dq
    -----------------------------------------------------------------
      1. B(C   1,N   0)                  1.4629         0.428155   
      2. B(C   2,C   1)                  1.5380         0.362757   
      3. B(C   3,C   2)                  1.5384         0.362265   
      4. B(C   4,C   3)                  1.5057         0.408404   
      5. B(O   5,C   4)                  1.3469         0.655699   
      6. B(O   6,C   4)                  1.2201         1.044452   
      7. B(H   7,N   0)                  1.0460         0.379134   
      8. B(H   8,N   0)                  1.0460         0.379107   
      9. B(H   9,C   1)                  1.1127         0.331244   
     10. B(H  10,C   1)                  1.1095         0.335247   
     11. B(H  11,C   2)                  1.1121         0.332028   
     12. B(H  12,C   2)                  1.1121         0.332061   
     13. B(H  13,C   3)                  1.1114         0.332818   
     14. B(H  14,C   3)                  1.1118         0.332386   
     15. B(H  15,N   0)                  1.0457         0.379591   
     16. A(H   8,N   0,H  15)          108.8053         0.290866   
     17. A(H   7,N   0,H   8)          109.7151         0.290811   
     18. A(C   1,N   0,H   8)          110.1882         0.329679   
     19. A(C   1,N   0,H  15)          109.1424         0.329748   
     20. A(C   1,N   0,H   7)          110.0902         0.329683   
     21. A(H   7,N   0,H  15)          108.8687         0.290869   
     22. A(H   9,C   1,H  10)          108.5510         0.283879   
     23. A(C   2,C   1,H  10)          110.4914         0.319006   
     24. A(N   0,C   1,H  10)          108.5246         0.325833   
     25. A(C   2,C   1,H   9)          109.3385         0.318381   
     26. A(N   0,C   1,C   2)          110.7774         0.367763   
     27. A(N   0,C   1,H   9)          109.1129         0.325190   
     28. A(C   1,C   2,H  11)          109.9438         0.318504   
     29. A(C   3,C   2,H  12)          107.3323         0.318439   
     30. A(C   1,C   2,H  12)          107.9064         0.318509   
     31. A(C   3,C   2,H  11)          109.4536         0.318433   
     32. A(C   1,C   2,C   3)          113.9228         0.359643   
     33. A(H  11,C   2,H  12)          108.0850         0.283563   
     34. A(H  13,C   3,H  14)          107.8038         0.283711   
     35. A(C   2,C   3,C   4)          113.8846         0.367002   
     36. A(C   4,C   3,H  14)          107.9694         0.324802   
     37. A(C   2,C   3,H  14)          107.3119         0.318489   
     38. A(C   4,C   3,H  13)          109.5866         0.324871   
     39. A(C   2,C   3,H  13)          110.0678         0.318557   
     40. A(O   5,C   4,O   6)          119.3442         0.475806   
     41. A(C   3,C   4,O   6)          120.8617         0.439383   
     42. A(C   3,C   4,O   5)          119.7626         0.404342   
     43. D(H   9,C   1,N   0,H   8)    -60.0482         0.016747   
     44. D(H   9,C   1,N   0,H   7)    178.8073         0.016747   
     45. D(H   9,C   1,N   0,H  15)     59.3704         0.016747   
     46. D(C   2,C   1,N   0,H  15)    179.7898         0.016747   
     47. D(C   2,C   1,N   0,H   7)    -60.7734         0.016747   
     48. D(C   2,C   1,N   0,H   8)     60.3711         0.016747   
     49. D(C   3,C   2,C   1,N   0)   -176.6934         0.010546   
     50. D(H  11,C   2,C   1,H  10)    -60.2635         0.010546   
     51. D(H  11,C   2,C   1,H   9)   -179.6766         0.010546   
     52. D(H  11,C   2,C   1,N   0)     60.0385         0.010546   
     53. D(C   3,C   2,C   1,H  10)     63.0047         0.010546   
     54. D(C   3,C   2,C   1,H   9)    -56.4084         0.010546   
     55. D(C   4,C   3,C   2,H  12)    174.5456         0.010520   
     56. D(C   4,C   3,C   2,H  11)     57.4733         0.010520   
     57. D(C   4,C   3,C   2,C   1)    -66.0610         0.010520   
     58. D(H  13,C   3,C   2,H  12)    -61.9438         0.010520   
     59. D(H  13,C   3,C   2,H  11)   -179.0160         0.010520   
     60. D(H  13,C   3,C   2,C   1)     57.4497         0.010520   
     61. D(O   6,C   4,C   3,C   2)     65.0731         0.012357   
     62. D(O   5,C   4,C   3,H  14)      2.0816         0.012357   
     63. D(O   5,C   4,C   3,H  13)    119.2485         0.012357   
     64. D(O   6,C   4,C   3,H  13)    -58.6983         0.012357   
     65. D(O   5,C   4,C   3,C   2)   -116.9801         0.012357   
    -----------------------------------------------------------------

Number of atoms                         .... 16
Number of degrees of freedom            .... 65


         *************************************************************
         *                GEOMETRY OPTIMIZATION CYCLE   1            *
         *************************************************************
---------------------------------
CARTESIAN COORDINATES (ANGSTROEM)
---------------------------------
  N      1.078900    0.096200    0.900500
  C      1.640500   -0.249500   -0.405300
  C      1.250900    0.798400   -1.461500
  C      1.737400    0.463200   -2.881900
  C      3.235400    0.480900   -3.033300
  O      3.813000    1.370100   -3.863800
  O      3.933900   -0.325400   -2.441100
  H      1.447600    1.022700    1.216300
  H      0.034900    0.131700    0.846500
  H      1.255000   -1.246200   -0.715400
  H      2.744000   -0.312200   -0.309000
  H      1.636600    1.798200   -1.164200
  H      0.140700    0.852900   -1.495800
  H      1.342800   -0.527100   -3.196400
  H      1.314400    1.230600   -3.566200
  H      1.355800   -0.633100    1.596800

----------------------------
CARTESIAN COORDINATES (A.U.)
----------------------------
  NO LB      ZA    FRAG     MASS         X           Y           Z
   0 N     7.0000    0    14.007    2.038826    0.181792    1.701698
   1 C     6.0000    0    12.011    3.100096   -0.471487   -0.765906
   2 C     6.0000    0    12.011    2.363858    1.508757   -2.761835
   3 C     6.0000    0    12.011    3.283210    0.875321   -5.446002
   4 C     6.0000    0    12.011    6.114020    0.908769   -5.732106
   5 O     8.0000    0    15.999    7.205526    2.589114   -7.301524
   6 O     8.0000    0    15.999    7.433994   -0.614917   -4.613010
   7 H     1.0000    0     1.008    2.735568    1.932623    2.298474
   8 H     1.0000    0     1.008    0.065951    0.248877    1.599653
   9 H     1.0000    0     1.008    2.371606   -2.354977   -1.351910
  10 H     1.0000    0     1.008    5.185409   -0.589972   -0.583925
  11 H     1.0000    0     1.008    3.092726    3.398106   -2.200019
  12 H     1.0000    0     1.008    0.265884    1.611747   -2.826652
  13 H     1.0000    0     1.008    2.537524   -0.996075   -6.040321
  14 H     1.0000    0     1.008    2.483856    2.325497   -6.739141
  15 H     1.0000    0     1.008    2.562091   -1.196386    3.017515

--------------------------------
INTERNAL COORDINATES (ANGSTROEM)
--------------------------------
 N      0   0   0     0.000000000000     0.00000000     0.00000000
 C      1   0   0     1.462879588346     0.00000000     0.00000000
 C      2   1   0     1.537999027958   110.77738580     0.00000000
 C      3   2   1     1.538368437664   113.92281545   183.30663572
 C      4   3   2     1.505735451532   113.88464221   293.93904425
 O      5   4   3     1.346858808487   119.76261998   243.01989078
 O      5   4   3     1.220132279714   120.86170911    65.07311229
 H      1   2   3     1.045978766515   110.09015103   299.22662755
 H      1   2   3     1.045998207455   110.18822264    60.37111133
 H      2   1   3     1.112736783790   109.11287735   239.58067590
 H      2   1   3     1.109467092797   108.52463304   121.46697557
 H      3   2   1     1.112093440319   109.94378029    60.03846240
 H      3   2   1     1.112065996243   107.90643406   302.37427177
 H      4   3   2     1.111446579913   110.06778799    57.44969432
 H      4   3   2     1.111799554776   107.31194527   174.50392877
 H      1   2   3     1.045650892985   109.14241554   179.78975072

---------------------------
INTERNAL COORDINATES (A.U.)
---------------------------
 N      0   0   0     0.000000000000     0.00000000     0.00000000
 C      1   0   0     2.764441788878     0.00000000     0.00000000
 C      2   1   0     2.906396957078   110.77738580     0.00000000
 C      3   2   1     2.907095040253   113.92281545   183.30663572
 C      4   3   2     2.845427633532   113.88464221   293.93904425
 O      5   4   3     2.545194289101   119.76261998   243.01989078
 O      5   4   3     2.305715855816   120.86170911    65.07311229
 H      1   2   3     1.976613410610   110.09015103   299.22662755
 H      1   2   3     1.976650148663   110.18822264    60.37111133
 H      2   1   3     2.102767780504   109.11287735   239.58067590
 H      2   1   3     2.096588959985   108.52463304   121.46697557
 H      3   2   1     2.101552037533   109.94378029    60.03846240
 H      3   2   1     2.101500175746   107.90643406   302.37427177
 H      4   3   2     2.100329648519   110.06778799    57.44969432
 H      4   3   2     2.100996674342   107.31194527   174.50392877
 H      1   2   3     1.975993819432   109.14241554   179.78975072

---------------------
BASIS SET INFORMATION
---------------------
There are 4 groups of distinct atoms

 Group   1 Type N   : 11s6p2d1f contracted to 5s3p2d1f pattern {62111/411/11/1}
 Group   2 Type C   : 11s6p2d1f contracted to 5s3p2d1f pattern {62111/411/11/1}
 Group   3 Type O   : 11s6p2d1f contracted to 5s3p2d1f pattern {62111/411/11/1}
 Group   4 Type H   : 5s1p contracted to 3s1p pattern {311/1}

Atom   0N    basis set group =>   1
Atom   1C    basis set group =>   2
Atom   2C    basis set group =>   2
Atom   3C    basis set group =>   2
Atom   4C    basis set group =>   2
Atom   5O    basis set group =>   3
Atom   6O    basis set group =>   3
Atom   7H    basis set group =>   4
Atom   8H    basis set group =>   4
Atom   9H    basis set group =>   4
Atom  10H    basis set group =>   4
Atom  11H    basis set group =>   4
Atom  12H    basis set group =>   4
Atom  13H    basis set group =>   4
Atom  14H    basis set group =>   4
Atom  15H    basis set group =>   4
---------------------------------
AUXILIARY/J BASIS SET INFORMATION
---------------------------------
There are 4 groups of distinct atoms

 Group   1 Type N   : 12s5p4d2f1g contracted to 6s4p3d1f1g pattern {711111/2111/211/2/1}
 Group   2 Type C   : 12s5p4d2f1g contracted to 6s4p3d1f1g pattern {711111/2111/211/2/1}
 Group   3 Type O   : 12s5p4d2f1g contracted to 6s4p3d1f1g pattern {711111/2111/211/2/1}
 Group   4 Type H   : 5s2p1d contracted to 3s1p1d pattern {311/2/1}

Atom   0N    basis set group =>   1
Atom   1C    basis set group =>   2
Atom   2C    basis set group =>   2
Atom   3C    basis set group =>   2
Atom   4C    basis set group =>   2
Atom   5O    basis set group =>   3
Atom   6O    basis set group =>   3
Atom   7H    basis set group =>   4
Atom   8H    basis set group =>   4
Atom   9H    basis set group =>   4
Atom  10H    basis set group =>   4
Atom  11H    basis set group =>   4
Atom  12H    basis set group =>   4
Atom  13H    basis set group =>   4
Atom  14H    basis set group =>   4
Atom  15H    basis set group =>   4
--------------------------------------------------------------------------
WARNING: There was an error initializing an OpenFabrics device.

  Local host:   ga01
  Local device: mlx5_0
--------------------------------------------------------------------------


           ************************************************************
           *        Program running with 6 parallel MPI-processes     *
           *              working on a common directory               *
           ************************************************************
------------------------------------------------------------------------------
                             ORCA STARTUP CALCULATIONS
                           -- RI-GTO INTEGRALS CHOSEN --
------------------------------------------------------------------------------
------------------------------------------------------------------------------
                   ___                                                        
                  /   \      - P O W E R E D   B Y -                         
                 /     \                                                     
                 |  |  |   _    _      __       _____    __    __             
                 |  |  |  | |  | |    /  \     |  _  \  |  |  /  |          
                  \  \/   | |  | |   /    \    | | | |  |  | /  /          
                 / \  \   | |__| |  /  /\  \   | |_| |  |  |/  /          
                |  |  |   |  __  | /  /__\  \  |    /   |      \           
                |  |  |   | |  | | |   __   |  |    \   |  |\   \          
                \     /   | |  | | |  |  |  |  | |\  \  |  | \   \       
                 \___/    |_|  |_| |__|  |__|  |_| \__\ |__|  \__/        
                                                                              
                      - O R C A' S   B I G   F R I E N D -                    
                                      &                                       
                       - I N T E G R A L  F E E D E R -                       
                                                                              
 v1 FN, 2020, v2 2021, v3 2022-2024                                           
------------------------------------------------------------------------------


----------------------
SHARK INTEGRAL PACKAGE
----------------------

Number of atoms                             ...     16
Number of basis functions                   ...    271
Number of shells                            ...    113
Maximum angular momentum                    ...      3
Integral batch strategy                     ... SHARK/LIBINT Hybrid
RI-J (if used) integral strategy            ... SPLIT-RIJ (Revised 2003 algorithm where possible)
Printlevel                                  ...      1
Contraction scheme used                     ... SEGMENTED contraction
Prescreening option                         ... SCHWARTZ
   Thresh                                   ... 2.500e-11
   Tcut                                     ... 2.500e-12
   Tpresel                                  ... 2.500e-12 
Coulomb Range Separation                    ... NOT USED
Exchange Range Separation                   ... NOT USED
Multipole approximations                    ... NOT USED
Finite Nucleus Model                        ... NOT USED
CABS basis                                  ... NOT available
Auxiliary Coulomb fitting basis             ... AVAILABLE
   # of basis functions in Aux-J            ...    442
   # of shells in Aux-J                     ...    150
   Maximum angular momentum in Aux-J        ...      4
Auxiliary J/K fitting basis                 ... NOT available
Auxiliary Correlation fitting basis         ... NOT available
Auxiliary 'external' fitting basis          ... NOT available

Checking pre-screening integrals            ... done (  0.0 sec) Dimension = 113
Check shell pair data                       ... done (  0.0 sec)
Shell pair information
Shell pair cut-off parameter TPreSel        ...   2.5e-12
Total number of shell pairs                 ...      6441
Shell pairs after pre-screening             ...      5813
Total number of primitive shell pairs       ...     19096
Primitive shell pairs kept                  ...     13140
          la=0 lb=0:   1731 shell pairs
          la=1 lb=0:   1704 shell pairs
          la=1 lb=1:    436 shell pairs
          la=2 lb=0:    773 shell pairs
          la=2 lb=1:    388 shell pairs
          la=2 lb=2:     97 shell pairs
          la=3 lb=0:    381 shell pairs
          la=3 lb=1:    189 shell pairs
          la=3 lb=2:     88 shell pairs
          la=3 lb=3:     26 shell pairs

Calculating one electron integrals          ... done (  0.0 sec)
Calculating RI/J V-Matrix + Cholesky decomp.... done (  0.0 sec)
Calculating Nuclear repulsion               ... done (  0.0 sec) ENN=    308.359213824515 Eh

Diagonalization of the overlap matrix:
Smallest eigenvalue                        ... 2.001e-04
Time for diagonalization                   ...    0.006 sec
Threshold for overlap eigenvalues          ... 1.000e-07
Number of eigenvalues below threshold      ... 0
Time for construction of square roots      ...    0.003 sec
Total time needed                          ...    0.011 sec

-------------------
DFT GRID GENERATION
-------------------

General Integration Accuracy     IntAcc      ... 4.388
Radial Grid Type                 RadialGrid  ... OptM3 with GC (2021)
Angular Grid (max. ang.)         AngularGrid ... 4 (Lebedev-302)
Angular grid pruning method      GridPruning ... 4 (adaptive)
Weight generation scheme         WeightScheme... mBecke (2022)
Basis function cutoff            BFCut       ... 1.0000e-11
Integration weight cutoff        WCut        ... 1.0000e-14
Partially contracted basis set               ... off
Rotationally invariant grid construction     ... off
Angular grids for H and He will be reduced by one unit

Total number of grid points                  ...    71159
Total number of batches                      ...     1121
Average number of points per batch           ...       63
Average number of grid points per atom       ...     4447

--------------------
COSX GRID GENERATION
--------------------

GRIDX 1
-------
General Integration Accuracy     IntAcc      ... 3.816
Radial Grid Type                 RadialGrid  ... OptM3 with GC (2021)
Angular Grid (max. ang.)         AngularGrid ... 1 (Lebedev-50)
Angular grid pruning method      GridPruning ... 4 (adaptive)
Weight generation scheme         WeightScheme... mBecke (2022)
Basis function cutoff            BFCut       ... 1.0000e-11
Integration weight cutoff        WCut        ... 1.0000e-14
Partially contracted basis set               ... on
Rotationally invariant grid construction     ... off
Angular grids for H and He will be reduced by one unit

Total number of grid points                  ...     9081
Total number of batches                      ...       83
Average number of points per batch           ...      109
Average number of grid points per atom       ...      568
UseSFitting                                  ... on

GRIDX 2
-------
General Integration Accuracy     IntAcc      ... 4.020
Radial Grid Type                 RadialGrid  ... OptM3 with GC (2021)
Angular Grid (max. ang.)         AngularGrid ... 2 (Lebedev-110)
Angular grid pruning method      GridPruning ... 4 (adaptive)
Weight generation scheme         WeightScheme... mBecke (2022)
Basis function cutoff            BFCut       ... 1.0000e-11
Integration weight cutoff        WCut        ... 1.0000e-14
Partially contracted basis set               ... on
Rotationally invariant grid construction     ... off
Angular grids for H and He will be reduced by one unit

Total number of grid points                  ...    19466
Total number of batches                      ...      160
Average number of points per batch           ...      121
Average number of grid points per atom       ...     1217
UseSFitting                                  ... on

GRIDX 3
-------
General Integration Accuracy     IntAcc      ... 4.338
Radial Grid Type                 RadialGrid  ... OptM3 with GC (2021)
Angular Grid (max. ang.)         AngularGrid ... 3 (Lebedev-194)
Angular grid pruning method      GridPruning ... 4 (adaptive)
Weight generation scheme         WeightScheme... mBecke (2022)
Basis function cutoff            BFCut       ... 1.0000e-11
Integration weight cutoff        WCut        ... 1.0000e-14
Partially contracted basis set               ... on
Rotationally invariant grid construction     ... off
Angular grids for H and He will be reduced by one unit

Total number of grid points                  ...    42760
Total number of batches                      ...      344
Average number of points per batch           ...      124
Average number of grid points per atom       ...     2672
UseSFitting                                  ... on
Initializing property integral containers    ... done (  0.0 sec)

SHARK setup successfully completed in   0.7 seconds

Maximum memory used throughout the entire STARTUP-calculation: 25.6 MB
[ga01:1275821] 5 more processes have sent help message help-mpi-btl-openib.txt / error in device init
[ga01:1275821] Set MCA parameter "orte_base_help_aggregate" to 0 to see all help / error messages
--------------------------------------------------------------------------
WARNING: There was an error initializing an OpenFabrics device.

  Local host:   ga01
  Local device: mlx5_0
--------------------------------------------------------------------------


           ************************************************************
           *        Program running with 6 parallel MPI-processes     *
           *              working on a common directory               *
           ************************************************************
-------------------------------------------------------------------------------
                                 ORCA GUESS
                   Start orbitals & Density for SCF / CASSCF
-------------------------------------------------------------------------------

------------
SCF SETTINGS
------------
Hamiltonian:
 Density Functional     Method          .... DFT(GTOs)
 Exchange Functional    Exchange        .... B88
   X-Alpha parameter    XAlpha          ....  0.666667
   Becke's b parameter  XBeta           ....  0.004200
 Correlation Functional Correlation     .... LYP
 LDA part of GGA corr.  LDAOpt          .... VWN-5
 Gradients option       PostSCFGGA      .... off
 Hybrid DFT is turned on
   Fraction HF Exchange ScalHFX         ....  0.200000
   Scaling of DF-GGA-X  ScalDFX         ....  0.720000
   Scaling of DF-GGA-C  ScalDFC         ....  0.810000
   Scaling of DF-LDA-C  ScalLDAC        ....  1.000000
   Perturbative correction              ....  0.000000
   NL short-range parameter             ....  4.800000
 RI-approximation to the Coulomb term is turned on
   Number of AuxJ basis functions       .... 442
   RIJ-COSX (HFX calculated with COS-X)).... on


General Settings:
 Integral files         IntName         .... 03_Aminobutyric-acid_zwitterion
 Hartree-Fock type      HFTyp           .... RHF
 Total Charge           Charge          ....    0
 Multiplicity           Mult            ....    1
 Number of Electrons    NEL             ....   56
 Basis Dimension        Dim             ....  271
 Nuclear Repulsion      ENuc            ....    308.3592138245 Eh

Convergence Acceleration:
 AO-DIIS                CNVDIIS         .... on
   Start iteration      DIISMaxIt       ....    12
   Startup error        DIISStart       ....  0.200000
   # of expansion vecs  DIISMaxEq       ....     5
   Bias factor          DIISBfac        ....   1.050
   Max. coefficient     DIISMaxC        ....  10.000
 MO-DIIS                CNVKDIIS        .... off
 Trust-Rad. Augm. Hess. CNVTRAH         .... auto
   Auto Start mean grad. ratio tolernc. ....  1.125000
   Auto Start start iteration           ....    50
   Auto Start num. interpolation iter.  ....    10
   Max. Number of Micro iterations      ....    24
   Max. Number of Macro iterations      .... Maxiter - #DIIS iter
   Number of Davidson start vectors     ....     2
   Converg. threshold    (grad. norm)   ....   1.000e-05
   Grad. Scal. Fac. for Micro threshold ....   0.100
   Minimum threshold for Micro iter.    ....   1.000e-02
   NR start threshold (gradient norm)   ....   1.000e-04
   Initial trust radius                 ....   0.400
   Minimum AH scaling param. (alpha)    ....   1.000
   Maximum AH scaling param. (alpha)    .... 1000.000
   Quad. conv. algorithm                .... NR
   White noise on init. David. guess    .... on
   Maximum white noise                  ....   0.010
   Pseudo random numbers                .... off
   Inactive MOs                         .... canonical
   Orbital update algorithm             .... Taylor
   Preconditioner                       .... Diag
   Full preconditioner red. dimension   ....   250
 SOSCF                  CNVSOSCF        .... on
   Start iteration      SOSCFMaxIt      ....   150
   Startup grad/error   SOSCFStart      ....  0.003300
   Hessian update       SOSCFHessUp     .... L-BFGS
 Level Shifting         CNVShift        .... on
   Level shift para.    LevelShift      ....    0.2500
   Turn off err/grad.   ShiftErr        ....    0.0010
 Zerner damping         CNVZerner       .... off
 Static damping         CNVDamp         .... on
   Fraction old density DampFac         ....    0.7000
   Max. Damping (<1)    DampMax         ....    0.9800
   Min. Damping (>=0)   DampMin         ....    0.0000
   Turn off err/grad.   DampErr         ....    0.1000

SCF Procedure:
 Maximum # iterations   MaxIter         ....   125
 SCF integral mode      SCFMode         .... Direct
   Integral package                     .... SHARK and LIBINT hybrid scheme
 Reset frequency        DirectResetFreq ....    20
 Integral Threshold     Thresh          ....  2.500e-11 Eh
 Primitive CutOff       TCut            ....  2.500e-12 Eh

Convergence Tolerance:
 Convergence Check Mode ConvCheckMode   .... Total+1el-Energy
 Convergence forced     ConvForced      .... 0
 Energy Change          TolE            ....  1.000e-08 Eh
 1-El. energy change                    ....  1.000e-05 Eh
 Orbital Gradient       TolG            ....  1.000e-05
 Orbital Rotation angle TolX            ....  1.000e-05
 DIIS Error             TolErr          ....  5.000e-07

------------------------------
INITIAL GUESS: MODEL POTENTIAL
------------------------------
Loading Hartree-Fock densities                     ... done
Calculating cut-offs                               ... done
Initializing the effective Hamiltonian             ... done
Setting up the integral package (SHARK)            ... done
Starting the Coulomb interaction                   ... done (   0.0 sec)
Making the grid                                    ... done (   0.1 sec)
Mapping shells                                     ... done
Starting the XC term evaluation                    ... done (   0.0 sec)
  promolecular density results
     # of electrons  =     55.993623343
     EX              =    -46.171021743
     EC              =     -1.888555703
     EX+EC           =    -48.059577446
Transforming the Hamiltonian                       ... done (   0.0 sec)
Diagonalizing the Hamiltonian                      ... done (   0.0 sec)
Back transforming the eigenvectors                 ... done (   0.0 sec)
Now organizing SCF variables                       ... done
                      ------------------
                      INITIAL GUESS DONE (   0.2 sec)
                      ------------------
             **** ENERGY FILE WAS UPDATED (03_Aminobutyric-acid_zwitterion.en.tmp) ****
Finished Guess after   0.4 sec
Maximum memory used throughout the entire GUESS-calculation: 16.9 MB
[ga01:1275850] 5 more processes have sent help message help-mpi-btl-openib.txt / error in device init
[ga01:1275850] Set MCA parameter "orte_base_help_aggregate" to 0 to see all help / error messages
--------------------------------------------------------------------------
WARNING: There was an error initializing an OpenFabrics device.

  Local host:   ga01
  Local device: mlx5_0
--------------------------------------------------------------------------


           ************************************************************
           *        Program running with 6 parallel MPI-processes     *
           *              working on a common directory               *
           ************************************************************

-------------------------------------------------------------------------------------------
                                      ORCA LEAN-SCF
                              memory conserving SCF solver
-------------------------------------------------------------------------------------------

--------------------
CPCM SOLVATION MODEL
--------------------
CPCM parameters:
  Epsilon                                         ...      80.1510
  Refrac                                          ...       1.3328
  Rsolv                                           ...       1.3000
  Surface type                                    ... GAUSSIAN VDW
  Discretization scheme                           ... Constant charge density
    Threshold for H atoms                         ...       5.0000 (charges/Ang^2)
    Threshold for non-H atoms                     ...       5.0000 (charges/Ang^2)
  Epsilon function type                           ...         CPCM
Solvent:                                          ... WATER
Radii:
  Scheme                                          ... Element-dependent radii
  Radius for N  used is    3.5149 Bohr (=   1.8600 Ang.)
  Radius for C  used is    3.8550 Bohr (=   2.0400 Ang.)
  Radius for O  used is    3.4469 Bohr (=   1.8240 Ang.)
  Radius for H  used is    2.4944 Bohr (=   1.3200 Ang.)
Calculating surface                               ...        done! (  0.0s)
Cavity surface points                             ...         1377
Cavity Volume                                     ...     907.5240
Cavity Surface-area                               ...     548.8825
Calculating surface distance matrix               ...        done! (  0.0s)
Performing Cholesky decomposition & store         ...        done! (  0.0s)
Overall time for CPCM initialization              ...                 0.1s

----------------------------------------D-I-I-S--------------------------------------------
Iteration    Energy (Eh)           Delta-E    RMSDP     MaxDP     DIISErr   Damp  Time(sec)
-------------------------------------------------------------------------------------------
               ***  Starting incremental Fock matrix formation  ***
    1    -362.6811713227929204     0.00e+00  3.98e-03  3.92e-01  3.46e-01  0.700   1.3
    2    -362.8390404179168627    -1.58e-01  3.63e-03  3.96e-01  1.32e-01  0.700   0.8
                               ***Turning on AO-DIIS***
    3    -362.8933296878536794    -5.43e-02  1.18e-03  1.11e-01  3.84e-02  0.700   0.8
    4    -362.9275200731402720    -3.42e-02  1.07e-03  7.07e-02  1.60e-02  0.000   0.8
    5    -363.0053645989414690    -7.78e-02  9.11e-04  1.07e-01  8.73e-03  0.000   0.8
[ga01:1275906] 5 more processes have sent help message help-mpi-btl-openib.txt / error in device init
[ga01:1275906] Set MCA parameter "orte_base_help_aggregate" to 0 to see all help / error messages
                              *** Initializing SOSCF ***
---------------------------------------S-O-S-C-F--------------------------------------
Iteration    Energy (Eh)           Delta-E    RMSDP     MaxDP     MaxGrad    Time(sec)
--------------------------------------------------------------------------------------
    6    -363.0058164295212464    -4.52e-04  3.28e-04  3.84e-02  2.45e-03     0.8
               *** Restarting incremental Fock matrix formation ***
    7    -363.0058148667982323     1.56e-06  2.26e-04  2.69e-02  3.44e-04     1.3
    8    -363.0058102824556272     4.58e-06  3.76e-05  1.93e-03  6.83e-04     1.0
    9    -363.0058200552471135    -9.77e-06  3.93e-05  4.50e-03  7.84e-05     0.9
   10    -363.0058198666110911     1.89e-07  8.59e-06  8.67e-04  7.63e-05     0.9
   11    -363.0058203663058976    -5.00e-07  9.52e-06  1.10e-03  1.51e-05     0.9
   12    -363.0058203498786042     1.64e-08  4.81e-06  5.54e-04  2.03e-05     0.8
   13    -363.0058203745056744    -2.46e-08  3.97e-07  4.86e-05  6.02e-07     0.8
                  *** Gradient check signals convergence ***

               *****************************************************
               *                     SUCCESS                       *
               *           SCF CONVERGED AFTER  13 CYCLES          *
               *****************************************************

Recomputing exchange energy using gridx3       ... done (    1.757 sec)
Old exchange energy                            :     -9.388421385 Eh
New exchange energy                            :     -9.388439543 Eh
Exchange energy change after final integration :     -0.000018158 Eh
Total energy after final integration           :   -363.005838532 Eh
             **** ENERGY FILE WAS UPDATED (03_Aminobutyric-acid_zwitterion.en.tmp) ****

----------------
TOTAL SCF ENERGY
----------------

Total Energy       :       -363.00583853234690 Eh           -9877.89105 eV

Components:
Nuclear Repulsion  :        308.35921382451500 Eh            8390.88079 eV
Electronic Energy  :       -671.23498263456827 Eh          -18265.23246 eV
One Electron Energy:      -1106.01616484507235 Eh          -30096.22991 eV
Two Electron Energy:        434.78118221050408 Eh           11830.99744 eV
CPCM Dielectric    :         -0.13005156445236 Eh              -3.53888 eV

Virial components:
Potential Energy   :       -724.09021482294975 Eh          -19703.49645 eV
Kinetic Energy     :        361.08437629060285 Eh            9825.60540 eV
Virial Ratio       :          2.00532136632851

DFT components:
N(Alpha)           :       27.999928624061 electrons
N(Beta)            :       27.999928624061 electrons
N(Total)           :       55.999857248123 electrons
E(X)               :      -37.338756474564 Eh       
E(C)               :       -2.234454728154 Eh       
E(XC)              :      -39.573211202718 Eh       

CPCM Solvation Model Properties:
Surface-charge          :         -0.02199702687305
Corrected charge        :          0.00000000000000
Outlying charge corr.   :          0.00003731439329 Eh               0.00102 eV
Free-energy (cav+disp)  :  This term is not implemented in the current solvation scheme

---------------
SCF CONVERGENCE
---------------

  Last Energy change         ...    2.4627e-08  Tolerance :   1.0000e-08
  Last MAX-Density change    ...    4.8556e-05  Tolerance :   1.0000e-07
  Last RMS-Density change    ...    3.9681e-07  Tolerance :   5.0000e-09
  Last DIIS Error            ...    2.4497e-03  Tolerance :   5.0000e-07
  Last Orbital Gradient      ...    6.0166e-07  Tolerance :   1.0000e-05
  Last Orbital Rotation      ...    1.0181e-06  Tolerance :   1.0000e-05


----------------
ORBITAL ENERGIES
----------------

  NO   OCC          E(Eh)            E(eV) 
   0   2.0000     -19.058695      -518.6134 
   1   2.0000     -19.038807      -518.0723 
   2   2.0000     -14.432314      -392.7232 
   3   2.0000     -10.241954      -278.6977 
   4   2.0000     -10.223214      -278.1878 
   5   2.0000     -10.182776      -277.0874 
   6   2.0000     -10.166352      -276.6405 
   7   2.0000      -1.015246       -27.6262 
   8   2.0000      -0.994987       -27.0750 
   9   2.0000      -0.891412       -24.2566 
  10   2.0000      -0.788960       -21.4687 
  11   2.0000      -0.700964       -19.0742 
  12   2.0000      -0.620253       -16.8779 
  13   2.0000      -0.578013       -15.7285 
  14   2.0000      -0.560304       -15.2466 
  15   2.0000      -0.497718       -13.5436 
  16   2.0000      -0.495537       -13.4843 
  17   2.0000      -0.453770       -12.3477 
  18   2.0000      -0.421689       -11.4747 
  19   2.0000      -0.405480       -11.0337 
  20   2.0000      -0.400624       -10.9015 
  21   2.0000      -0.378250       -10.2927 
  22   2.0000      -0.358866        -9.7652 
  23   2.0000      -0.346240        -9.4217 
  24   2.0000      -0.336794        -9.1646 
  25   2.0000      -0.238646        -6.4939 
  26   2.0000      -0.235021        -6.3952 
  27   2.0000      -0.210781        -5.7356 
  28   0.0000       0.010398         0.2830 
  29   0.0000       0.037231         1.0131 
  30   0.0000       0.060776         1.6538 
  31   0.0000       0.066817         1.8182 
  32   0.0000       0.070930         1.9301 
  33   0.0000       0.093379         2.5410 
  34   0.0000       0.109286         2.9738 
  35   0.0000       0.117348         3.1932 
  36   0.0000       0.129538         3.5249 
  37   0.0000       0.132366         3.6019 
  38   0.0000       0.147999         4.0273 
*Only the first 10 virtual orbitals were printed.

                    ********************************
                    * MULLIKEN POPULATION ANALYSIS *
                    ********************************

-----------------------
MULLIKEN ATOMIC CHARGES
-----------------------
   0 N :   -0.249701
   1 C :   -0.169840
   2 C :   -0.199286
   3 C :   -0.149834
   4 C :    0.193591
   5 O :   -0.695195
   6 O :   -0.485723
   7 H :    0.337654
   8 H :    0.336106
   9 H :    0.152195
  10 H :    0.154497
  11 H :    0.120627
  12 H :    0.123141
  13 H :    0.107016
  14 H :    0.083114
  15 H :    0.341637
Sum of atomic charges:   -0.0000000

--------------------------------
MULLIKEN REDUCED ORBITAL CHARGES
--------------------------------
  0 N s       :     3.443574  s :     3.443574
      pz      :     1.223707  p :     3.756986
      px      :     1.263266
      py      :     1.270013
      dz2     :     0.011036  d :     0.046811
      dxz     :     0.006852
      dyz     :     0.015243
      dx2y2   :     0.011122
      dxy     :     0.002559
      f0      :     0.000477  f :     0.002329
      f+1     :     0.000382
      f-1     :     0.000405
      f+2     :     0.000364
      f-2     :     0.000204
      f+3     :     0.000469
      f-3     :     0.000028

  1 C s       :     3.261761  s :     3.261761
      pz      :     0.766920  p :     2.801094
      px      :     1.032234
      py      :     1.001940
      dz2     :     0.029423  d :     0.098749
      dxz     :     0.018741
      dyz     :     0.018175
      dx2y2   :     0.022910
      dxy     :     0.009501
      f0      :     0.001730  f :     0.008236
      f+1     :     0.001468
      f-1     :     0.001733
      f+2     :     0.001232
      f-2     :     0.000983
      f+3     :     0.000843
      f-3     :     0.000247

  2 C s       :     3.237082  s :     3.237082
      pz      :     0.900086  p :     2.866627
      px      :     1.010330
      py      :     0.956211
      dz2     :     0.022937  d :     0.089674
      dxz     :     0.014220
      dyz     :     0.023851
      dx2y2   :     0.022042
      dxy     :     0.006625
      f0      :     0.001185  f :     0.005903
      f+1     :     0.000913
      f-1     :     0.001323
      f+2     :     0.000916
      f-2     :     0.000619
      f+3     :     0.000731
      f-3     :     0.000216

  3 C s       :     3.177801  s :     3.177801
      pz      :     0.938945  p :     2.888988
      px      :     0.951977
      py      :     0.998067
      dz2     :     0.011582  d :     0.077375
      dxz     :     0.021389
      dyz     :     0.016037
      dx2y2   :     0.015666
      dxy     :     0.012700
      f0      :     0.001273  f :     0.005670
      f+1     :     0.000948
      f-1     :     0.000795
      f+2     :     0.000757
      f-2     :     0.000239
      f+3     :     0.000928
      f-3     :     0.000729

  4 C s       :     3.046911  s :     3.046911
      pz      :     0.770515  p :     2.529157
      px      :     0.983374
      py      :     0.775268
      dz2     :     0.053947  d :     0.205808
      dxz     :     0.034043
      dyz     :     0.029334
      dx2y2   :     0.045654
      dxy     :     0.042831
      f0      :     0.001627  f :     0.024533
      f+1     :     0.002888
      f-1     :     0.003200
      f+2     :     0.005020
      f-2     :     0.003079
      f+3     :     0.003141
      f-3     :     0.005577

  5 O s       :     3.806301  s :     3.806301
      pz      :     1.543475  p :     4.864546
      px      :     1.757407
      py      :     1.563664
      dz2     :     0.004368  d :     0.022975
      dxz     :     0.004151
      dyz     :     0.006274
      dx2y2   :     0.003413
      dxy     :     0.004768
      f0      :     0.000131  f :     0.001373
      f+1     :     0.000143
      f-1     :     0.000239
      f+2     :     0.000210
      f-2     :     0.000339
      f+3     :     0.000185
      f-3     :     0.000125

  6 O s       :     3.754205  s :     3.754205
      pz      :     1.528910  p :     4.702264
      px      :     1.663322
      py      :     1.510032
      dz2     :     0.005046  d :     0.027466
      dxz     :     0.004887
      dyz     :     0.005096
      dx2y2   :     0.006253
      dxy     :     0.006183
      f0      :     0.000107  f :     0.001788
      f+1     :     0.000240
      f-1     :     0.000260
      f+2     :     0.000256
      f-2     :     0.000324
      f+3     :     0.000302
      f-3     :     0.000299

  7 H s       :     0.630727  s :     0.630727
      pz      :     0.007134  p :     0.031619
      px      :     0.007183
      py      :     0.017302

  8 H s       :     0.632269  s :     0.632269
      pz      :     0.005561  p :     0.031626
      px      :     0.020585
      py      :     0.005480

  9 H s       :     0.827001  s :     0.827001
      pz      :     0.004078  p :     0.020804
      px      :     0.004597
      py      :     0.012129

 10 H s       :     0.823458  s :     0.823458
      pz      :     0.003339  p :     0.022045
      px      :     0.014718
      py      :     0.003987

 11 H s       :     0.858533  s :     0.858533
      pz      :     0.004395  p :     0.020840
      px      :     0.004884
      py      :     0.011560

 12 H s       :     0.855845  s :     0.855845
      pz      :     0.004022  p :     0.021014
      px      :     0.012987
      py      :     0.004004

 13 H s       :     0.872045  s :     0.872045
      pz      :     0.004950  p :     0.020938
      px      :     0.005205
      py      :     0.010783

 14 H s       :     0.895421  s :     0.895421
      pz      :     0.007923  p :     0.021465
      px      :     0.005395
      py      :     0.008147

 15 H s       :     0.626907  s :     0.626907
      pz      :     0.012455  p :     0.031456
      px      :     0.006464
      py      :     0.012538



                     *******************************
                     * LOEWDIN POPULATION ANALYSIS *
                     *******************************

----------------------
LOEWDIN ATOMIC CHARGES
----------------------
   0 N :    0.177357
   1 C :   -0.273005
   2 C :   -0.254603
   3 C :   -0.247010
   4 C :   -0.644088
   5 O :   -0.298167
   6 O :   -0.061480
   7 H :    0.238433
   8 H :    0.236999
   9 H :    0.151878
  10 H :    0.147357
  11 H :    0.145872
  12 H :    0.147118
  13 H :    0.149110
  14 H :    0.144922
  15 H :    0.239309

-------------------------------
LOEWDIN REDUCED ORBITAL CHARGES
-------------------------------
  0 N s       :     2.986084  s :     2.986084
      pz      :     1.229520  p :     3.666218
      px      :     1.219206
      py      :     1.217492
      dz2     :     0.039118  d :     0.160125
      dxz     :     0.026083
      dyz     :     0.048979
      dx2y2   :     0.036254
      dxy     :     0.009692
      f0      :     0.002225  f :     0.010215
      f+1     :     0.001951
      f-1     :     0.001497
      f+2     :     0.001192
      f-2     :     0.001839
      f+3     :     0.001211
      f-3     :     0.000300

  1 C s       :     2.804193  s :     2.804193
      pz      :     0.887379  p :     2.982660
      px      :     1.043179
      py      :     1.052102
      dz2     :     0.129631  d :     0.434395
      dxz     :     0.080097
      dyz     :     0.094284
      dx2y2   :     0.091052
      dxy     :     0.039331
      f0      :     0.010713  f :     0.051758
      f+1     :     0.010256
      f-1     :     0.009595
      f+2     :     0.006341
      f-2     :     0.008713
      f+3     :     0.004235
      f-3     :     0.001905

  2 C s       :     2.792715  s :     2.792715
      pz      :     1.002000  p :     3.041097
      px      :     1.020523
      py      :     1.018574
      dz2     :     0.102352  d :     0.383740
      dxz     :     0.060098
      dyz     :     0.097615
      dx2y2   :     0.090683
      dxy     :     0.032993
      f0      :     0.006808  f :     0.037052
      f+1     :     0.006601
      f-1     :     0.006705
      f+2     :     0.005062
      f-2     :     0.006177
      f+3     :     0.004039
      f-3     :     0.001660

  3 C s       :     2.792892  s :     2.792892
      pz      :     1.003419  p :     3.055343
      px      :     1.027039
      py      :     1.024885
      dz2     :     0.069273  d :     0.361994
      dxz     :     0.086455
      dyz     :     0.073445
      dx2y2   :     0.072745
      dxy     :     0.060075
      f0      :     0.006529  f :     0.036781
      f+1     :     0.006514
      f-1     :     0.004473
      f+2     :     0.005027
      f-2     :     0.004816
      f+3     :     0.005081
      f-3     :     0.004341

  4 C s       :     2.785565  s :     2.785565
      pz      :     0.830110  p :     2.734067
      px      :     1.025853
      py      :     0.878105
      dz2     :     0.183657  d :     0.968469
      dxz     :     0.165209
      dyz     :     0.165375
      dx2y2   :     0.250214
      dxy     :     0.204014
      f0      :     0.012467  f :     0.155988
      f+1     :     0.020627
      f-1     :     0.016510
      f+2     :     0.029462
      f-2     :     0.021125
      f+3     :     0.019823
      f-3     :     0.035975

  5 O s       :     3.500087  s :     3.500087
      pz      :     1.517158  p :     4.746585
      px      :     1.684990
      py      :     1.544437
      dz2     :     0.006657  d :     0.047747
      dxz     :     0.008973
      dyz     :     0.014781
      dx2y2   :     0.007422
      dxy     :     0.009914
      f0      :     0.000344  f :     0.003748
      f+1     :     0.000253
      f-1     :     0.000635
      f+2     :     0.000708
      f-2     :     0.001010
      f+3     :     0.000400
      f-3     :     0.000398

  6 O s       :     3.403818  s :     3.403818
      pz      :     1.482445  p :     4.585808
      px      :     1.600017
      py      :     1.503346
      dz2     :     0.009509  d :     0.065815
      dxz     :     0.010615
      dyz     :     0.014500
      dx2y2   :     0.014484
      dxy     :     0.016707
      f0      :     0.000522  f :     0.006039
      f+1     :     0.000503
      f-1     :     0.000735
      f+2     :     0.000890
      f-2     :     0.001404
      f+3     :     0.000910
      f-3     :     0.001075

  7 H s       :     0.667413  s :     0.667413
      pz      :     0.019461  p :     0.094154
      px      :     0.021858
      py      :     0.052835

  8 H s       :     0.668760  s :     0.668760
      pz      :     0.016078  p :     0.094241
      px      :     0.062517
      py      :     0.015646

  9 H s       :     0.790692  s :     0.790692
      pz      :     0.011405  p :     0.057430
      px      :     0.014459
      py      :     0.031567

 10 H s       :     0.791590  s :     0.791590
      pz      :     0.009628  p :     0.061053
      px      :     0.039430
      py      :     0.011996

 11 H s       :     0.797496  s :     0.797496
      pz      :     0.012723  p :     0.056632
      px      :     0.014612
      py      :     0.029296

 12 H s       :     0.796306  s :     0.796306
      pz      :     0.011658  p :     0.056576
      px      :     0.033249
      py      :     0.011668

 13 H s       :     0.794248  s :     0.794248
      pz      :     0.013227  p :     0.056643
      px      :     0.014306
      py      :     0.029111

 14 H s       :     0.799549  s :     0.799549
      pz      :     0.019296  p :     0.055529
      px      :     0.013849
      py      :     0.022384

 15 H s       :     0.666537  s :     0.666537
      pz      :     0.035591  p :     0.094154
      px      :     0.019313
      py      :     0.039250



                      *****************************
                      * MAYER POPULATION ANALYSIS *
                      *****************************

  NA   - Mulliken gross atomic population
  ZA   - Total nuclear charge
  QA   - Mulliken gross atomic charge
  VA   - Mayer's total valence
  BVA  - Mayer's bonded valence
  FA   - Mayer's free valence

  ATOM       NA         ZA         QA         VA         BVA        FA
  0 N      7.2497     7.0000    -0.2497     3.5093     3.5093    -0.0000
  1 C      6.1698     6.0000    -0.1698     3.8198     3.8198    -0.0000
  2 C      6.1993     6.0000    -0.1993     3.8769     3.8769     0.0000
  3 C      6.1498     6.0000    -0.1498     3.6041     3.6041    -0.0000
  4 C      5.8064     6.0000     0.1936     4.6180     4.6180    -0.0000
  5 O      8.6952     8.0000    -0.6952     1.7097     1.7097    -0.0000
  6 O      8.4857     8.0000    -0.4857     1.8826     1.8826     0.0000
  7 H      0.6623     1.0000     0.3377     0.8841     0.8841     0.0000
  8 H      0.6639     1.0000     0.3361     0.8857     0.8857    -0.0000
  9 H      0.8478     1.0000     0.1522     0.9663     0.9663    -0.0000
 10 H      0.8455     1.0000     0.1545     0.9959     0.9959    -0.0000
 11 H      0.8794     1.0000     0.1206     0.9707     0.9707    -0.0000
 12 H      0.8769     1.0000     0.1231     0.9627     0.9627     0.0000
 13 H      0.8930     1.0000     0.1070     0.9790     0.9790     0.0000
 14 H      0.9169     1.0000     0.0831     1.0085     1.0085    -0.0000
 15 H      0.6584     1.0000     0.3416     0.8786     0.8786    -0.0000

  Mayer bond orders larger than 0.100000
B(  0-N ,  1-C ) :   0.9057 B(  0-N ,  7-H ) :   0.8669 B(  0-N ,  8-H ) :   0.8665 
B(  0-N , 15-H ) :   0.8684 B(  1-C ,  2-C ) :   0.9782 B(  1-C ,  9-H ) :   0.9559 
B(  1-C , 10-H ) :   0.9495 B(  2-C ,  3-C ) :   0.9612 B(  2-C , 11-H ) :   0.9583 
B(  2-C , 12-H ) :   0.9557 B(  3-C ,  4-C ) :   0.9235 B(  3-C , 13-H ) :   0.9372 
B(  3-C , 14-H ) :   0.9541 B(  4-C ,  5-O ) :   1.7503 B(  4-C ,  6-O ) :   1.8949 


-------
TIMINGS
-------

Total SCF time: 0 days 0 hours 0 min 14 sec 

Total time                  ....      14.084 sec
Sum of individual times     ....      14.019 sec  ( 99.5%)

SCF preparation             ....       0.332 sec  (  2.4%)
Fock matrix formation       ....      13.264 sec  ( 94.2%)
  Startup                   ....       0.026 sec  (  0.2% of F)
  Split-RI-J                ....       0.940 sec  (  7.1% of F)
  Chain of spheres X        ....       8.898 sec  ( 67.1% of F)
  XC integration            ....       1.995 sec  ( 15.0% of F)
    XC Preparation          ....       0.000 sec  (  0.0% of XC)
    Basis function eval.    ....       0.569 sec  ( 28.5% of XC)
    Density eval.           ....       0.461 sec  ( 23.1% of XC)
    XC-Functional eval.     ....       0.090 sec  (  4.5% of XC)
    XC-Potential eval.      ....       0.727 sec  ( 36.4% of XC)
  CPCM terms                ....       1.328 sec  ( 10.0% of F)
Diagonalization             ....       0.000 sec  (  0.0%)
Density matrix formation    ....       0.054 sec  (  0.4%)
Total Energy calculation    ....       0.039 sec  (  0.3%)
Population analysis         ....       0.019 sec  (  0.1%)
Orbital Transformation      ....       0.034 sec  (  0.2%)
Orbital Orthonormalization  ....       0.000 sec  (  0.0%)
DIIS solution               ....       0.170 sec  (  1.2%)
SOSCF solution              ....       0.108 sec  (  0.8%)
Finished LeanSCF after  14.1 sec

Maximum memory used throughout the entire LEANSCF-calculation: 27.4 MB


-------------------------------------------------------------------------------
                          DFT DISPERSION CORRECTION                            
                                                                               
                                DFTD4 V3.4.0                                   
-------------------------------------------------------------------------------
The B3LYP functional is recognized
Active option DFTDOPT                   ...         5   

-------------------------   ----------------
Dispersion correction           -0.018179397
-------------------------   ----------------


-------------------------   --------------------
FINAL SINGLE POINT ENERGY      -363.024017929566
-------------------------   --------------------

--------------------------------------------------------------------------
WARNING: There was an error initializing an OpenFabrics device.

  Local host:   ga01
  Local device: mlx5_0
--------------------------------------------------------------------------


           ************************************************************
           *        Program running with 6 parallel MPI-processes     *
           *              working on a common directory               *
           ************************************************************
------------------------------------------------------------------------------
                         ORCA SCF GRADIENT CALCULATION
------------------------------------------------------------------------------

Nuc. rep. gradient        (SHARK) ... done (  0.0 sec)
HCore & Overlap gradient  (SHARK) ... done (  0.1 sec)
Split-RIJ-J gradient      (SHARK) ... done (  0.3 sec)
COSX-gradient                     ... [ga01:1276037] 5 more processes have sent help message help-mpi-btl-openib.txt / error in device init
[ga01:1276037] Set MCA parameter "orte_base_help_aggregate" to 0 to see all help / error messages
done (  5.5 sec)
XC gradient                       ... done (  0.8 sec)
CPCM gradient                     ... done (  0.4 sec)
Dispersion correction             ... done (  0.0 sec)

-------------------
DISPERSION GRADIENT
-------------------

   1   N   :   -0.000119274   -0.000080451    0.000470833
   2   C   :   -0.000160167   -0.000169651    0.000379613
   3   C   :   -0.000351824    0.000166275    0.000034347
   4   C   :   -0.000145398    0.000049473   -0.000396545
   5   C   :    0.000316121    0.000058483   -0.000376995
   6   O   :    0.000319921    0.000186235   -0.000332389
   7   O   :    0.000573832   -0.000220854   -0.000187825
   8   H   :    0.000003904    0.000056863    0.000139313
   9   H   :   -0.000098830   -0.000010802    0.000105466
  10   H   :   -0.000069642   -0.000101542    0.000125479
  11   H   :    0.000023560   -0.000044198    0.000134716
  12   H   :   -0.000054113    0.000130543    0.000028512
  13   H   :   -0.000126373    0.000050415   -0.000025507
  14   H   :   -0.000063459   -0.000059868   -0.000132611
  15   H   :   -0.000052359    0.000060718   -0.000119426
  16   H   :    0.000004101   -0.000071639    0.000153021

Difference to translation invariance:
           :   -0.0000000000   -0.0000000000   -0.0000000000

Difference to rotation invariance:
           :   -0.0000000000    0.0000000000    0.0000000000

Norm of the Dispersion gradient    ...    0.0013748896
RMS gradient                       ...    0.0001984482
MAX gradient                       ...    0.0005738321

------------------
CARTESIAN GRADIENT
------------------

   1   N   :    0.008229649   -0.000722465   -0.021796240
   2   C   :   -0.016697258    0.008239195    0.032779047
   3   C   :    0.005882624   -0.000927057   -0.004334183
   4   C   :    0.016072641   -0.009383924    0.009428731
   5   C   :   -0.041975200   -0.056483508    0.061247484
   6   O   :    0.042304991    0.029762892   -0.033096479
   7   O   :   -0.009260640    0.032270840   -0.028775949
   8   H   :    0.009999182    0.016618315    0.001802442
   9   H   :   -0.018105442   -0.001620476   -0.006255762
  10   H   :   -0.004541387   -0.011844460   -0.007749818
  11   H   :    0.014554474    0.000168896   -0.000254515
  12   H   :    0.004456871    0.009856180    0.001978985
  13   H   :   -0.010665199   -0.001894801   -0.001737124
  14   H   :   -0.004782837   -0.008827750   -0.003865679
  15   H   :   -0.003110258    0.010700640   -0.007294587
  16   H   :    0.007637787   -0.015912517    0.007923644

Difference to translation invariance:
           :    0.0000000000   -0.0000000000    0.0000000000

Difference to rotation invariance:
           :   -0.0004781353   -0.0004621158   -0.0010571389

Norm of the Cartesian gradient     ...    0.1377473211
RMS gradient                       ...    0.0198821132
MAX gradient                       ...    0.0612474841

-------
TIMINGS
-------

Total SCF gradient time     ....        7.133 sec

Densities                   ....       0.001 sec  (  0.0%)
One electron gradient       ....       0.055 sec  (  0.8%)
RI-J Coulomb gradient       ....       0.338 sec  (  4.7%)
COSX gradient               ....       5.484 sec  ( 76.9%)
XC gradient                 ....       0.796 sec  ( 11.2%)
CPCM gradient               ....       0.435 sec  (  6.1%)
   A-Matrix (El+Nuc)        ....       0.056 sec  (  0.8%)
   Potential                ....       0.379 sec  (  5.3%)

Maximum memory used throughout the entire SCFGRAD-calculation: 35.2 MB
------------------------------------------------------------------------------
                         ORCA GEOMETRY RELAXATION STEP
------------------------------------------------------------------------------

Reading the OPT-File                    .... done
Getting information on internals        .... done
Copying old internal coords+grads       .... done
Making the new internal coordinates     .... (2022 redundants) done
Validating the new internal coordinates .... (2022 redundants) done
Calculating the B-matrix                .... done
Calculating the G,G- and P matrices     .... done
Transforming gradient to internals      .... done
Projecting the internal gradient        .... done
Number of atoms                         ....  16
Number of internal coordinates          ....  65
Current Energy                          ....  -363.024017930 Eh
Current gradient norm                   ....     0.137747321 Eh/bohr
Maximum allowed component of the step   ....  0.300
Current trust radius                    ....  0.300
Evaluating the initial hessian          ....  (Almloef) done
Projecting the Hessian                  .... done
Forming the augmented Hessian           .... done
Diagonalizing the augmented Hessian     .... done
Last element of RFO vector              ....  0.974340843
Lowest eigenvalues of augmented Hessian:
 -0.017481998  0.010533878  0.010547795  0.012357038  0.012949656
Length of the computed step             ....  0.231004983
The final length of the internal step   ....  0.231004983
Converting the step to Cartesian space:
 Initial RMS(Int)=    0.0286526418
Transforming coordinates:
 Iter   0:  RMS(Cart)=    0.0350674741 RMS(Int)=    1.3478000856
 Iter   5:  RMS(Cart)=    0.0000000149 RMS(Int)=    0.0000000112
done
Storing new coordinates                 .... done

                                .--------------------.
          ----------------------|Geometry convergence|-------------------------
          Item                value                   Tolerance       Converged
          ---------------------------------------------------------------------
          RMS gradient        0.0118983057            0.0000300000      NO
          MAX gradient        0.0582167535            0.0001000000      NO
          RMS step            0.0286526418            0.0006000000      NO
          MAX step            0.0864800976            0.0010000000      NO
          ........................................................
          Max(Bonds)      0.0458      Max(Angles)    3.67
          Max(Dihed)        4.44      Max(Improp)    0.00
          ---------------------------------------------------------------------

The optimization has not yet converged - more geometry cycles are needed


    ---------------------------------------------------------------------------
                         Redundant Internal Coordinates
                            (Angstroem and degrees)

        Definition                    Value    dE/dq     Step     New-Value
    ----------------------------------------------------------------------------
     1. B(C   1,N   0)                1.4629 -0.019743  0.0234    1.4863   
     2. B(C   2,C   1)                1.5380  0.008214 -0.0114    1.5266   
     3. B(C   3,C   2)                1.5384  0.002343 -0.0033    1.5351   
     4. B(C   4,C   3)                1.5057 -0.008775  0.0109    1.5166   
     5. B(O   5,C   4)                1.3469  0.058217 -0.0458    1.3011   
     6. B(O   6,C   4)                1.2201 -0.040616  0.0202    1.2404   
     7. B(H   7,N   0)                1.0460  0.018782 -0.0251    1.0209   
     8. B(H   8,N   0)                1.0460  0.018331 -0.0245    1.0215   
     9. B(H   9,C   1)                1.1127  0.014340 -0.0218    1.0910   
    10. B(H  10,C   1)                1.1095  0.014456 -0.0217    1.0878   
    11. B(H  11,C   2)                1.1121  0.010924 -0.0165    1.0956   
    12. B(H  12,C   2)                1.1121  0.010617 -0.0161    1.0960   
    13. B(H  13,C   3)                1.1114  0.010660 -0.0161    1.0953   
    14. B(H  14,C   3)                1.1118  0.013061 -0.0198    1.0920   
    15. B(H  15,N   0)                1.0457  0.018408 -0.0245    1.0211   
    16. A(H   8,N   0,H  15)          108.81  0.005305   -0.82    107.99   
    17. A(H   7,N   0,H   8)          109.72  0.006013   -1.19    108.52   
    18. A(C   1,N   0,H   8)          110.19 -0.005514    0.95    111.14   
    19. A(C   1,N   0,H  15)          109.14 -0.006553    1.20    110.34   
    20. A(C   1,N   0,H   7)          110.09 -0.004289    0.71    110.80   
    21. A(H   7,N   0,H  15)          108.87  0.005215   -0.88    107.99   
    22. A(H   9,C   1,H  10)          108.55  0.001133   -0.14    108.42   
    23. A(C   2,C   1,H  10)          110.49 -0.002430    0.43    110.93   
    24. A(N   0,C   1,H  10)          108.52  0.001434   -0.27    108.26   
    25. A(C   2,C   1,H   9)          109.34 -0.002514    0.64    109.98   
    26. A(N   0,C   1,C   2)          110.78 -0.001430    0.18    110.96   
    27. A(N   0,C   1,H   9)          109.11  0.003971   -0.88    108.23   
    28. A(C   1,C   2,H  11)          109.94  0.000637   -0.25    109.70   
    29. A(C   3,C   2,H  12)          107.33 -0.003094    0.62    107.96   
    30. A(C   1,C   2,H  12)          107.91 -0.000363    0.26    108.17   
    31. A(C   3,C   2,H  11)          109.45 -0.001090    0.07    109.52   
    32. A(C   1,C   2,C   3)          113.92  0.001610   -0.23    113.69   
    33. A(H  11,C   2,H  12)          108.09  0.002311   -0.47    107.61   
    34. A(H  13,C   3,H  14)          107.80  0.001570   -0.14    107.67   
    35. A(C   2,C   3,C   4)          113.88 -0.000488    0.01    113.90   
    36. A(C   4,C   3,H  14)          107.97 -0.003111    0.76    108.73   
    37. A(C   2,C   3,H  14)          107.31  0.000111    0.30    107.61   
    38. A(C   4,C   3,H  13)          109.59  0.000693   -0.43    109.16   
    39. A(C   2,C   3,H  13)          110.07  0.001240   -0.47    109.60   
    40. A(O   5,C   4,O   6)          119.34 -0.029844    3.67    123.02   
    41. A(C   3,C   4,O   6)          120.86  0.010211   -1.06    119.80   
    42. A(C   3,C   4,O   5)          119.76  0.019557   -2.42    117.35   
    43. D(H   9,C   1,N   0,H   8)    -60.05  0.001350   -0.33    -60.37   
    44. D(H   9,C   1,N   0,H   7)    178.81  0.000219    0.08    178.89   
    45. D(H   9,C   1,N   0,H  15)     59.37  0.000462   -0.01     59.36   
    46. D(C   2,C   1,N   0,H  15)    179.79 -0.000990    0.32    180.11   
    47. D(C   2,C   1,N   0,H   7)    -60.77 -0.001233    0.42    -60.36   
    48. D(C   2,C   1,N   0,H   8)     60.37 -0.000101    0.01     60.38   
    49. D(C   3,C   2,C   1,N   0)   -176.69 -0.000870   -0.05   -176.75   
    50. D(H  11,C   2,C   1,H  10)    -60.26 -0.000360    0.15    -60.12   
    51. D(H  11,C   2,C   1,H   9)   -179.68  0.001311   -0.35   -180.03   
[...]
      dz2     :     0.039499  d :     0.150081
      dxz     :     0.024018
      dyz     :     0.040898
      dx2y2   :     0.036401
      dxy     :     0.009265
      f0      :     0.001560  f :     0.009493
      f+1     :     0.001884
      f-1     :     0.001585
      f+2     :     0.001041
      f-2     :     0.001687
      f+3     :     0.001375
      f-3     :     0.000359

  1 C s       :     2.800218  s :     2.800218
      pz      :     0.869640  p :     2.960520
      px      :     1.042704
      py      :     1.048176
      dz2     :     0.136020  d :     0.424649
      dxz     :     0.075195
      dyz     :     0.082129
      dx2y2   :     0.095322
      dxy     :     0.035982
      f0      :     0.009397  f :     0.049279
      f+1     :     0.009794
      f-1     :     0.009630
      f+2     :     0.006203
      f-2     :     0.008192
      f+3     :     0.004247
      f-3     :     0.001815

  2 C s       :     2.779639  s :     2.779639
      pz      :     1.006675  p :     3.054186
      px      :     1.023332
      py      :     1.024180
      dz2     :     0.105151  d :     0.393096
      dxz     :     0.065544
      dyz     :     0.092102
      dx2y2   :     0.099081
      dxy     :     0.031218
      f0      :     0.007227  f :     0.039445
      f+1     :     0.006805
      f-1     :     0.006554
      f+2     :     0.005837
      f-2     :     0.007111
      f+3     :     0.003989
      f-3     :     0.001923

  3 C s       :     2.791405  s :     2.791405
      pz      :     1.006366  p :     3.065574
      px      :     1.029114
      py      :     1.030094
      dz2     :     0.075901  d :     0.359873
      dxz     :     0.086328
      dyz     :     0.067133
      dx2y2   :     0.080692
      dxy     :     0.049819
      f0      :     0.005741  f :     0.035807
      f+1     :     0.006047
      f-1     :     0.004977
      f+2     :     0.004826
      f-2     :     0.005368
      f+3     :     0.004313
      f-3     :     0.004536

  4 C s       :     2.781489  s :     2.781489
      pz      :     0.895483  p :     2.736373
      px      :     0.999215
      py      :     0.841675
      dz2     :     0.251196  d :     1.006130
      dxz     :     0.208573
      dyz     :     0.186310
      dx2y2   :     0.202117
      dxy     :     0.157934
      f0      :     0.020438  f :     0.157482
      f+1     :     0.023302
      f-1     :     0.023605
      f+2     :     0.034377
      f-2     :     0.019874
      f+3     :     0.013839
      f-3     :     0.022048

  5 O s       :     3.429882  s :     3.429882
      pz      :     1.526420  p :     4.640578
      px      :     1.627362
      py      :     1.486796
      dz2     :     0.010847  d :     0.059345
      dxz     :     0.012648
      dyz     :     0.015456
      dx2y2   :     0.008698
      dxy     :     0.011695
      f0      :     0.000577  f :     0.005180
      f+1     :     0.000557
      f-1     :     0.000914
      f+2     :     0.000872
      f-2     :     0.001307
      f+3     :     0.000423
      f-3     :     0.000530

  6 O s       :     3.433329  s :     3.433329
      pz      :     1.497581  p :     4.652717
      px      :     1.644971
      py      :     1.510165
      dz2     :     0.013073  d :     0.058890
      dxz     :     0.014905
      dyz     :     0.016445
      dx2y2   :     0.007009
      dxy     :     0.007458
      f0      :     0.000653  f :     0.005163
      f+1     :     0.000762
      f-1     :     0.001143
      f+2     :     0.000960
      f-2     :     0.001119
      f+3     :     0.000233
      f-3     :     0.000293

  7 H s       :     0.676370  s :     0.676370
      pz      :     0.020051  p :     0.100338
      px      :     0.022864
      py      :     0.057423

  8 H s       :     0.676575  s :     0.676575
      pz      :     0.017906  p :     0.100280
      px      :     0.064411
      py      :     0.017963

  9 H s       :     0.792603  s :     0.792603
      pz      :     0.010624  p :     0.060983
      px      :     0.015719
      py      :     0.034641

 10 H s       :     0.793249  s :     0.793249
      pz      :     0.010045  p :     0.062698
      px      :     0.039565
      py      :     0.013088

 11 H s       :     0.800313  s :     0.800313
      pz      :     0.013276  p :     0.060021
      px      :     0.015712
      py      :     0.031034

 12 H s       :     0.800234  s :     0.800234
      pz      :     0.012643  p :     0.059074
      px      :     0.033625
      py      :     0.012805

 13 H s       :     0.801376  s :     0.801376
      pz      :     0.013437  p :     0.059466
      px      :     0.014470
      py      :     0.031560

 14 H s       :     0.792680  s :     0.792680
      pz      :     0.022796  p :     0.059723
      px      :     0.017000
      py      :     0.019927

 15 H s       :     0.675506  s :     0.675506
      pz      :     0.042583  p :     0.100477
      px      :     0.022183
      py      :     0.035711



                      *****************************
                      * MAYER POPULATION ANALYSIS *
                      *****************************

  NA   - Mulliken gross atomic population
  ZA   - Total nuclear charge
  QA   - Mulliken gross atomic charge
  VA   - Mayer's total valence
  BVA  - Mayer's bonded valence
  FA   - Mayer's free valence

  ATOM       NA         ZA         QA         VA         BVA        FA
  0 N      7.2534     7.0000    -0.2534     3.5281     3.5281     0.0000
  1 C      6.1622     6.0000    -0.1622     3.8038     3.8038     0.0000
  2 C      6.1114     6.0000    -0.1114     3.7764     3.7764    -0.0000
  3 C      6.2596     6.0000    -0.2596     3.6890     3.6890    -0.0000
  4 C      5.7688     6.0000     0.2312     4.5958     4.5958    -0.0000
  5 O      8.5723     8.0000    -0.5723     1.8205     1.8205     0.0000
  6 O      8.5800     8.0000    -0.5800     1.8282     1.8282     0.0000
  7 H      0.6738     1.0000     0.3262     0.8939     0.8939     0.0000
  8 H      0.6736     1.0000     0.3264     0.8936     0.8936     0.0000
  9 H      0.8444     1.0000     0.1556     0.9623     0.9623     0.0000
 10 H      0.8461     1.0000     0.1539     0.9892     0.9892    -0.0000
 11 H      0.9091     1.0000     0.0909     1.0092     1.0092    -0.0000
 12 H      0.8842     1.0000     0.1158     0.9654     0.9654    -0.0000
 13 H      0.9070     1.0000     0.0930     0.9959     0.9959     0.0000
 14 H      0.8851     1.0000     0.1149     0.9742     0.9742    -0.0000
 15 H      0.6690     1.0000     0.3310     0.8884     0.8884     0.0000

  Mayer bond orders larger than 0.100000
B(  0-N ,  1-C ) :   0.8868 B(  0-N ,  7-H ) :   0.8781 B(  0-N ,  8-H ) :   0.8778 
B(  0-N , 15-H ) :   0.8779 B(  1-C ,  2-C ) :   0.9699 B(  1-C ,  9-H ) :   0.9551 
B(  1-C , 10-H ) :   0.9603 B(  2-C ,  3-C ) :   0.9443 B(  2-C , 11-H ) :   0.9557 
B(  2-C , 12-H ) :   0.9534 B(  3-C ,  4-C ) :   0.9402 B(  3-C , 13-H ) :   0.9584 
B(  3-C , 14-H ) :   0.9461 B(  4-C ,  5-O ) :   1.8028 B(  4-C ,  6-O ) :   1.8368 


-------
TIMINGS
-------

Total SCF time: 0 days 0 hours 0 min 5 sec 

Total time                  ....       5.767 sec
Sum of individual times     ....       5.732 sec  ( 99.4%)

SCF preparation             ....       0.382 sec  (  6.6%)
Fock matrix formation       ....       5.054 sec  ( 87.6%)
  Startup                   ....       0.008 sec  (  0.2% of F)
  Split-RI-J                ....       0.216 sec  (  4.3% of F)
  Chain of spheres X        ....       4.015 sec  ( 79.4% of F)
  XC integration            ....       0.473 sec  (  9.4% of F)
    XC Preparation          ....       0.000 sec  (  0.0% of XC)
    Basis function eval.    ....       0.125 sec  ( 26.4% of XC)
    Density eval.           ....       0.110 sec  ( 23.3% of XC)
    XC-Functional eval.     ....       0.020 sec  (  4.3% of XC)
    XC-Potential eval.      ....       0.191 sec  ( 40.3% of XC)
  CPCM terms                ....       0.326 sec  (  6.4% of F)
Diagonalization             ....       0.000 sec  (  0.0%)
Density matrix formation    ....       0.011 sec  (  0.2%)
Total Energy calculation    ....       0.011 sec  (  0.2%)
Population analysis         ....       0.193 sec  (  3.3%)
Orbital Transformation      ....       0.016 sec  (  0.3%)
Orbital Orthonormalization  ....       0.000 sec  (  0.0%)
DIIS solution               ....       0.023 sec  (  0.4%)
SOSCF solution              ....       0.043 sec  (  0.7%)
Finished LeanSCF after   6.0 sec

Maximum memory used throughout the entire LEANSCF-calculation: 33.6 MB


-------------------------------------------------------------------------------
                          DFT DISPERSION CORRECTION                            
                                                                               
                                DFTD4 V3.4.0                                   
-------------------------------------------------------------------------------
The B3LYP functional is recognized
Active option DFTDOPT                   ...         5   

-------------------------   ----------------
Dispersion correction           -0.018241332
-------------------------   ----------------


-------------------------   --------------------
FINAL SINGLE POINT ENERGY      -363.040724073781
-------------------------   --------------------

                                *** OPTIMIZATION RUN DONE ***

--------------------------------------------------------------------------
WARNING: There was an error initializing an OpenFabrics device.

  Local host:   ga01
  Local device: mlx5_0
--------------------------------------------------------------------------


           ************************************************************
           *        Program running with 6 parallel MPI-processes     *
           *              working on a common directory               *
           ************************************************************

------------------------------------------------------------------------------
                              ORCA PROPERTY CALCULATIONS
------------------------------------------------------------------------------

GBWName                                 ... 03_Aminobutyric-acid_zwitterion.gbw
Number of atoms                         ...     16
Number of basis functions               ...    271
Max core memory                         ...   5000 MB

Electric properties:
Dipole moment                           ... YES
Quadrupole moment                       ...  NO
Static polarizability (Dipole/Dipole)   ...  NO
Static polarizability (Dipole/Quad.)    ...  NO
Static polarizability (Quad./Quad.)     ...  NO
Static polarizability (Velocity)        ...  NO

Atomic electric properties:
Dipole moment                           ...  NO
Quadrupole moment                       ...  NO
Static polarizability                   ...  NO

Choice of electric origin               ... Center of mass
Position of electric origin             ...     4.480343     0.685878    -3.445194

General magnetic properties:
Magnetizability                         ...  NO

EPR properties:
g-Tensor (aka g-matrix)                 ...  NO
Zero-Field splitting spin-orbit         ...  NO
Zero-field splitting spin-spin          ...  NO
Hyperfine couplings                     ...  NO (   0 nuclei)
Quadrupole couplings                    ...  NO (   0 nuclei)
Contact density                         ...  NO (   0 nuclei)

NMR properties:
Chemical shifts                         ...  NO (   0 nuclei)
Spin-rotation constants                 ...  NO (   0 nuclei)
Spin-spin couplings                     ...  NO (   0 nuclei,    0 pairs)

Choice of magnetic origin               ... GIAO
Position of magnetic origin             ...     0.000000     0.000000     0.000000

Properties with geometric perturbations:
SCF Hessian                             ...  NO
IR spectrum                             ...  NO
VCD spectrum                            ...  NO
X-ray spectroscopy properties:
SCF XES/XAS/RIXS spectra                ...  NO


-------------
DIPOLE MOMENT
-------------

Method             : SCF
Type of density    : Electron Density
Multiplicity       :   1
Irrep              :   0
Energy             :  -363.0224827417177380 Eh
Relativity type    : 
Basis              : AO
                                X                 Y                 Z
Electronic contribution:      3.773897759       0.326246613      -1.803416591
Nuclear contribution   :     -9.386877148      -0.803756208       8.985157681
                        -----------------------------------------
Total Dipole Moment    :     -5.612979389      -0.477509595       7.181741090
                        -----------------------------------------
Magnitude (a.u.)       :      9.127483668
Magnitude (Debye)      :     23.200219733



--------------------
Rotational spectrum 
--------------------
 
Rotational constants in cm-1:             0.197695             0.042759             0.039628 
Rotational constants in MHz :          5926.755205          1281.884686          1188.030563 

Dipole components along the rotational axes: 
x,y,z [a.u.] :     9.083499    -0.890943    -0.085032 
x,y,z [Debye]:    23.088419    -2.264596    -0.216135 

 

Dipole moment calculation done in   0.1 sec 

Maximum memory used throughout the entire PROP-calculation: 20.4 MB
[ga01:1293989] 5 more processes have sent help message help-mpi-btl-openib.txt / error in device init
[ga01:1293989] Set MCA parameter "orte_base_help_aggregate" to 0 to see all help / error messages
--------------------------------------------------------------------------
WARNING: There was an error initializing an OpenFabrics device.

  Local host:   ga01
  Local device: mlx5_0
--------------------------------------------------------------------------
[ga01:1294017] 5 more processes have sent help message help-mpi-btl-openib.txt / error in device init
[ga01:1294017] Set MCA parameter "orte_base_help_aggregate" to 0 to see all help / error messages

--------------------------------
SUGGESTED CITATIONS FOR THIS RUN
--------------------------------

Below you find a list of papers that are relevant to this ORCA run
We neither can nor want to force you to cite these papers, but we appreciate if you do
You receive ORCA, which is the product of decades of hard work by many enthusiastic individuals, for free
The only thing we kindly ask in return is that you cite our papers,
We deeply appreciate it, if you show your appreciation for ORCA by not just citing the generic ORCA reference.

Please note that relegating all ORCA citations to the supporting information does *not* help us.
SI sections are not indexed - citations you put there will not count into any citation statistics
But we need these citations in order to attract the funding resources that allow us to do what we are doing

Therefore, if you are a happy ORCA user, please consider citing a few of the papers listed below in the main body of your paper

In addition to the list printed below, the program has created the file 03_Aminobutyric-acid_zwitterion.bibtex that contains the list in bibtex format
You can import this file easily into all common literature databanks and citation aid programs


List of essential papers. We consider these as the minimum necessary citations

  1. Neese,F.
     Software update: the ORCA program system, version 5.0
     WIRES Comput. Molec. Sci., 2022 12(1)e1606
     doi.org/10.1002/wcms.1606

List of papers to cite with high priority. The work reported in these papers was absolutely
necessary for this run to complete.
Our perspective: the developers of density functionals and basis sets usually get cited in chemistry papers
Good! But without the algorithms to do something with them, the functionals or basis sets would not do anything.
Hence, in our opinion, the algorithm design and method developments papers are equally worthy of getting cited

  1. Neese,F.
     An improvement of the resolution of the identity approximation for the formation of the Coulomb matrix
     J. Comp. Chem., 2003 24(14)1740-1747
     doi.org/10.1002/jcc.10318
  2. Neese,F.; Wennmohs,F.; Hansen,A.; Becker,U.
     Efficient, approximate and parallel Hartree-Fock and hybrid DFT calculations. A 'chain-of-spheres' algorithm for the Hartree-Fock exchange
     Chem. Phys., 2009 356(1-3)98-109
     doi.org/10.1016/j.chemphys.2008.10.036
  3. Garcia-Rates,M.; Neese,F.
     Effect of the Solute Cavity on the Solvation Energy and its Derivatives within the Framework of the Gaussian Charge Scheme
     J. Comput. Chem., 2020 41 922-939
     doi.org/10.1002/jcc.26139
  4. Helmich-Paris,B.; de Souza,B.; Neese,F.; Izsák,R.
     An improved chain of spheres for exchange algorithm
     J. Chem. Phys., 2021 155 104109
     doi.org/doi: 10.1063/5.0058766.
  5. Neese,F.
     The SHARK Integral Generation and Digestion System
     J. Comp. Chem., 2022  1-16
     doi.org/10.1002/jcc.26942
  6. Caldeweyher,E.; Bannwarth,C.; Grimme,S.
     Extension of the D3 dispersion coefficient model
     J. Chem. Phys., 2017 147 034112
     doi.org/10.1063/1.4993215
  7. Caldeweyher,E.; Ehlert,S.; Hansen,A.; Neugebauer,H.; Spicher,S.; Bannwarth,C.; Grimme,S.
     A generally applicable atomic-charge dependent London dispersion correction
     J. Chem. Phys., 2019 150 154122
     doi.org/10.1063/1.5090222
  8. Caldeweyher,E.; Mewes,J.; Ehlert,S.; Grimme,S.
     Extension and evaluation of the D4 London-dispersion model for periodic systems
     Phys. Chem. Chem. Phys., 2020 22(16)8499-8512
     doi.org/10.1039/D0CP00502A
  9. Wittmann,L.; Gordiy,I.; Friede,M.; Helmich-Paris,B.; Grimme,S.; Hansen,A.; Bursch,M.
     Extension of the D3 and D4 London Dispersion Corrections to the full Actinides Series
     Phys. Chem. Chem. Phys., 2024 26(32)21379-21394
     doi.org/https://doi.org/10.1039/D4CP01514B 

List of suggested additional citations. These are papers that are important in the 'surrounding' of 
of this run, or papers that preceded the highly important papers. If you like your results we are grateful for a citation.

  1. Izsak,R.; Neese,F.
     An overlap fitted chain of spheres exchange method
     J. Chem. Phys., 2011 135 144105
     doi.org/10.1063/1.3646921
  2. Izsak,R.; Hansen,A.; Neese,F.
     The resolution of identity and chain of spheres approximations for the LPNO-CCSD singles Fock term
     Molec. Phys., 2012 110 2413-2417
     doi.org/10.1080/00268976.2012.687466
  3. Neese,F.
     The ORCA program system
     WIRES Comput. Molec. Sci., 2012 2(1)73-78
     doi.org/10.1002/wcms.81
  4. Izsak,R.; Neese,F.; Klopper,W.
     Robust fitting techniques in the chain of spheres approximation to the Fock exchange: The role of the complementary space
     J. Chem. Phys., 2013 139 
     doi.org/10.1063/1.4819264
  5. Neese,F.
     Software update: the ORCA program system, version 4.0
     WIRES Comput. Molec. Sci., 2018 8(1)1-6
     doi.org/10.1002/wcms.1327
  6. Neese,F.; Wennmohs,F.; Becker,U.; Riplinger,C.
     The ORCA quantum chemistry program package
     J. Chem. Phys., 2020 152 Art. No. L224108
     doi.org/10.1063/5.0004608

List of optional additional citations

  1. Neese,F.
     Approximate second-order SCF convergence for spin unrestricted wavefunctions
     Chem. Phys. Lett., 2000 325(1-3)93-98
     doi.org/10.1016/s0009-2614(00)00662-x

Timings for individual modules:

Sum of individual times          ...      964.593 sec (=  16.077 min)
Startup calculation              ...       50.133 sec (=   0.836 min)   5.2 %
SCF iterations                   ...      555.126 sec (=   9.252 min)  57.6 %
Property calculations            ...        0.453 sec (=   0.008 min)   0.0 %
SCF Gradient evaluation          ...      358.690 sec (=   5.978 min)  37.2 %
Geometry relaxation              ...        0.191 sec (=   0.003 min)   0.0 %
                             ****ORCA TERMINATED NORMALLY****
TOTAL RUN TIME: 0 days 0 hours 16 minutes 25 seconds 62 msec
