
                                 *****************
                                 * O   R   C   A *
                                 *****************

                                            #,                                       
                                            ###                                      
                                            ####                                     
                                            #####                                    
                                            ######                                   
                                           ########,                                 
                                     ,,################,,,,,                         
                               ,,#################################,,                 
                          ,,##########################################,,             
                       ,#########################################, ''#####,          
                    ,#############################################,,   '####,        
                  ,##################################################,,,,####,       
                ,###########''''           ''''###############################       
              ,#####''   ,,,,##########,,,,          '''####'''          '####       
            ,##' ,,,,###########################,,,                        '##       
           ' ,,###''''                  '''############,,,                           
         ,,##''                                '''############,,,,        ,,,,,,###''
      ,#''                                            '''#######################'''  
     '                                                          ''''####''''         
             ,#######,   #######,   ,#######,      ##                                
            ,#'     '#,  ##    ##  ,#'     '#,    #''#        ,####,   ,####,        
            ##       ##  ##   ,#'  ##            #'  '#       #'       #'  '#        
            ##       ##  #######   ##           ,######,      #####,   #    #        
            '#,     ,#'  ##    ##  '#,     ,#' ,#      #,     #,   #   #,  ,#        
             '#######'   ##     ##  '#######'  #'      '#     '####' # '####'        



                #########################################################
                #                        -***-                          #
                #          Department of theory and spectroscopy        #
                #                                                       #
                #                      Frank Neese                      #
                #                                                       #
                #     Directorship, Architecture, Infrastructure        #
                #                    SHARK, DRIVERS                     #
                #        Core code/Algorithms in most modules           #
                #                                                       #
                #        Max Planck Institute fuer Kohlenforschung      #
                #                Kaiser Wilhelm Platz 1                 #
                #                 D-45470 Muelheim/Ruhr                 #
                #                      Germany                          #
                #                                                       #
                #                  All rights reserved                  #
                #                        -***-                          #
                #########################################################


                         Program Version 6.0.1  -  RELEASE   -


 With contributions from (in alphabetic order):
[Max-Planck-Institut fuer Kohlenforschung]                               
  Daniel Aravena         : Magnetic Suceptibility                        
  Michael Atanasov       : Ab Initio Ligand Field Theory (pilot matlab implementation)
  Alexander A. Auer      : GIAO ZORA, VPT2 properties, NMR spectrum      
  Ute Becker             : All parallelization in ORCA, NUMFREQ, NUMCALC 
  Giovanni Bistoni       : ED, misc. LED, open-shell LED, HFLD           
  Martin Brehm           : Molecular dynamics                            
  Dmytro Bykov           : pre 5.0 version of the SCF Hessian            
  Marcos Casanova-Páez   : Triplet and SCS-CIS(D). UHF-(DLPNO)-IP/EA/STEOM-CCSD. UHF-CVS-IP/STEOM-CCSD   
  Vijay G. Chilkuri      : MRCI spin determinant printing, contributions to CSF-ICE 
  Pauline Colinet        : FMM embedding                                 
  Dipayan Datta          : RHF DLPNO-CCSD density                        
  Achintya Kumar Dutta   : EOM-CC, STEOM-CC                              
  Nicolas Foglia         : Exact transition moments, OPA infrastructure, MCD improvements    
  Dmitry Ganyushin       : Spin-Orbit,Spin-Spin,Magnetic field MRCI      
  Miquel Garcia-Rates    : C-PCM and meta-GGA Hessian, CCSD/C-PCM, Gaussian charge scheme 
  Tiago L. C. Gouveia    : GS-ROHF, GS-ROCIS                             
  Yang Guo               : DLPNO-NEVPT2, F12-NEVPT2, CIM, IAO-localization        
  Andreas Hansen         : Spin unrestricted coupled pair/coupled cluster methods 
  Ingolf Harden          : AUTO-CI MPn and infrastructure                
  Benjamin Helmich-Paris : MC-RPA, TRAH-(SCF,CASSCF), AVAS, COSX integrals, SCF dyn. polar. 
  Lee Huntington         : MR-EOM, pCC                                   
  Robert Izsak           : Overlap fitted RIJCOSX, COSX-SCS-MP3, EOM     
  Riya Kayal             : Wick's Theorem for AUTO-CI, AUTO-CI UHF-CCSDT 
  Emily Kempfer          : AUTO-CI, RHF CISDT and CCSDT                  
  Christian Kollmar      : KDIIS, OOCD, Brueckner-CCSD(T), CCSD density, CASPT2, CASPT2-K, improved NEVPT2 
  Axel Koslowski         : Symmetry handling                             
  Simone Kossmann        : meta-GGA functionals, TD-DFT gradient, OOMP2, (MP2 Hessian; deprecated post 5.0) 
  Lucas Lang             : DCDCAS                                        
  Marvin Lechner         : AUTO-CI (C++ implementation), FIC-MRCC        
  Spencer Leger          : CASSCF response                               
  Dagmar Lenk            : GEPOL surface, SMD, ORCA-2-JSON               
  Dimitrios Liakos       : Extrapolation schemes; Compound Job, initial MDCI parallelization 
  Dimitrios Manganas     : Further ROCIS development; embedding schemes. LFT, Crystal Embedding 
  Dimitrios Pantazis     : SARC Basis sets                               
  Anastasios Papadopoulos: AUTO-CI, single reference methods and gradients 
  Taras Petrenko         : pre 6.0 DFT Hessian and TD-DFT gradient, (ASA, deprecated), ECA, 1-Electron XAS/XES, NRVS 
  Peter Pinski           : DLPNO-MP2, DLPNO-MP2 Gradient                 
  Christoph Reimann      : Effective Core Potentials                     
  Marius Retegan         : Local ZFS, SOC                                
  Christoph Riplinger    : Optimizer, TS searches, QM/MM, DLPNO-CCSD(T), (RO)-DLPNO pert. Triples 
  Michael Roemelt        : Original ROCIS implementation                 
  Masaaki Saitow         : Open-shell DLPNO-CCSD energy and density      
  Barbara Sandhoefer     : DKH picture change effects                    
  Kantharuban Sivalingam : CASSCF convergence/infrastructure, NEVPT2 and variants, FIC-MRCI 
  Bernardo de Souza      : ESD, SOC TD-DFT                               
  Georgi L. Stoychev     : AutoAux, RI-MP2 NMR, DLPNO-MP2 response, X2C  
  Van Anh Tran           : RI-MP2 g-tensors                              
  Willem Van den Heuvel  : Paramagnetic NMR                              
  Zikuan Wang            : NOTCH, Electric field optimization            
  Frank Wennmohs         : Technical directorship and infrastructure     
  Hang Xu                : AUTO-CI-Response properties                   
                                                                         
[FACCTs GmbH]                                                            
  Markus Bursch, Miquel Garcia-Rates, Christoph Riplinger, Bernardo de Souza, Georgi L. Stoychev 
                                                                 
  APM, Basis sets (HGBS, AHGBS, def-TZVP (Ac-Lr), def2-XVPD (La-Lu)), CI-OPT, improved COSX, DLPNO-Multilevel,           
  DOCKER, DRACO, updates on ESD, GOAT, IRC, LR-CPCM, MBIS, meta-GGA TD-DFT gradient, ML-optimized integration grids, 
  MM, NACMEs, nearIR, NEB, NEB-TS, NL-DFT gradient (VV10), 2- and 3-layer-ONIOM, interface openCOSMO-RS, QMMM,   
  Crystal-QMMM, SF, symmetry and pop. for TD-DFT, r2SCAN hybrids, SOLVATOR                                   
                                                                         
[Other institutions]                                                     
  V. Asgeirsson          : NEB                                           
  Christoph Bannwarth    : sTDA-DFT, sTD-DFT, PBEh-3c, B97-3c, D3        
  Sebastian Ehlert       : rSCAN, r2SCAN, r2SCAN-3c, D4, dhf basis sets  
  Marvin Friede          : D4 for Fr, Ra, Ac-Lr                          
  Lars Goerigk           : TD-DFT with DH, B97 family of functionals     
  Stefan Grimme          : VdW corrections, initial TS optimization, DFT functionals, gCP, sTDA/sTD-DF 
  Waldemar Hujo          : DFT-NL                                        
  H. Jonsson             : NEB                                           
  Holger Kruse           : gCP                                           
  Marcel Mueller         : wB97X-3c, vDZP basis set                      
  Hagen Neugebauer       : wr2SCAN                                       
  Tobias Risthaus        : range-separated hybrid DFT                    
  Lukas Wittmann         : regularized MP2, r2SCAN double-hybrids, wr2SCAN        
                                                                         
We gratefully acknowledge several colleagues who have allowed us to      
interface, adapt or use parts of their codes:                            
  Ed Valeev, F. Pavosevic, A. Kumar             : LibInt (2-el integral package), F12 methods 
  Garnet Chan, S. Sharma, J. Yang, R. Olivares  : DMRG                   
  Ulf Ekstrom                                   : XCFun DFT Library      
  Mihaly Kallay                                 : mrcc  (arbitrary order and MRCC methods)
  Frank Weinhold                                : gennbo (NPA and NBO analysis)           
  Simon Mueller                                 : openCOSMO-RS                            
  Christopher J. Cramer and Donald G. Truhlar   : smd solvation model                     
  S Lehtola, MJT Oliveira, MAL Marques          : LibXC Library                           
  Liviu Ungur et al                             : ANISO software                          


 Your calculation uses the libint2 library for the computation of 2-el integrals
 For citations please refer to: http://libint.valeyev.net

 Your ORCA version has been built with support for libXC version: 6.2.2
 For citations please refer to: https://libxc.gitlab.io

 This ORCA versions uses:
   CBLAS   interface :  Fast vector & matrix operations
   LAPACKE interface :  Fast linear algebra routines
   SCALAPACK package :  Parallel linear algebra routines
   Shared memory     :  Shared parallel matrices
   BLAS/LAPACK       :  OpenBLAS 0.3.27  USE64BITINT DYNAMIC_ARCH NO_AFFINITY SkylakeX SINGLE_THREADED
        Core in use  :  SkylakeX
   Copyright (c) 2011-2014, The OpenBLAS Project


NOTE: MaxCore=5000 MB was set to SCF,MP2,MDCI,CIPSI,MRCI and CIS
      => If you want to overwrite this, your respective input block should be placed after the MaxCore statement
Your calculation utilizes the atom-pairwise dispersion correction
based on EEQ partial charges (D4)


Warning: RI is on but no J-basis has been assigned. Assigning Def2/J (nothing to worry about!)
================================================================================

----- Orbital basis set information -----
Your calculation utilizes the basis: def2-TZVP
   F. Weigend and R. Ahlrichs, Phys. Chem. Chem. Phys. 7, 3297 (2005).

----- AuxJ basis set information -----
Your calculation utilizes the auxiliary basis: def2/J
   F. Weigend, Phys. Chem. Chem. Phys. 8, 1057 (2006).

================================================================================
                                        WARNINGS
                       Please study these warnings very carefully!
================================================================================


WARNING: Geometry Optimization
  ===> : Switching off AutoStart
         For restart on a previous wavefunction, please use MOREAD

================================================================================
                                       INPUT FILE
================================================================================
NAME = 05_Aminobutyric-acid_zwitterion.inp
|  1> ! Opt B3LYP D4 def2-TZVP TightSCF TightOpt CPCM(water)
|  2> 
|  3> %maxcore 5000
|  4> 
|  5> %pal
|  6> nprocs 6
|  7> end
|  8> 
|  9> * xyz 0 1
| 10> N          0.72270        0.80770        0.54390
| 11> C          0.96890        2.01810       -0.24190
| 12> C          0.71100        1.80650       -1.74680
| 13> C          1.62260        0.75910       -2.40820
| 14> C          3.07680        1.12350       -2.30490
| 15> O          3.93570        0.29810       -1.67690
| 16> O          3.48810        2.16300       -2.79570
| 17> H          0.84070        1.03310        1.55810
| 18> H         -0.25350        0.46700        0.38630
| 19> H          0.28420        2.81990        0.11320
| 20> H          2.01120        2.36810       -0.07500
| 21> H          0.85290        2.77990       -2.26560
| 22> H         -0.34760        1.49970       -1.89150
| 23> H          1.45000       -0.23710       -1.95000
| 24> H          1.35480        0.68040       -3.48370
| 25> H          1.40810        0.05960        0.29630
| 26> *
| 27> 
| 28>                          ****END OF INPUT****
================================================================================

                       *****************************
                       * Geometry Optimization Run *
                       *****************************

Geometry optimization settings:
Update method            Update   .... BFGS
Choice of coordinates    CoordSys .... (2022) Redundant Internals
Initial Hessian          InHess   .... Almloef's Model
Max. no of cycles        MaxIter  .... 50

Convergence Tolerances:
Energy Change            TolE     ....  1.0000e-06 Eh
Max. Gradient            TolMAXG  ....  1.0000e-04 Eh/bohr
RMS Gradient             TolRMSG  ....  3.0000e-05 Eh/bohr
Max. Displacement        TolMAXD  ....  1.0000e-03 bohr
RMS Displacement         TolRMSD  ....  6.0000e-04 bohr
Strict Convergence                .... False

------------------------------------------------------------------------------
                        ORCA OPTIMIZATION COORDINATE SETUP
------------------------------------------------------------------------------

The optimization will be done in redundant internal coordinates (2022)
Making redundant internal coordinates   ...  (2022 redundants) done
Evaluating the initial hessian          ...  (Almloef) done
Evaluating the coordinates              ...  done
Calculating the B-matrix                .... done
Calculating the G-matrix                .... done
Diagonalizing the G-matrix              .... done
Small eigenvalue found = 2.575e-02
The first mode is                       ....   23
The number of degrees of freedom        ....   42

    -----------------------------------------------------------------
                    Redundant Internal Coordinates


    -----------------------------------------------------------------
         Definition                    Initial Value    Approx d2E/dq
    -----------------------------------------------------------------
      1. B(C   1,N   0)                  1.4640         0.426467   
      2. B(C   2,C   1)                  1.5414         0.358211   
      3. B(C   3,C   2)                  1.5380         0.362726   
      4. B(C   4,C   3)                  1.5027         0.412959   
      5. B(O   5,C   4)                  1.3466         0.656281   
      6. B(O   6,C   4)                  1.2209         1.041486   
      7. B(H   7,N   0)                  1.0456         0.379628   
      8. B(H   8,N   0)                  1.0459         0.379261   
      9. B(H   9,C   1)                  1.1126         0.331457   
     10. B(H  10,C   1)                  1.1121         0.332032   
     11. B(H  11,C   2)                  1.1121         0.332003   
     12. B(H  12,C   2)                  1.1116         0.332606   
     13. B(H  13,C   3)                  1.1100         0.334562   
     14. B(H  14,C   3)                  1.1111         0.333205   
     15. B(H  15,N   0)                  1.0444         0.381366   
     16. A(H   8,N   0,H  15)          110.0892         0.291097   
     17. A(H   7,N   0,H   8)          108.7663         0.290889   
     18. A(C   1,N   0,H   8)          110.2074         0.329486   
     19. A(C   1,N   0,H  15)          110.7703         0.329787   
     20. A(C   1,N   0,H   7)          108.8702         0.329539   
     21. A(H   7,N   0,H  15)          108.0775         0.291142   
     22. A(H   9,C   1,H  10)          107.5832         0.283483   
     23. A(C   2,C   1,H  10)          110.2756         0.317850   
     24. A(N   0,C   1,H  10)          109.7111         0.325106   
     25. A(C   2,C   1,H   9)          107.9130         0.317761   
     26. A(N   0,C   1,C   2)          112.4829         0.366720   
     27. A(N   0,C   1,H   9)          108.7257         0.325014   
     28. A(C   1,C   2,H  11)          108.2970         0.317846   
     29. A(C   3,C   2,H  12)          108.6937         0.318590   
     30. A(C   1,C   2,H  12)          108.9234         0.317940   
     31. A(C   3,C   2,H  11)          108.6524         0.318496   
     32. A(C   1,C   2,C   3)          114.4664         0.358950   
     33. A(H  11,C   2,H  12)          107.5990         0.283632   
     34. A(H  13,C   3,H  14)          107.3679         0.284050   
     35. A(C   2,C   3,C   4)          112.2638         0.367781   
     36. A(C   4,C   3,H  14)          108.4784         0.325526   
     37. A(C   2,C   3,H  14)          108.7613         0.318683   
     38. A(C   4,C   3,H  13)          109.8601         0.325744   
     39. A(C   2,C   3,H  13)          109.9683         0.318895   
     40. A(O   5,C   4,O   6)          119.6350         0.475635   
     41. A(C   3,C   4,O   6)          120.3203         0.440038   
     42. A(C   3,C   4,O   5)          120.0431         0.405198   
     43. D(H   9,C   1,N   0,H   8)     63.0751         0.016614   
     44. D(H   9,C   1,N   0,H   7)    -56.1398         0.016614   
     45. D(H   9,C   1,N   0,H  15)   -174.8484         0.016614   
     46. D(C   2,C   1,N   0,H  15)     65.6947         0.016614   
     47. D(C   2,C   1,N   0,H   7)   -175.5968         0.016614   
     48. D(C   2,C   1,N   0,H   8)    -56.3818         0.016614   
     49. D(C   3,C   2,C   1,N   0)    -62.3012         0.010302   
     50. D(H  11,C   2,C   1,H  10)    -60.8484         0.010302   
     51. D(H  11,C   2,C   1,H   9)     56.4011         0.010302   
     52. D(H  11,C   2,C   1,N   0)    176.3299         0.010302   
     53. D(C   3,C   2,C   1,H  10)     60.5204         0.010302   
     54. D(C   3,C   2,C   1,H   9)    177.7699         0.010302   
     55. D(C   4,C   3,C   2,H  12)    177.8348         0.010545   
     56. D(C   4,C   3,C   2,H  11)     61.0203         0.010545   
     57. D(C   4,C   3,C   2,C   1)    -60.1530         0.010545   
     58. D(H  13,C   3,C   2,H  12)    -59.5276         0.010545   
     59. D(H  13,C   3,C   2,H  11)   -176.3421         0.010545   
     60. D(H  13,C   3,C   2,C   1)     62.4846         0.010545   
     61. D(O   6,C   4,C   3,C   2)    -60.0736         0.012624   
     62. D(O   5,C   4,C   3,H  14)   -119.3991         0.012624   
     63. D(O   5,C   4,C   3,H  13)     -2.3121         0.012624   
     64. D(O   6,C   4,C   3,H  13)    177.2276         0.012624   
     65. D(O   5,C   4,C   3,C   2)    120.3866         0.012624   
    -----------------------------------------------------------------

Number of atoms                         .... 16
Number of degrees of freedom            .... 65


         *************************************************************
         *                GEOMETRY OPTIMIZATION CYCLE   1            *
         *************************************************************
---------------------------------
CARTESIAN COORDINATES (ANGSTROEM)
---------------------------------
  N      0.722700    0.807700    0.543900
  C      0.968900    2.018100   -0.241900
  C      0.711000    1.806500   -1.746800
  C      1.622600    0.759100   -2.408200
  C      3.076800    1.123500   -2.304900
  O      3.935700    0.298100   -1.676900
  O      3.488100    2.163000   -2.795700
  H      0.840700    1.033100    1.558100
  H     -0.253500    0.467000    0.386300
  H      0.284200    2.819900    0.113200
  H      2.011200    2.368100   -0.075000
  H      0.852900    2.779900   -2.265600
  H     -0.347600    1.499700   -1.891500
  H      1.450000   -0.237100   -1.950000
  H      1.354800    0.680400   -3.483700
  H      1.408100    0.059600    0.296300

----------------------------
CARTESIAN COORDINATES (A.U.)
----------------------------
  NO LB      ZA    FRAG     MASS         X           Y           Z
   0 N     7.0000    0    14.007    1.365705    1.526332    1.027822
   1 C     6.0000    0    12.011    1.830956    3.813656   -0.457125
   2 C     6.0000    0    12.011    1.343595    3.413790   -3.300974
   3 C     6.0000    0    12.011    3.066270    1.434491   -4.550838
   4 C     6.0000    0    12.011    5.814309    2.123107   -4.355630
   5 O     8.0000    0    15.999    7.437395    0.563327   -3.168882
   6 O     8.0000    0    15.999    6.591554    4.087478   -5.283107
   7 H     1.0000    0     1.008    1.588693    1.952276    2.944382
   8 H     1.0000    0     1.008   -0.479046    0.882502    0.730001
   9 H     1.0000    0     1.008    0.537060    5.328839    0.213917
  10 H     1.0000    0     1.008    3.800617    4.475060   -0.141729
  11 H     1.0000    0     1.008    1.611747    5.253250   -4.281364
  12 H     1.0000    0     1.008   -0.656869    2.834022   -3.574417
  13 H     1.0000    0     1.008    2.740103   -0.448054   -3.684966
  14 H     1.0000    0     1.008    2.560201    1.285770   -6.583239
  15 H     1.0000    0     1.008    2.660923    0.112628    0.559926

--------------------------------
INTERNAL COORDINATES (ANGSTROEM)
--------------------------------
 N      0   0   0     0.000000000000     0.00000000     0.00000000
 C      1   0   0     1.463954999308     0.00000000     0.00000000
 C      2   1   0     1.541431471068   112.48286867     0.00000000
 C      3   2   1     1.538021872406   114.46635016   297.69880010
 C      4   3   2     1.502716170805   112.26384682   299.84703495
 O      5   4   3     1.346617380699   120.04307296   120.38658894
 O      5   4   3     1.220906458333   120.32032839   299.92637678
 H      1   2   3     1.045624598027   108.87020652   184.40323133
 H      1   2   3     1.045887513072   110.20735397   303.61817198
 H      2   1   3     1.112561611777   108.72572984   119.45695383
 H      2   1   3     1.112090329065   109.71107399   236.86181314
 H      3   2   1     1.112113577833   108.29697552   176.32994986
 H      3   2   1     1.111619669671   108.92343581    59.58559575
 H      4   3   2     1.110023621370   109.96834469    62.48462061
 H      4   3   2     1.111130406388   108.76125660   179.79686429
 H      1   2   3     1.044381410214   110.77025506    65.69468505

---------------------------
INTERNAL COORDINATES (A.U.)
---------------------------
 N      0   0   0     0.000000000000     0.00000000     0.00000000
 C      1   0   0     2.766474021078     0.00000000     0.00000000
 C      2   1   0     2.912883334527   112.48286867     0.00000000
 C      3   2   1     2.906440126829   114.46635016   297.69880010
 C      4   3   2     2.839722019837   112.26384682   299.84703495
 O      5   4   3     2.544738056699   120.04307296   120.38658894
 O      5   4   3     2.307178841386   120.32032839   299.92637678
 H      1   2   3     1.975944129163   108.87020652   184.40323133
 H      1   2   3     1.976440966594   110.20735397   303.61817198
 H      2   1   3     2.102436753373   108.72572984   119.45695383
 H      2   1   3     2.101546158115   109.71107399   236.86181314
 H      3   2   1     2.101590091919   108.29697552   176.32994986
 H      3   2   1     2.100656740759   108.92343581    59.58559575
 H      4   3   2     2.097640646573   109.96834469    62.48462061
 H      4   3   2     2.099732167146   108.76125660   179.79686429
 H      1   2   3     1.973594844662   110.77025506    65.69468505

---------------------
BASIS SET INFORMATION
---------------------
There are 4 groups of distinct atoms

 Group   1 Type N   : 11s6p2d1f contracted to 5s3p2d1f pattern {62111/411/11/1}
 Group   2 Type C   : 11s6p2d1f contracted to 5s3p2d1f pattern {62111/411/11/1}
 Group   3 Type O   : 11s6p2d1f contracted to 5s3p2d1f pattern {62111/411/11/1}
 Group   4 Type H   : 5s1p contracted to 3s1p pattern {311/1}

Atom   0N    basis set group =>   1
Atom   1C    basis set group =>   2
Atom   2C    basis set group =>   2
Atom   3C    basis set group =>   2
Atom   4C    basis set group =>   2
Atom   5O    basis set group =>   3
Atom   6O    basis set group =>   3
Atom   7H    basis set group =>   4
Atom   8H    basis set group =>   4
Atom   9H    basis set group =>   4
Atom  10H    basis set group =>   4
Atom  11H    basis set group =>   4
Atom  12H    basis set group =>   4
Atom  13H    basis set group =>   4
Atom  14H    basis set group =>   4
Atom  15H    basis set group =>   4
---------------------------------
AUXILIARY/J BASIS SET INFORMATION
---------------------------------
There are 4 groups of distinct atoms

 Group   1 Type N   : 12s5p4d2f1g contracted to 6s4p3d1f1g pattern {711111/2111/211/2/1}
 Group   2 Type C   : 12s5p4d2f1g contracted to 6s4p3d1f1g pattern {711111/2111/211/2/1}
 Group   3 Type O   : 12s5p4d2f1g contracted to 6s4p3d1f1g pattern {711111/2111/211/2/1}
 Group   4 Type H   : 5s2p1d contracted to 3s1p1d pattern {311/2/1}

Atom   0N    basis set group =>   1
Atom   1C    basis set group =>   2
Atom   2C    basis set group =>   2
Atom   3C    basis set group =>   2
Atom   4C    basis set group =>   2
Atom   5O    basis set group =>   3
Atom   6O    basis set group =>   3
Atom   7H    basis set group =>   4
Atom   8H    basis set group =>   4
Atom   9H    basis set group =>   4
Atom  10H    basis set group =>   4
Atom  11H    basis set group =>   4
Atom  12H    basis set group =>   4
Atom  13H    basis set group =>   4
Atom  14H    basis set group =>   4
Atom  15H    basis set group =>   4
--------------------------------------------------------------------------
WARNING: There was an error initializing an OpenFabrics device.

  Local host:   ga01
  Local device: mlx5_0
--------------------------------------------------------------------------


           ************************************************************
           *        Program running with 6 parallel MPI-processes     *
           *              working on a common directory               *
           ************************************************************
------------------------------------------------------------------------------
                             ORCA STARTUP CALCULATIONS
                           -- RI-GTO INTEGRALS CHOSEN --
------------------------------------------------------------------------------
------------------------------------------------------------------------------
                   ___                                                        
                  /   \      - P O W E R E D   B Y -                         
                 /     \                                                     
                 |  |  |   _    _      __       _____    __    __             
                 |  |  |  | |  | |    /  \     |  _  \  |  |  /  |          
                  \  \/   | |  | |   /    \    | | | |  |  | /  /          
                 / \  \   | |__| |  /  /\  \   | |_| |  |  |/  /          
                |  |  |   |  __  | /  /__\  \  |    /   |      \           
                |  |  |   | |  | | |   __   |  |    \   |  |\   \          
                \     /   | |  | | |  |  |  |  | |\  \  |  | \   \       
                 \___/    |_|  |_| |__|  |__|  |_| \__\ |__|  \__/        
                                                                              
                      - O R C A' S   B I G   F R I E N D -                    
                                      &                                       
                       - I N T E G R A L  F E E D E R -                       
                                                                              
 v1 FN, 2020, v2 2021, v3 2022-2024                                           
------------------------------------------------------------------------------


----------------------
SHARK INTEGRAL PACKAGE
----------------------

Number of atoms                             ...     16
Number of basis functions                   ...    271
Number of shells                            ...    113
Maximum angular momentum                    ...      3
Integral batch strategy                     ... SHARK/LIBINT Hybrid
RI-J (if used) integral strategy            ... SPLIT-RIJ (Revised 2003 algorithm where possible)
Printlevel                                  ...      1
Contraction scheme used                     ... SEGMENTED contraction
Prescreening option                         ... SCHWARTZ
   Thresh                                   ... 2.500e-11
   Tcut                                     ... 2.500e-12
   Tpresel                                  ... 2.500e-12 
Coulomb Range Separation                    ... NOT USED
Exchange Range Separation                   ... NOT USED
Multipole approximations                    ... NOT USED
Finite Nucleus Model                        ... NOT USED
CABS basis                                  ... NOT available
Auxiliary Coulomb fitting basis             ... AVAILABLE
   # of basis functions in Aux-J            ...    442
   # of shells in Aux-J                     ...    150
   Maximum angular momentum in Aux-J        ...      4
Auxiliary J/K fitting basis                 ... NOT available
Auxiliary Correlation fitting basis         ... NOT available
Auxiliary 'external' fitting basis          ... NOT available

Checking pre-screening integrals            ... done (  0.0 sec) Dimension = 113
Check shell pair data                       ... done (  0.0 sec)
Shell pair information
Shell pair cut-off parameter TPreSel        ...   2.5e-12
Total number of shell pairs                 ...      6441
Shell pairs after pre-screening             ...      5976
Total number of primitive shell pairs       ...     19096
Primitive shell pairs kept                  ...     13447
          la=0 lb=0:   1761 shell pairs
          la=1 lb=0:   1747 shell pairs
          la=1 lb=1:    451 shell pairs
          la=2 lb=0:    800 shell pairs
          la=2 lb=1:    403 shell pairs
          la=2 lb=2:     99 shell pairs
          la=3 lb=0:    396 shell pairs
          la=3 lb=1:    198 shell pairs
          la=3 lb=2:     94 shell pairs
          la=3 lb=3:     27 shell pairs

Calculating one electron integrals          ... done (  0.0 sec)
Calculating RI/J V-Matrix + Cholesky decomp.... done (  0.0 sec)
Calculating Nuclear repulsion               ... done (  0.0 sec) ENN=    314.873022986706 Eh

Diagonalization of the overlap matrix:
Smallest eigenvalue                        ... 2.125e-04
Time for diagonalization                   ...    0.006 sec
Threshold for overlap eigenvalues          ... 1.000e-07
Number of eigenvalues below threshold      ... 0
Time for construction of square roots      ...    0.003 sec
Total time needed                          ...    0.011 sec

-------------------
DFT GRID GENERATION
-------------------

General Integration Accuracy     IntAcc      ... 4.388
Radial Grid Type                 RadialGrid  ... OptM3 with GC (2021)
Angular Grid (max. ang.)         AngularGrid ... 4 (Lebedev-302)
Angular grid pruning method      GridPruning ... 4 (adaptive)
Weight generation scheme         WeightScheme... mBecke (2022)
Basis function cutoff            BFCut       ... 1.0000e-11
Integration weight cutoff        WCut        ... 1.0000e-14
Partially contracted basis set               ... off
Rotationally invariant grid construction     ... off
Angular grids for H and He will be reduced by one unit

Total number of grid points                  ...    71150
Total number of batches                      ...     1119
Average number of points per batch           ...       63
Average number of grid points per atom       ...     4447

--------------------
COSX GRID GENERATION
--------------------

GRIDX 1
-------
General Integration Accuracy     IntAcc      ... 3.816
Radial Grid Type                 RadialGrid  ... OptM3 with GC (2021)
Angular Grid (max. ang.)         AngularGrid ... 1 (Lebedev-50)
Angular grid pruning method      GridPruning ... 4 (adaptive)
Weight generation scheme         WeightScheme... mBecke (2022)
Basis function cutoff            BFCut       ... 1.0000e-11
Integration weight cutoff        WCut        ... 1.0000e-14
Partially contracted basis set               ... on
Rotationally invariant grid construction     ... off
Angular grids for H and He will be reduced by one unit

Total number of grid points                  ...     9119
Total number of batches                      ...       83
Average number of points per batch           ...      109
Average number of grid points per atom       ...      570
UseSFitting                                  ... on

GRIDX 2
-------
General Integration Accuracy     IntAcc      ... 4.020
Radial Grid Type                 RadialGrid  ... OptM3 with GC (2021)
Angular Grid (max. ang.)         AngularGrid ... 2 (Lebedev-110)
Angular grid pruning method      GridPruning ... 4 (adaptive)
Weight generation scheme         WeightScheme... mBecke (2022)
Basis function cutoff            BFCut       ... 1.0000e-11
Integration weight cutoff        WCut        ... 1.0000e-14
Partially contracted basis set               ... on
Rotationally invariant grid construction     ... off
Angular grids for H and He will be reduced by one unit

Total number of grid points                  ...    19459
Total number of batches                      ...      161
Average number of points per batch           ...      120
Average number of grid points per atom       ...     1216
UseSFitting                                  ... on

GRIDX 3
-------
General Integration Accuracy     IntAcc      ... 4.338
Radial Grid Type                 RadialGrid  ... OptM3 with GC (2021)
Angular Grid (max. ang.)         AngularGrid ... 3 (Lebedev-194)
Angular grid pruning method      GridPruning ... 4 (adaptive)
Weight generation scheme         WeightScheme... mBecke (2022)
Basis function cutoff            BFCut       ... 1.0000e-11
Integration weight cutoff        WCut        ... 1.0000e-14
Partially contracted basis set               ... on
Rotationally invariant grid construction     ... off
Angular grids for H and He will be reduced by one unit

Total number of grid points                  ...    42630
Total number of batches                      ...      342
Average number of points per batch           ...      124
Average number of grid points per atom       ...     2664
UseSFitting                                  ... on
Initializing property integral containers    ... done (  0.0 sec)

SHARK setup successfully completed in   0.7 seconds

Maximum memory used throughout the entire STARTUP-calculation: 25.8 MB
[ga01:1276848] 5 more processes have sent help message help-mpi-btl-openib.txt / error in device init
[ga01:1276848] Set MCA parameter "orte_base_help_aggregate" to 0 to see all help / error messages
--------------------------------------------------------------------------
WARNING: There was an error initializing an OpenFabrics device.

  Local host:   ga01
  Local device: mlx5_0
--------------------------------------------------------------------------


           ************************************************************
           *        Program running with 6 parallel MPI-processes     *
           *              working on a common directory               *
           ************************************************************
-------------------------------------------------------------------------------
                                 ORCA GUESS
                   Start orbitals & Density for SCF / CASSCF
-------------------------------------------------------------------------------

------------
SCF SETTINGS
------------
Hamiltonian:
 Density Functional     Method          .... DFT(GTOs)
 Exchange Functional    Exchange        .... B88
   X-Alpha parameter    XAlpha          ....  0.666667
   Becke's b parameter  XBeta           ....  0.004200
 Correlation Functional Correlation     .... LYP
 LDA part of GGA corr.  LDAOpt          .... VWN-5
 Gradients option       PostSCFGGA      .... off
 Hybrid DFT is turned on
   Fraction HF Exchange ScalHFX         ....  0.200000
   Scaling of DF-GGA-X  ScalDFX         ....  0.720000
   Scaling of DF-GGA-C  ScalDFC         ....  0.810000
   Scaling of DF-LDA-C  ScalLDAC        ....  1.000000
   Perturbative correction              ....  0.000000
   NL short-range parameter             ....  4.800000
 RI-approximation to the Coulomb term is turned on
   Number of AuxJ basis functions       .... 442
   RIJ-COSX (HFX calculated with COS-X)).... on


General Settings:
 Integral files         IntName         .... 05_Aminobutyric-acid_zwitterion
 Hartree-Fock type      HFTyp           .... RHF
 Total Charge           Charge          ....    0
 Multiplicity           Mult            ....    1
 Number of Electrons    NEL             ....   56
 Basis Dimension        Dim             ....  271
 Nuclear Repulsion      ENuc            ....    314.8730229867 Eh

Convergence Acceleration:
 AO-DIIS                CNVDIIS         .... on
   Start iteration      DIISMaxIt       ....    12
   Startup error        DIISStart       ....  0.200000
   # of expansion vecs  DIISMaxEq       ....     5
   Bias factor          DIISBfac        ....   1.050
   Max. coefficient     DIISMaxC        ....  10.000
 MO-DIIS                CNVKDIIS        .... off
 Trust-Rad. Augm. Hess. CNVTRAH         .... auto
   Auto Start mean grad. ratio tolernc. ....  1.125000
   Auto Start start iteration           ....    50
   Auto Start num. interpolation iter.  ....    10
   Max. Number of Micro iterations      ....    24
   Max. Number of Macro iterations      .... Maxiter - #DIIS iter
   Number of Davidson start vectors     ....     2
   Converg. threshold    (grad. norm)   ....   1.000e-05
   Grad. Scal. Fac. for Micro threshold ....   0.100
   Minimum threshold for Micro iter.    ....   1.000e-02
   NR start threshold (gradient norm)   ....   1.000e-04
   Initial trust radius                 ....   0.400
   Minimum AH scaling param. (alpha)    ....   1.000
   Maximum AH scaling param. (alpha)    .... 1000.000
   Quad. conv. algorithm                .... NR
   White noise on init. David. guess    .... on
   Maximum white noise                  ....   0.010
   Pseudo random numbers                .... off
   Inactive MOs                         .... canonical
   Orbital update algorithm             .... Taylor
   Preconditioner                       .... Diag
   Full preconditioner red. dimension   ....   250
 SOSCF                  CNVSOSCF        .... on
   Start iteration      SOSCFMaxIt      ....   150
   Startup grad/error   SOSCFStart      ....  0.003300
   Hessian update       SOSCFHessUp     .... L-BFGS
 Level Shifting         CNVShift        .... on
   Level shift para.    LevelShift      ....    0.2500
   Turn off err/grad.   ShiftErr        ....    0.0010
 Zerner damping         CNVZerner       .... off
 Static damping         CNVDamp         .... on
   Fraction old density DampFac         ....    0.7000
   Max. Damping (<1)    DampMax         ....    0.9800
   Min. Damping (>=0)   DampMin         ....    0.0000
   Turn off err/grad.   DampErr         ....    0.1000

SCF Procedure:
 Maximum # iterations   MaxIter         ....   125
 SCF integral mode      SCFMode         .... Direct
   Integral package                     .... SHARK and LIBINT hybrid scheme
 Reset frequency        DirectResetFreq ....    20
 Integral Threshold     Thresh          ....  2.500e-11 Eh
 Primitive CutOff       TCut            ....  2.500e-12 Eh

Convergence Tolerance:
 Convergence Check Mode ConvCheckMode   .... Total+1el-Energy
 Convergence forced     ConvForced      .... 0
 Energy Change          TolE            ....  1.000e-08 Eh
 1-El. energy change                    ....  1.000e-05 Eh
 Orbital Gradient       TolG            ....  1.000e-05
 Orbital Rotation angle TolX            ....  1.000e-05
 DIIS Error             TolErr          ....  5.000e-07

------------------------------
INITIAL GUESS: MODEL POTENTIAL
------------------------------
Loading Hartree-Fock densities                     ... done
Calculating cut-offs                               ... done
Initializing the effective Hamiltonian             ... done
Setting up the integral package (SHARK)            ... done
Starting the Coulomb interaction                   ... done (   0.0 sec)
Making the grid                                    ... done (   0.1 sec)
Mapping shells                                     ... done
Starting the XC term evaluation                    ... done (   0.0 sec)
  promolecular density results
     # of electrons  =     55.993412258
     EX              =    -46.170655366
     EC              =     -1.889006397
     EX+EC           =    -48.059661763
Transforming the Hamiltonian                       ... done (   0.0 sec)
Diagonalizing the Hamiltonian                      ... done (   0.0 sec)
Back transforming the eigenvectors                 ... done (   0.0 sec)
Now organizing SCF variables                       ... done
                      ------------------
                      INITIAL GUESS DONE (   0.2 sec)
                      ------------------
             **** ENERGY FILE WAS UPDATED (05_Aminobutyric-acid_zwitterion.en.tmp) ****
Finished Guess after   0.5 sec
Maximum memory used throughout the entire GUESS-calculation: 17.2 MB
[ga01:1276877] 5 more processes have sent help message help-mpi-btl-openib.txt / error in device init
[ga01:1276877] Set MCA parameter "orte_base_help_aggregate" to 0 to see all help / error messages
--------------------------------------------------------------------------
WARNING: There was an error initializing an OpenFabrics device.

  Local host:   ga01
  Local device: mlx5_0
--------------------------------------------------------------------------


           ************************************************************
           *        Program running with 6 parallel MPI-processes     *
           *              working on a common directory               *
           ************************************************************

-------------------------------------------------------------------------------------------
                                      ORCA LEAN-SCF
                              memory conserving SCF solver
-------------------------------------------------------------------------------------------

--------------------
CPCM SOLVATION MODEL
--------------------
CPCM parameters:
  Epsilon                                         ...      80.1510
  Refrac                                          ...       1.3328
  Rsolv                                           ...       1.3000
  Surface type                                    ... GAUSSIAN VDW
  Discretization scheme                           ... Constant charge density
    Threshold for H atoms                         ...       5.0000 (charges/Ang^2)
    Threshold for non-H atoms                     ...       5.0000 (charges/Ang^2)
  Epsilon function type                           ...         CPCM
Solvent:                                          ... WATER
Radii:
  Scheme                                          ... Element-dependent radii
  Radius for N  used is    3.5149 Bohr (=   1.8600 Ang.)
  Radius for C  used is    3.8550 Bohr (=   2.0400 Ang.)
  Radius for O  used is    3.4469 Bohr (=   1.8240 Ang.)
  Radius for H  used is    2.4944 Bohr (=   1.3200 Ang.)
Calculating surface                               ...        done! (  0.0s)
Cavity surface points                             ...         1373
Cavity Volume                                     ...     910.9906
Cavity Surface-area                               ...     549.7067
Calculating surface distance matrix               ...        done! (  0.0s)
Performing Cholesky decomposition & store         ...        done! (  0.0s)
Overall time for CPCM initialization              ...                 0.1s

----------------------------------------D-I-I-S--------------------------------------------
Iteration    Energy (Eh)           Delta-E    RMSDP     MaxDP     DIISErr   Damp  Time(sec)
-------------------------------------------------------------------------------------------
               ***  Starting incremental Fock matrix formation  ***
    1    -362.6827860257772613     0.00e+00  3.66e-03  3.59e-01  3.55e-01  0.700   1.3
    2    -362.8403528100894277    -1.58e-01  3.34e-03  3.65e-01  1.38e-01  0.700   0.9
                               ***Turning on AO-DIIS***
    3    -362.8943593986754763    -5.40e-02  1.11e-03  1.03e-01  3.80e-02  0.700   0.8
    4    -362.9284670785488629    -3.41e-02  1.02e-03  5.53e-02  1.65e-02  0.000   0.8
    5    -363.0061939910776232    -7.77e-02  8.30e-04  9.81e-02  8.05e-03  0.000   0.8
[ga01:1276906] 5 more processes have sent help message help-mpi-btl-openib.txt / error in device init
[ga01:1276906] Set MCA parameter "orte_base_help_aggregate" to 0 to see all help / error messages
                              *** Initializing SOSCF ***
---------------------------------------S-O-S-C-F--------------------------------------
Iteration    Energy (Eh)           Delta-E    RMSDP     MaxDP     MaxGrad    Time(sec)
--------------------------------------------------------------------------------------
    6    -363.0066280128539233    -4.34e-04  3.03e-04  3.51e-02  2.38e-03     0.8
               *** Restarting incremental Fock matrix formation ***
    7    -363.0066299737996474    -1.96e-06  2.19e-04  2.49e-02  4.07e-04     1.3
    8    -363.0066244224829575     5.55e-06  3.80e-05  1.73e-03  9.68e-04     1.0
    9    -363.0066362365151349    -1.18e-05  4.21e-05  4.71e-03  1.04e-04     1.0
   10    -363.0066360523020990     1.84e-07  9.95e-06  1.01e-03  1.01e-04     1.0
   11    -363.0066366150986710    -5.63e-07  8.45e-06  9.61e-04  1.96e-05     0.9
   12    -363.0066365962128998     1.89e-08  4.36e-06  4.95e-04  2.62e-05     0.9
   13    -363.0066366238668820    -2.77e-08  3.76e-07  3.83e-05  7.49e-07     0.8
                  *** Gradient check signals convergence ***

               *****************************************************
               *                     SUCCESS                       *
               *           SCF CONVERGED AFTER  13 CYCLES          *
               *****************************************************

Recomputing exchange energy using gridx3       ... done (    1.857 sec)
Old exchange energy                            :     -9.387711734 Eh
New exchange energy                            :     -9.387711357 Eh
Exchange energy change after final integration :      0.000000377 Eh
Total energy after final integration           :   -363.006636247 Eh
             **** ENERGY FILE WAS UPDATED (05_Aminobutyric-acid_zwitterion.en.tmp) ****

----------------
TOTAL SCF ENERGY
----------------

Total Energy       :       -363.00663624657670 Eh           -9877.91276 eV

Components:
Nuclear Repulsion  :        314.87302298670573 Eh            8568.13055 eV
Electronic Energy  :       -677.76523040504696 Eh          -18442.92954 eV
One Electron Energy:      -1118.76169920842335 Eh          -30443.05353 eV
Two Electron Energy:        440.99646880337639 Eh           12000.12399 eV
CPCM Dielectric    :         -0.11442920552567 Eh              -3.11378 eV

Virial components:
Potential Energy   :       -724.07539092351556 Eh          -19703.09307 eV
Kinetic Energy     :        361.06875467693885 Eh            9825.18032 eV
Virial Ratio       :          2.00536707079894

DFT components:
N(Alpha)           :       28.000018577895 electrons
N(Beta)            :       28.000018577895 electrons
N(Total)           :       56.000037155789 electrons
E(X)               :      -37.336081906029 Eh       
E(C)               :       -2.234497501842 Eh       
E(XC)              :      -39.570579407871 Eh       

CPCM Solvation Model Properties:
Surface-charge          :         -0.02145536806629
Corrected charge        :          0.00000000000000
Outlying charge corr.   :          0.00003594840928 Eh               0.00098 eV
Free-energy (cav+disp)  :  This term is not implemented in the current solvation scheme

---------------
SCF CONVERGENCE
---------------

  Last Energy change         ...    2.7654e-08  Tolerance :   1.0000e-08
  Last MAX-Density change    ...    3.8327e-05  Tolerance :   1.0000e-07
  Last RMS-Density change    ...    3.7648e-07  Tolerance :   5.0000e-09
  Last DIIS Error            ...    2.3817e-03  Tolerance :   5.0000e-07
  Last Orbital Gradient      ...    7.4915e-07  Tolerance :   1.0000e-05
  Last Orbital Rotation      ...    1.6013e-06  Tolerance :   1.0000e-05


----------------
ORBITAL ENERGIES
----------------

  NO   OCC          E(Eh)            E(eV) 
   0   2.0000     -19.060252      -518.6558 
   1   2.0000     -19.041906      -518.1566 
   2   2.0000     -14.434713      -392.7885 
   3   2.0000     -10.243488      -278.7395 
   4   2.0000     -10.229307      -278.3536 
   5   2.0000     -10.182976      -277.0929 
   6   2.0000     -10.166778      -276.6521 
   7   2.0000      -1.016212       -27.6525 
   8   2.0000      -0.997463       -27.1424 
   9   2.0000      -0.893849       -24.3229 
  10   2.0000      -0.790269       -21.5043 
  11   2.0000      -0.706798       -19.2330 
  12   2.0000      -0.618289       -16.8245 
  13   2.0000      -0.579296       -15.7635 
  14   2.0000      -0.568118       -15.4593 
  15   2.0000      -0.511036       -13.9060 
  16   2.0000      -0.476549       -12.9675 
  17   2.0000      -0.450049       -12.2465 
  18   2.0000      -0.441646       -12.0178 
  19   2.0000      -0.418803       -11.3962 
  20   2.0000      -0.389480       -10.5983 
  21   2.0000      -0.382555       -10.4098 
  22   2.0000      -0.361720        -9.8429 
  23   2.0000      -0.344511        -9.3746 
  24   2.0000      -0.336323        -9.1518 
  25   2.0000      -0.241276        -6.5654 
  26   2.0000      -0.237426        -6.4607 
  27   2.0000      -0.213704        -5.8152 
  28   0.0000       0.009916         0.2698 
  29   0.0000       0.039029         1.0620 
  30   0.0000       0.058318         1.5869 
  31   0.0000       0.064920         1.7666 
  32   0.0000       0.072125         1.9626 
  33   0.0000       0.090636         2.4663 
  34   0.0000       0.108970         2.9652 
  35   0.0000       0.111372         3.0306 
  36   0.0000       0.117931         3.2091 
  37   0.0000       0.136340         3.7100 
  38   0.0000       0.153939         4.1889 
*Only the first 10 virtual orbitals were printed.

                    ********************************
                    * MULLIKEN POPULATION ANALYSIS *
                    ********************************

-----------------------
MULLIKEN ATOMIC CHARGES
-----------------------
   0 N :   -0.262394
   1 C :   -0.170847
   2 C :   -0.188731
   3 C :   -0.206047
   4 C :    0.212015
   5 O :   -0.693759
   6 O :   -0.492736
   7 H :    0.343165
   8 H :    0.339831
   9 H :    0.166419
  10 H :    0.168115
  11 H :    0.110340
  12 H :    0.129198
  13 H :    0.098767
  14 H :    0.118442
  15 H :    0.328220
Sum of atomic charges:   -0.0000000

--------------------------------
MULLIKEN REDUCED ORBITAL CHARGES
--------------------------------
  0 N s       :     3.448355  s :     3.448355
      pz      :     1.267928  p :     3.765714
      px      :     1.272080
      py      :     1.225706
      dz2     :     0.016602  d :     0.046014
      dxz     :     0.002175
      dyz     :     0.005687
      dx2y2   :     0.006871
      dxy     :     0.014679
      f0      :     0.000456  f :     0.002311
      f+1     :     0.000106
      f-1     :     0.000572
      f+2     :     0.000112
      f-2     :     0.000238
      f+3     :     0.000392
      f-3     :     0.000434

  1 C s       :     3.266123  s :     3.266123
      pz      :     0.892359  p :     2.795754
      px      :     1.080035
      py      :     0.823360
      dz2     :     0.020760  d :     0.100794
      dxz     :     0.018742
      dyz     :     0.030248
      dx2y2   :     0.014089
      dxy     :     0.016955
      f0      :     0.001413  f :     0.008178
      f+1     :     0.000871
      f-1     :     0.002093
      f+2     :     0.001020
      f-2     :     0.000896
      f+3     :     0.000962
      f-3     :     0.000922

  2 C s       :     3.229169  s :     3.229169
      pz      :     0.886460  p :     2.865548
      px      :     0.990224
      py      :     0.988865
      dz2     :     0.022651  d :     0.088249
      dxz     :     0.015870
      dyz     :     0.019913
      dx2y2   :     0.022122
      dxy     :     0.007693
      f0      :     0.001296  f :     0.005765
      f+1     :     0.001175
      f-1     :     0.001057
      f+2     :     0.000457
      f-2     :     0.000305
      f+3     :     0.000575
      f-3     :     0.000899

  3 C s       :     3.209998  s :     3.209998
      pz      :     1.024248  p :     2.913337
      px      :     0.925614
      py      :     0.963475
      dz2     :     0.014372  d :     0.077064
      dxz     :     0.012228
      dyz     :     0.008272
      dx2y2   :     0.028457
      dxy     :     0.013736
      f0      :     0.000961  f :     0.005648
      f+1     :     0.000614
      f-1     :     0.000434
      f+2     :     0.000734
      f-2     :     0.000373
      f+3     :     0.001167
      f-3     :     0.001365

  4 C s       :     3.047062  s :     3.047062
      pz      :     0.768746  p :     2.512861
      px      :     0.950865
      py      :     0.793250
      dz2     :     0.037551  d :     0.203669
      dxz     :     0.028365
      dyz     :     0.037033
      dx2y2   :     0.048250
      dxy     :     0.052470
      f0      :     0.001212  f :     0.024393
      f+1     :     0.002052
      f-1     :     0.003140
      f+2     :     0.004182
      f-2     :     0.003008
      f+3     :     0.004724
      f-3     :     0.006075

  5 O s       :     3.805006  s :     3.805006
      pz      :     1.575164  p :     4.864407
      px      :     1.646385
      py      :     1.642859
      dz2     :     0.003388  d :     0.022978
      dxz     :     0.004847
      dyz     :     0.004087
      dx2y2   :     0.003766
      dxy     :     0.006889
      f0      :     0.000107  f :     0.001368
      f+1     :     0.000157
      f-1     :     0.000132
      f+2     :     0.000142
      f-2     :     0.000345
      f+3     :     0.000238
      f-3     :     0.000248

  6 O s       :     3.747518  s :     3.747518
      pz      :     1.531177  p :     4.715872
      px      :     1.749215
      py      :     1.435480
      dz2     :     0.004299  d :     0.027549
      dxz     :     0.002654
      dyz     :     0.007194
      dx2y2   :     0.006904
      dxy     :     0.006498
      f0      :     0.000100  f :     0.001795
      f+1     :     0.000076
      f-1     :     0.000362
      f+2     :     0.000264
      f-2     :     0.000276
      f+3     :     0.000331
      f-3     :     0.000387

  7 H s       :     0.625302  s :     0.625302
      pz      :     0.019780  p :     0.031533
      px      :     0.005652
      py      :     0.006101

  8 H s       :     0.628600  s :     0.628600
      pz      :     0.005785  p :     0.031568
      px      :     0.018581
      py      :     0.007202

  9 H s       :     0.812645  s :     0.812645
      pz      :     0.004671  p :     0.020936
      px      :     0.007169
      py      :     0.009096

 10 H s       :     0.810855  s :     0.810855
      pz      :     0.003960  p :     0.021030
      px      :     0.012546
      py      :     0.004524

 11 H s       :     0.868136  s :     0.868136
      pz      :     0.006070  p :     0.021524
      px      :     0.004333
      py      :     0.011121

 12 H s       :     0.849930  s :     0.849930
      pz      :     0.003993  p :     0.020872
      px      :     0.012338
      py      :     0.004541

 13 H s       :     0.879833  s :     0.879833
      pz      :     0.005331  p :     0.021400
      px      :     0.004238
      py      :     0.011830

 14 H s       :     0.860242  s :     0.860242
      pz      :     0.012509  p :     0.021316
      px      :     0.004618
      py      :     0.004188

 15 H s       :     0.639344  s :     0.639344
      pz      :     0.006601  p :     0.032436
      px      :     0.012091
      py      :     0.013744



                     *******************************
                     * LOEWDIN POPULATION ANALYSIS *
                     *******************************

----------------------
LOEWDIN ATOMIC CHARGES
----------------------
   0 N :    0.181135
   1 C :   -0.266121
   2 C :   -0.258094
   3 C :   -0.256452
   4 C :   -0.651897
   5 O :   -0.293296
   6 O :   -0.065425
   7 H :    0.241595
   8 H :    0.240316
   9 H :    0.154755
  10 H :    0.153089
  11 H :    0.150586
  12 H :    0.146124
  13 H :    0.139183
  14 H :    0.153726
  15 H :    0.230777

-------------------------------
LOEWDIN REDUCED ORBITAL CHARGES
-------------------------------
  0 N s       :     2.983575  s :     2.983575
      pz      :     1.217395  p :     3.666402
      px      :     1.215371
      py      :     1.233636
      dz2     :     0.052119  d :     0.158729
      dxz     :     0.007510
      dyz     :     0.025012
      dx2y2   :     0.026662
      dxy     :     0.047426
      f0      :     0.000943  f :     0.010159
      f+1     :     0.000876
      f-1     :     0.002206
      f+2     :     0.001417
      f-2     :     0.001910
      f+3     :     0.001406
      f-3     :     0.001401

  1 C s       :     2.803169  s :     2.803169
      pz      :     1.003234  p :     2.979426
      px      :     1.061974
      py      :     0.914218
      dz2     :     0.104722  d :     0.432611
      dxz     :     0.063980
      dyz     :     0.121484
      dx2y2   :     0.064400
      dxy     :     0.078025
      f0      :     0.006727  f :     0.050915
      f+1     :     0.006603
      f-1     :     0.011452
      f+2     :     0.008320
      f-2     :     0.007842
      f+3     :     0.005089
      f-3     :     0.004881

  2 C s       :     2.792763  s :     2.792763
      pz      :     0.996358  p :     3.046142
      px      :     1.018514
      py      :     1.031270
      dz2     :     0.100196  d :     0.382374
      dxz     :     0.062089
      dyz     :     0.088166
      dx2y2   :     0.088792
      dxy     :     0.043130
      f0      :     0.005817  f :     0.036815
      f+1     :     0.008214
      f-1     :     0.005944
      f+2     :     0.004867
      f-2     :     0.004074
      f+3     :     0.003193
      f-3     :     0.004705

  3 C s       :     2.791761  s :     2.791761
      pz      :     1.018721  p :     3.063702
      px      :     1.026090
      py      :     1.018891
      dz2     :     0.078469  d :     0.363707
      dxz     :     0.055136
      dyz     :     0.045796
      dx2y2   :     0.110383
      dxy     :     0.073923
      f0      :     0.004723  f :     0.037281
      f+1     :     0.004908
      f-1     :     0.002473
      f+2     :     0.006169
      f-2     :     0.004757
      f+3     :     0.006401
      f-3     :     0.007851

  4 C s       :     2.785260  s :     2.785260
      pz      :     0.799197  p :     2.738062
      px      :     1.003498
      py      :     0.935367
      dz2     :     0.141336  d :     0.973109
      dxz     :     0.131380
      dyz     :     0.175984
      dx2y2   :     0.262461
      dxy     :     0.261949
      f0      :     0.010314  f :     0.155464
      f+1     :     0.013553
      f-1     :     0.015513
      f+2     :     0.026354
      f-2     :     0.020922
      f+3     :     0.029858
      f-3     :     0.038950

  5 O s       :     3.499711  s :     3.499711
      pz      :     1.527141  p :     4.741960
      px      :     1.609057
      py      :     1.605762
      dz2     :     0.005465  d :     0.047875
      dxz     :     0.009448
      dyz     :     0.009444
      dx2y2   :     0.009550
      dxy     :     0.013968
      f0      :     0.000357  f :     0.003751
      f+1     :     0.000266
      f-1     :     0.000306
      f+2     :     0.000487
      f-2     :     0.000994
      f+3     :     0.000638
      f-3     :     0.000704

  6 O s       :     3.404436  s :     3.404436
      pz      :     1.461075  p :     4.589475
      px      :     1.625401
      py      :     1.502998
      dz2     :     0.008102  d :     0.065499
      dxz     :     0.004979
      dyz     :     0.017109
      dx2y2   :     0.016388
      dxy     :     0.018920
      f0      :     0.000499  f :     0.006016
      f+1     :     0.000139
      f-1     :     0.000887
      f+2     :     0.001084
      f-2     :     0.000920
      f+3     :     0.001240
      f-3     :     0.001247

  7 H s       :     0.664183  s :     0.664183
      pz      :     0.059156  p :     0.094222
      px      :     0.016322
      py      :     0.018744

  8 H s       :     0.665401  s :     0.665401
      pz      :     0.016924  p :     0.094284
      px      :     0.057152
      py      :     0.020208

  9 H s       :     0.787744  s :     0.787744
      pz      :     0.012980  p :     0.057501
      px      :     0.021408
      py      :     0.023113

 10 H s       :     0.788558  s :     0.788558
      pz      :     0.011396  p :     0.058354
      px      :     0.034679
      py      :     0.012278

 11 H s       :     0.792528  s :     0.792528
      pz      :     0.015834  p :     0.056886
      px      :     0.012396
      py      :     0.028656

 12 H s       :     0.797112  s :     0.797112
      pz      :     0.011662  p :     0.056764
      px      :     0.031289
      py      :     0.013813

 13 H s       :     0.804374  s :     0.804374
      pz      :     0.015884  p :     0.056443
      px      :     0.011668
      py      :     0.028891

 14 H s       :     0.789708  s :     0.789708
      pz      :     0.031621  p :     0.056567
      px      :     0.013030
      py      :     0.011915

 15 H s       :     0.673324  s :     0.673324
      pz      :     0.019481  p :     0.095899
      px      :     0.037078
      py      :     0.039339



                      *****************************
                      * MAYER POPULATION ANALYSIS *
                      *****************************

  NA   - Mulliken gross atomic population
  ZA   - Total nuclear charge
  QA   - Mulliken gross atomic charge
  VA   - Mayer's total valence
  BVA  - Mayer's bonded valence
  FA   - Mayer's free valence

  ATOM       NA         ZA         QA         VA         BVA        FA
  0 N      7.2624     7.0000    -0.2624     3.5145     3.5145     0.0000
  1 C      6.1708     6.0000    -0.1708     3.8307     3.8307    -0.0000
  2 C      6.1887     6.0000    -0.1887     3.8496     3.8496    -0.0000
  3 C      6.2060     6.0000    -0.2060     3.6099     3.6099    -0.0000
  4 C      5.7880     6.0000     0.2120     4.5768     4.5768    -0.0000
  5 O      8.6938     8.0000    -0.6938     1.7046     1.7046     0.0000
  6 O      8.4927     8.0000    -0.4927     1.8945     1.8945    -0.0000
  7 H      0.6568     1.0000     0.3432     0.8785     0.8785     0.0000
  8 H      0.6602     1.0000     0.3398     0.8838     0.8838     0.0000
  9 H      0.8336     1.0000     0.1664     0.9595     0.9595    -0.0000
 10 H      0.8319     1.0000     0.1681     0.9668     0.9668    -0.0000
 11 H      0.8897     1.0000     0.1103     0.9971     0.9971    -0.0000
 12 H      0.8708     1.0000     0.1292     0.9640     0.9640     0.0000
 13 H      0.9012     1.0000     0.0988     0.9959     0.9959    -0.0000
 14 H      0.8816     1.0000     0.1184     0.9787     0.9787    -0.0000
 15 H      0.6718     1.0000     0.3282     0.9051     0.9051    -0.0000

  Mayer bond orders larger than 0.100000
B(  0-N ,  1-C ) :   0.9068 B(  0-N ,  7-H ) :   0.8666 B(  0-N ,  8-H ) :   0.8633 
B(  0-N , 15-H ) :   0.8658 B(  1-C ,  2-C ) :   0.9855 B(  1-C ,  9-H ) :   0.9571 
B(  1-C , 10-H ) :   0.9562 B(  2-C ,  3-C ) :   0.9424 B(  2-C , 11-H ) :   0.9528 
B(  2-C , 12-H ) :   0.9624 B(  3-C ,  4-C ) :   0.9195 B(  3-C , 13-H ) :   0.9676 
B(  3-C , 14-H ) :   0.9381 B(  4-C ,  5-O ) :   1.7276 B(  4-C ,  6-O ) :   1.9010 


-------
TIMINGS
-------

Total SCF time: 0 days 0 hours 0 min 14 sec 

Total time                  ....      14.637 sec
Sum of individual times     ....      14.583 sec  ( 99.6%)

SCF preparation             ....       0.369 sec  (  2.5%)
Fock matrix formation       ....      13.795 sec  ( 94.2%)
  Startup                   ....       0.028 sec  (  0.2% of F)
  Split-RI-J                ....       0.982 sec  (  7.1% of F)
  Chain of spheres X        ....       9.261 sec  ( 67.1% of F)
  XC integration            ....       2.100 sec  ( 15.2% of F)
    XC Preparation          ....       0.000 sec  (  0.0% of XC)
    Basis function eval.    ....       0.589 sec  ( 28.1% of XC)
    Density eval.           ....       0.492 sec  ( 23.4% of XC)
    XC-Functional eval.     ....       0.090 sec  (  4.3% of XC)
    XC-Potential eval.      ....       0.784 sec  ( 37.3% of XC)
  CPCM terms                ....       1.348 sec  (  9.8% of F)
Diagonalization             ....       0.000 sec  (  0.0%)
Density matrix formation    ....       0.054 sec  (  0.4%)
Total Energy calculation    ....       0.038 sec  (  0.3%)
Population analysis         ....       0.019 sec  (  0.1%)
Orbital Transformation      ....       0.035 sec  (  0.2%)
Orbital Orthonormalization  ....       0.000 sec  (  0.0%)
DIIS solution               ....       0.166 sec  (  1.1%)
SOSCF solution              ....       0.108 sec  (  0.7%)
Finished LeanSCF after  14.7 sec

Maximum memory used throughout the entire LEANSCF-calculation: 27.8 MB


-------------------------------------------------------------------------------
                          DFT DISPERSION CORRECTION                            
                                                                               
                                DFTD4 V3.4.0                                   
-------------------------------------------------------------------------------
The B3LYP functional is recognized
Active option DFTDOPT                   ...         5   

-------------------------   ----------------
Dispersion correction           -0.019119634
-------------------------   ----------------


-------------------------   --------------------
FINAL SINGLE POINT ENERGY      -363.025755880514
-------------------------   --------------------

--------------------------------------------------------------------------
WARNING: There was an error initializing an OpenFabrics device.

  Local host:   ga01
  Local device: mlx5_0
--------------------------------------------------------------------------


           ************************************************************
           *        Program running with 6 parallel MPI-processes     *
           *              working on a common directory               *
           ************************************************************
------------------------------------------------------------------------------
                         ORCA SCF GRADIENT CALCULATION
------------------------------------------------------------------------------

Nuc. rep. gradient        (SHARK) ... done (  0.0 sec)
HCore & Overlap gradient  (SHARK) ... done (  0.1 sec)
Split-RIJ-J gradient      (SHARK) ... done (  0.3 sec)
COSX-gradient                     ... [ga01:1277152] 5 more processes have sent help message help-mpi-btl-openib.txt / error in device init
[ga01:1277152] Set MCA parameter "orte_base_help_aggregate" to 0 to see all help / error messages
done (  5.8 sec)
XC gradient                       ... done (  0.8 sec)
CPCM gradient                     ... done (  0.4 sec)
Dispersion correction             ... done (  0.0 sec)

-------------------
DISPERSION GRADIENT
-------------------

   1   N   :   -0.000304507   -0.000084228    0.000663766
   2   C   :   -0.000320410    0.000301274    0.000400326
   3   C   :   -0.000419299    0.000195123   -0.000160886
   4   C   :   -0.000028760   -0.000178208   -0.000461328
   5   C   :    0.000476121   -0.000066479   -0.000349521
   6   O   :    0.000638797   -0.000299785   -0.000093171
   7   O   :    0.000488018    0.000215838   -0.000352585
   8   H   :   -0.000010482   -0.000005548    0.000241425
   9   H   :   -0.000158538   -0.000077940    0.000112821
  10   H   :   -0.000057598    0.000074204    0.000093947
  11   H   :   -0.000039308    0.000085279    0.000159730
  12   H   :   -0.000079107    0.000118070   -0.000077688
  13   H   :   -0.000146119    0.000034600   -0.000070732
  14   H   :    0.000006902   -0.000145448   -0.000105534
  15   H   :   -0.000037045   -0.000047998   -0.000161420
  16   H   :   -0.000008664   -0.000118754    0.000160850

Difference to translation invariance:
           :   -0.0000000000   -0.0000000000    0.0000000000

Difference to rotation invariance:
           :    0.0000000000    0.0000000000   -0.0000000000

Norm of the Dispersion gradient    ...    0.0017200224
RMS gradient                       ...    0.0002482638
MAX gradient                       ...    0.0006637664

------------------
CARTESIAN GRADIENT
------------------

   1   N   :    0.001253922    0.014114676   -0.017224289
   2   C   :   -0.003419893   -0.036500034    0.022826887
   3   C   :    0.005640782   -0.002167589    0.003535641
   4   C   :    0.013440459    0.014361393   -0.000802932
   5   C   :   -0.064570535    0.054691460   -0.039058149
   6   O   :    0.052088295   -0.023983632    0.022086671
   7   O   :    0.003287134   -0.035795429    0.019045667
   8   H   :    0.003661031    0.009426678    0.016286845
   9   H   :   -0.018432219   -0.001418209   -0.005175117
  10   H   :   -0.008774215    0.012626356    0.000400548
  11   H   :    0.012681866    0.008073509   -0.001358280
  12   H   :    0.002547345    0.010244341   -0.008793011
  13   H   :   -0.009690456   -0.004667363   -0.001585726
  14   H   :   -0.001757808   -0.009053277    0.006530246
  15   H   :   -0.002089218   -0.000813510   -0.010954868
  16   H   :    0.014133510   -0.009139371   -0.005760134

Difference to translation invariance:
           :    0.0000000000    0.0000000000   -0.0000000000

Difference to rotation invariance:
           :   -0.0005999064   -0.0006573769   -0.0008564569

Norm of the Cartesian gradient     ...    0.1378144466
RMS gradient                       ...    0.0198918020
MAX gradient                       ...    0.0645705346

-------
TIMINGS
-------

Total SCF gradient time     ....        7.468 sec

Densities                   ....       0.001 sec  (  0.0%)
One electron gradient       ....       0.058 sec  (  0.8%)
RI-J Coulomb gradient       ....       0.346 sec  (  4.6%)
COSX gradient               ....       5.815 sec  ( 77.9%)
XC gradient                 ....       0.816 sec  ( 10.9%)
CPCM gradient               ....       0.408 sec  (  5.5%)
   A-Matrix (El+Nuc)        ....       0.054 sec  (  0.7%)
   Potential                ....       0.353 sec  (  4.7%)

Maximum memory used throughout the entire SCFGRAD-calculation: 35.5 MB
------------------------------------------------------------------------------
                         ORCA GEOMETRY RELAXATION STEP
------------------------------------------------------------------------------

Reading the OPT-File                    .... done
Getting information on internals        .... done
Copying old internal coords+grads       .... done
Making the new internal coordinates     .... (2022 redundants) done
Validating the new internal coordinates .... (2022 redundants) done
Calculating the B-matrix                .... done
Calculating the G,G- and P matrices     .... done
Transforming gradient to internals      .... done
Projecting the internal gradient        .... done
Number of atoms                         ....  16
Number of internal coordinates          ....  65
Current Energy                          ....  -363.025755881 Eh
Current gradient norm                   ....     0.137814447 Eh/bohr
Maximum allowed component of the step   ....  0.300
Current trust radius                    ....  0.300
Evaluating the initial hessian          ....  (Almloef) done
Projecting the Hessian                  .... done
Forming the augmented Hessian           .... done
Diagonalizing the augmented Hessian     .... done
Last element of RFO vector              ....  0.977654436
Lowest eigenvalues of augmented Hessian:
 -0.016999722  0.010322069  0.010583300  0.012624063  0.012837819
Length of the computed step             ....  0.215023285
The final length of the internal step   ....  0.215023285
Converting the step to Cartesian space:
 Initial RMS(Int)=    0.0266703561
Transforming coordinates:
 Iter   0:  RMS(Cart)=    0.0442192777 RMS(Int)=    0.0264521895
 Iter   5:  RMS(Cart)=    0.0000000145 RMS(Int)=    0.0000000125
done
Storing new coordinates                 .... done

                                .--------------------.
          ----------------------|Geometry convergence|-------------------------
          Item                value                   Tolerance       Converged
          ---------------------------------------------------------------------
          RMS gradient        0.0116694220            0.0000300000      NO
          MAX gradient        0.0582007629            0.0001000000      NO
          RMS step            0.0266703561            0.0006000000      NO
          MAX step            0.0864435629            0.0010000000      NO
          ........................................................
          Max(Bonds)      0.0457      Max(Angles)    3.59
          Max(Dihed)        2.56      Max(Improp)    0.00
          ---------------------------------------------------------------------

The optimization has not yet converged - more geometry cycles are needed


    ---------------------------------------------------------------------------
                         Redundant Internal Coordinates
                            (Angstroem and degrees)

        Definition                    Value    dE/dq     Step     New-Value
    ----------------------------------------------------------------------------
     1. B(C   1,N   0)                1.4640 -0.017171  0.0205    1.4844   
     2. B(C   2,C   1)                1.5414  0.009580 -0.0135    1.5279   
     3. B(C   3,C   2)                1.5380  0.001937 -0.0027    1.5353   
     4. B(C   4,C   3)                1.5027 -0.009989  0.0123    1.5150   
     5. B(O   5,C   4)                1.3466  0.058201 -0.0457    1.3009   
     6. B(O   6,C   4)                1.2209 -0.037003  0.0185    1.2394   
     7. B(H   7,N   0)                1.0456  0.018243 -0.0243    1.0213   
     8. B(H   8,N   0)                1.0459  0.018436 -0.0246    1.0213   
     9. B(H   9,C   1)                1.1126  0.014625 -0.0222    1.0904   
    10. B(H  10,C   1)                1.1121  0.014219 -0.0216    1.0905   
    11. B(H  11,C   2)                1.1121  0.013385 -0.0203    1.0918   
    12. B(H  12,C   2)                1.1116  0.010733 -0.0162    1.0954   
    13. B(H  13,C   3)                1.1100  0.011086 -0.0167    1.0933   
    14. B(H  14,C   3)                1.1111  0.011168 -0.0169    1.0943   
    15. B(H  15,N   0)                1.0444  0.017207 -0.0229    1.0215   
    16. A(H   8,N   0,H  15)          110.09  0.005734   -1.23    108.86   
    17. A(H   7,N   0,H   8)          108.77  0.005064   -0.78    107.98   
    18. A(C   1,N   0,H   8)          110.21 -0.004665    0.76    110.97   
    19. A(C   1,N   0,H  15)          110.77 -0.003336    0.55    111.32   
    20. A(C   1,N   0,H   7)          108.87 -0.006893    1.29    110.16   
    21. A(H   7,N   0,H  15)          108.08  0.004287   -0.62    107.46   
    22. A(H   9,C   1,H  10)          107.58  0.000052    0.34    107.92   
    23. A(C   2,C   1,H  10)          110.28 -0.004115    0.55    110.82   
    24. A(N   0,C   1,H  10)          109.71  0.004659   -1.30    108.41   
    25. A(C   2,C   1,H   9)          107.91 -0.003583    1.17    109.09   
    26. A(N   0,C   1,C   2)          112.48 -0.000122   -0.13    112.35   
    27. A(N   0,C   1,H   9)          108.73  0.003079   -0.57    108.15   
    28. A(C   1,C   2,H  11)          108.30  0.003289   -0.86    107.44   
    29. A(C   3,C   2,H  12)          108.69 -0.002828    0.59    109.29   
    30. A(C   1,C   2,H  12)          108.92 -0.000383    0.21    109.14   
    31. A(C   3,C   2,H  11)          108.65 -0.003024    0.53    109.18   
    32. A(C   1,C   2,C   3)          114.47  0.001203   -0.20    114.26   
    33. A(H  11,C   2,H  12)          107.60  0.001842   -0.29    107.31   
    34. A(H  13,C   3,H  14)          107.37  0.000970   -0.32    107.05   
    35. A(C   2,C   3,C   4)          112.26 -0.000080    0.07    112.34   
    36. A(C   4,C   3,H  14)          108.48 -0.000530   -0.00    108.48   
    37. A(C   2,C   3,H  14)          108.76  0.000466   -0.14    108.62   
    38. A(C   4,C   3,H  13)          109.86  0.000532   -0.02    109.84   
    39. A(C   2,C   3,H  13)          109.97 -0.001295    0.39    110.35   
    40. A(O   5,C   4,O   6)          119.64 -0.029547    3.59    123.23   
    41. A(C   3,C   4,O   6)          120.32  0.009150   -0.98    119.34   
    42. A(C   3,C   4,O   5)          120.04  0.020382   -2.58    117.46   
    43. D(H   9,C   1,N   0,H   8)     63.08 -0.002089    0.74     63.81   
    44. D(H   9,C   1,N   0,H   7)    -56.14 -0.001264    0.45    -55.69   
    45. D(H   9,C   1,N   0,H  15)   -174.85 -0.000251    0.07   -174.78   
    46. D(C   2,C   1,N   0,H  15)     65.69  0.002246   -0.93     64.77   
    47. D(C   2,C   1,N   0,H   7)   -175.60  0.001233   -0.55   -176.15   
    48. D(C   2,C   1,N   0,H   8)    -56.38  0.000409   -0.26    -56.64   
    49. D(C   3,C   2,C   1,N   0)    -62.30 -0.001200    1.14    -61.16   
    50. D(H  11,C   2,C   1,H  10)    -60.85  0.002396   -0.15    -61.00   
    51. D(H  11,C   2,C   1,H   9)     56.40 -0.001907    1.24     57.64   
[...]
      py      :     1.232958
      dz2     :     0.046219  d :     0.150533
      dxz     :     0.010525
      dyz     :     0.023887
      dx2y2   :     0.022493
      dxy     :     0.047410
      f0      :     0.001445  f :     0.009845
      f+1     :     0.000453
      f-1     :     0.001854
      f+2     :     0.001656
      f-2     :     0.001550
      f+3     :     0.001190
      f-3     :     0.001698

  1 C s       :     2.799404  s :     2.799404
      pz      :     1.012729  p :     2.973669
      px      :     1.067265
      py      :     0.893675
      dz2     :     0.095865  d :     0.428400
      dxz     :     0.072869
      dyz     :     0.116390
      dx2y2   :     0.050548
      dxy     :     0.092728
      f0      :     0.006657  f :     0.049835
      f+1     :     0.005879
      f-1     :     0.011526
      f+2     :     0.008731
      f-2     :     0.006192
      f+3     :     0.004428
      f-3     :     0.006423

  2 C s       :     2.782337  s :     2.782337
      pz      :     1.004402  p :     3.050232
      px      :     1.019258
      py      :     1.026572
      dz2     :     0.101196  d :     0.384497
      dxz     :     0.067419
      dyz     :     0.085648
      dx2y2   :     0.090197
      dxy     :     0.040037
      f0      :     0.006075  f :     0.037684
      f+1     :     0.008669
      f-1     :     0.006041
      f+2     :     0.004812
      f-2     :     0.004332
      f+3     :     0.003229
      f-3     :     0.004527

  3 C s       :     2.792874  s :     2.792874
      pz      :     1.025892  p :     3.064588
      px      :     1.016966
      py      :     1.021731
      dz2     :     0.094660  d :     0.351824
      dxz     :     0.053604
      dyz     :     0.030535
      dx2y2   :     0.101203
      dxy     :     0.071821
      f0      :     0.004779  f :     0.035751
      f+1     :     0.004001
      f-1     :     0.003159
      f+2     :     0.006684
      f-2     :     0.004918
      f+3     :     0.006603
      f-3     :     0.005607

  4 C s       :     2.779179  s :     2.779179
      pz      :     0.936487  p :     2.714634
      px      :     1.005781
      py      :     0.772366
      dz2     :     0.283132  d :     0.994934
      dxz     :     0.266186
      dyz     :     0.188230
      dx2y2   :     0.143321
      dxy     :     0.114065
      f0      :     0.026937  f :     0.158504
      f+1     :     0.041188
      f-1     :     0.021725
      f+2     :     0.023981
      f-2     :     0.021575
      f+3     :     0.011146
      f-3     :     0.011953

  5 O s       :     3.428220  s :     3.428220
      pz      :     1.462781  p :     4.627212
      px      :     1.646020
      py      :     1.518411
      dz2     :     0.019812  d :     0.060664
      dxz     :     0.019110
      dyz     :     0.014503
      dx2y2   :     0.004085
      dxy     :     0.003153
      f0      :     0.001359  f :     0.004983
      f+1     :     0.001172
      f-1     :     0.001278
      f+2     :     0.000570
      f-2     :     0.000488
      f+3     :     0.000066
      f-3     :     0.000049

  6 O s       :     3.425337  s :     3.425337
      pz      :     1.571277  p :     4.605412
      px      :     1.590322
      py      :     1.443813
      dz2     :     0.012981  d :     0.060427
      dxz     :     0.018336
      dyz     :     0.010015
      dx2y2   :     0.009672
      dxy     :     0.009422
      f0      :     0.000711  f :     0.005389
      f+1     :     0.001212
      f-1     :     0.000545
      f+2     :     0.000946
      f-2     :     0.001169
      f+3     :     0.000352
      f-3     :     0.000455

  7 H s       :     0.687617  s :     0.687617
      pz      :     0.061734  p :     0.102706
      px      :     0.021159
      py      :     0.019812

  8 H s       :     0.688032  s :     0.688032
      pz      :     0.019463  p :     0.102759
      px      :     0.046098
      py      :     0.037198

  9 H s       :     0.797013  s :     0.797013
      pz      :     0.015966  p :     0.060862
      px      :     0.028980
      py      :     0.015917

 10 H s       :     0.794734  s :     0.794734
      pz      :     0.012980  p :     0.061045
      px      :     0.029983
      py      :     0.018082

 11 H s       :     0.792050  s :     0.792050
      pz      :     0.016058  p :     0.059251
      px      :     0.013607
      py      :     0.029586

 12 H s       :     0.796760  s :     0.796760
      pz      :     0.012883  p :     0.059425
      px      :     0.032110
      py      :     0.014431

 13 H s       :     0.797501  s :     0.797501
      pz      :     0.014466  p :     0.059923
      px      :     0.015369
      py      :     0.030088

 14 H s       :     0.800338  s :     0.800338
      pz      :     0.033953  p :     0.059465
      px      :     0.012284
      py      :     0.013228

 15 H s       :     0.654110  s :     0.654110
      pz      :     0.038666  p :     0.159571
      px      :     0.099187
      py      :     0.021718



                      *****************************
                      * MAYER POPULATION ANALYSIS *
                      *****************************

  NA   - Mulliken gross atomic population
  ZA   - Total nuclear charge
  QA   - Mulliken gross atomic charge
  VA   - Mayer's total valence
  BVA  - Mayer's bonded valence
  FA   - Mayer's free valence

  ATOM       NA         ZA         QA         VA         BVA        FA
  0 N      7.2835     7.0000    -0.2835     3.4000     3.4000    -0.0000
  1 C      6.1511     6.0000    -0.1511     3.8692     3.8692    -0.0000
  2 C      6.1939     6.0000    -0.1939     3.8660     3.8660    -0.0000
  3 C      6.2406     6.0000    -0.2406     3.6788     3.6788    -0.0000
  4 C      5.7250     6.0000     0.2750     4.4705     4.4705    -0.0000
  5 O      8.5732     8.0000    -0.5732     1.7902     1.7902    -0.0000
  6 O      8.5297     8.0000    -0.5297     1.9056     1.9056    -0.0000
  7 H      0.6895     1.0000     0.3105     0.9025     0.9025     0.0000
  8 H      0.6947     1.0000     0.3053     0.9075     0.9075    -0.0000
  9 H      0.8450     1.0000     0.1550     0.9637     0.9637    -0.0000
 10 H      0.8469     1.0000     0.1531     0.9673     0.9673    -0.0000
 11 H      0.8798     1.0000     0.1202     0.9700     0.9700    -0.0000
 12 H      0.8767     1.0000     0.1233     0.9632     0.9632    -0.0000
 13 H      0.8842     1.0000     0.1158     0.9713     0.9713     0.0000
 14 H      0.8999     1.0000     0.1001     0.9931     0.9931    -0.0000
 15 H      0.6864     1.0000     0.3136     0.9707     0.9707     0.0000

  Mayer bond orders larger than 0.100000
B(  0-N ,  1-C ) :   0.9043 B(  0-N ,  7-H ) :   0.8862 B(  0-N ,  8-H ) :   0.8848 
B(  0-N , 15-H ) :   0.7422 B(  1-C ,  2-C ) :   0.9873 B(  1-C ,  9-H ) :   0.9621 
B(  1-C , 10-H ) :   0.9635 B(  2-C ,  3-C ) :   0.9519 B(  2-C , 11-H ) :   0.9640 
B(  2-C , 12-H ) :   0.9594 B(  3-C ,  4-C ) :   0.9431 B(  3-C , 13-H ) :   0.9448 
B(  3-C , 14-H ) :   0.9560 B(  4-C ,  5-O ) :   1.5877 B(  4-C ,  6-O ) :   1.9002 
B(  5-O , 15-H ) :   0.2176 

-------
TIMINGS
-------

Total SCF time: 0 days 0 hours 0 min 5 sec 

Total time                  ....       5.977 sec
Sum of individual times     ....       5.942 sec  ( 99.4%)

SCF preparation             ....       0.361 sec  (  6.0%)
Fock matrix formation       ....       5.410 sec  ( 90.5%)
  Startup                   ....       0.008 sec  (  0.2% of F)
  Split-RI-J                ....       0.235 sec  (  4.3% of F)
  Chain of spheres X        ....       4.310 sec  ( 79.7% of F)
  XC integration            ....       0.518 sec  (  9.6% of F)
    Basis function eval.    ....       0.131 sec  ( 25.3% of XC)
    Density eval.           ....       0.119 sec  ( 22.9% of XC)
    XC-Functional eval.     ....       0.021 sec  (  4.0% of XC)
    XC-Potential eval.      ....       0.214 sec  ( 41.4% of XC)
  CPCM terms                ....       0.323 sec  (  6.0% of F)
Diagonalization             ....       0.000 sec  (  0.0%)
Density matrix formation    ....       0.010 sec  (  0.2%)
Total Energy calculation    ....       0.011 sec  (  0.2%)
Population analysis         ....       0.071 sec  (  1.2%)
Orbital Transformation      ....       0.017 sec  (  0.3%)
Orbital Orthonormalization  ....       0.000 sec  (  0.0%)
DIIS solution               ....       0.021 sec  (  0.4%)
SOSCF solution              ....       0.041 sec  (  0.7%)
Finished LeanSCF after   6.1 sec

Maximum memory used throughout the entire LEANSCF-calculation: 31.4 MB


-------------------------------------------------------------------------------
                          DFT DISPERSION CORRECTION                            
                                                                               
                                DFTD4 V3.4.0                                   
-------------------------------------------------------------------------------
The B3LYP functional is recognized
Active option DFTDOPT                   ...         5   

-------------------------   ----------------
Dispersion correction           -0.020312995
-------------------------   ----------------


-------------------------   --------------------
FINAL SINGLE POINT ENERGY      -363.049090497767
-------------------------   --------------------

                                *** OPTIMIZATION RUN DONE ***

--------------------------------------------------------------------------
WARNING: There was an error initializing an OpenFabrics device.

  Local host:   ga01
  Local device: mlx5_0
--------------------------------------------------------------------------


           ************************************************************
           *        Program running with 6 parallel MPI-processes     *
           *              working on a common directory               *
           ************************************************************

------------------------------------------------------------------------------
                              ORCA PROPERTY CALCULATIONS
------------------------------------------------------------------------------

GBWName                                 ... 05_Aminobutyric-acid_zwitterion.gbw
Number of atoms                         ...     16
Number of basis functions               ...    271
Max core memory                         ...   5000 MB

Electric properties:
Dipole moment                           ... YES
Quadrupole moment                       ...  NO
Static polarizability (Dipole/Dipole)   ...  NO
Static polarizability (Dipole/Quad.)    ...  NO
Static polarizability (Quad./Quad.)     ...  NO
Static polarizability (Velocity)        ...  NO

Atomic electric properties:
Dipole moment                           ...  NO
Quadrupole moment                       ...  NO
Static polarizability                   ...  NO

Choice of electric origin               ... Center of mass
Position of electric origin             ...     3.812277     2.233502    -2.575392

General magnetic properties:
Magnetizability                         ...  NO

EPR properties:
g-Tensor (aka g-matrix)                 ...  NO
Zero-Field splitting spin-orbit         ...  NO
Zero-field splitting spin-spin          ...  NO
Hyperfine couplings                     ...  NO (   0 nuclei)
Quadrupole couplings                    ...  NO (   0 nuclei)
Contact density                         ...  NO (   0 nuclei)

NMR properties:
Chemical shifts                         ...  NO (   0 nuclei)
Spin-rotation constants                 ...  NO (   0 nuclei)
Spin-spin couplings                     ...  NO (   0 nuclei,    0 pairs)

Choice of magnetic origin               ... GIAO
Position of magnetic origin             ...     0.000000     0.000000     0.000000

Properties with geometric perturbations:
SCF Hessian                             ...  NO
IR spectrum                             ...  NO
VCD spectrum                            ...  NO
X-ray spectroscopy properties:
SCF XES/XAS/RIXS spectra                ...  NO


-------------
DIPOLE MOMENT
-------------

Method             : SCF
Type of density    : Electron Density
Multiplicity       :   1
Irrep              :   0
Energy             :  -363.0287775027286443 Eh
Relativity type    : 
Basis              : AO
                                X                 Y                 Z
Electronic contribution:      4.636720510      -1.326985285      -0.604979145
Nuclear contribution   :     -9.475249069       1.323199076       3.911270703
                        -----------------------------------------
Total Dipole Moment    :     -4.838528560      -0.003786208       3.306291557
                        -----------------------------------------
Magnitude (a.u.)       :      5.860284705
Magnitude (Debye)      :     14.895659942



--------------------
Rotational spectrum 
--------------------
 
Rotational constants in cm-1:             0.142860             0.066100             0.052634 
Rotational constants in MHz :          4282.831825          1981.627488          1577.934638 

Dipole components along the rotational axes: 
x,y,z [a.u.] :     5.789361    -0.232819     0.878652 
x,y,z [Debye]:    14.715387    -0.591778     2.233355 

 

Dipole moment calculation done in   0.0 sec 

Maximum memory used throughout the entire PROP-calculation: 17.1 MB
[ga01:1289693] 5 more processes have sent help message help-mpi-btl-openib.txt / error in device init
[ga01:1289693] Set MCA parameter "orte_base_help_aggregate" to 0 to see all help / error messages
--------------------------------------------------------------------------
WARNING: There was an error initializing an OpenFabrics device.

  Local host:   ga01
  Local device: mlx5_0
--------------------------------------------------------------------------
[ga01:1289750] 5 more processes have sent help message help-mpi-btl-openib.txt / error in device init
[ga01:1289750] Set MCA parameter "orte_base_help_aggregate" to 0 to see all help / error messages

--------------------------------
SUGGESTED CITATIONS FOR THIS RUN
--------------------------------

Below you find a list of papers that are relevant to this ORCA run
We neither can nor want to force you to cite these papers, but we appreciate if you do
You receive ORCA, which is the product of decades of hard work by many enthusiastic individuals, for free
The only thing we kindly ask in return is that you cite our papers,
We deeply appreciate it, if you show your appreciation for ORCA by not just citing the generic ORCA reference.

Please note that relegating all ORCA citations to the supporting information does *not* help us.
SI sections are not indexed - citations you put there will not count into any citation statistics
But we need these citations in order to attract the funding resources that allow us to do what we are doing

Therefore, if you are a happy ORCA user, please consider citing a few of the papers listed below in the main body of your paper

In addition to the list printed below, the program has created the file 05_Aminobutyric-acid_zwitterion.bibtex that contains the list in bibtex format
You can import this file easily into all common literature databanks and citation aid programs


List of essential papers. We consider these as the minimum necessary citations

  1. Neese,F.
     Software update: the ORCA program system, version 5.0
     WIRES Comput. Molec. Sci., 2022 12(1)e1606
     doi.org/10.1002/wcms.1606

List of papers to cite with high priority. The work reported in these papers was absolutely
necessary for this run to complete.
Our perspective: the developers of density functionals and basis sets usually get cited in chemistry papers
Good! But without the algorithms to do something with them, the functionals or basis sets would not do anything.
Hence, in our opinion, the algorithm design and method developments papers are equally worthy of getting cited

  1. Neese,F.
     An improvement of the resolution of the identity approximation for the formation of the Coulomb matrix
     J. Comp. Chem., 2003 24(14)1740-1747
     doi.org/10.1002/jcc.10318
  2. Neese,F.; Wennmohs,F.; Hansen,A.; Becker,U.
     Efficient, approximate and parallel Hartree-Fock and hybrid DFT calculations. A 'chain-of-spheres' algorithm for the Hartree-Fock exchange
     Chem. Phys., 2009 356(1-3)98-109
     doi.org/10.1016/j.chemphys.2008.10.036
  3. Garcia-Rates,M.; Neese,F.
     Effect of the Solute Cavity on the Solvation Energy and its Derivatives within the Framework of the Gaussian Charge Scheme
     J. Comput. Chem., 2020 41 922-939
     doi.org/10.1002/jcc.26139
  4. Helmich-Paris,B.; de Souza,B.; Neese,F.; Izsák,R.
     An improved chain of spheres for exchange algorithm
     J. Chem. Phys., 2021 155 104109
     doi.org/doi: 10.1063/5.0058766.
  5. Neese,F.
     The SHARK Integral Generation and Digestion System
     J. Comp. Chem., 2022  1-16
     doi.org/10.1002/jcc.26942
  6. Caldeweyher,E.; Bannwarth,C.; Grimme,S.
     Extension of the D3 dispersion coefficient model
     J. Chem. Phys., 2017 147 034112
     doi.org/10.1063/1.4993215
  7. Caldeweyher,E.; Ehlert,S.; Hansen,A.; Neugebauer,H.; Spicher,S.; Bannwarth,C.; Grimme,S.
     A generally applicable atomic-charge dependent London dispersion correction
     J. Chem. Phys., 2019 150 154122
     doi.org/10.1063/1.5090222
  8. Caldeweyher,E.; Mewes,J.; Ehlert,S.; Grimme,S.
     Extension and evaluation of the D4 London-dispersion model for periodic systems
     Phys. Chem. Chem. Phys., 2020 22(16)8499-8512
     doi.org/10.1039/D0CP00502A
  9. Wittmann,L.; Gordiy,I.; Friede,M.; Helmich-Paris,B.; Grimme,S.; Hansen,A.; Bursch,M.
     Extension of the D3 and D4 London Dispersion Corrections to the full Actinides Series
     Phys. Chem. Chem. Phys., 2024 26(32)21379-21394
     doi.org/https://doi.org/10.1039/D4CP01514B 

List of suggested additional citations. These are papers that are important in the 'surrounding' of 
of this run, or papers that preceded the highly important papers. If you like your results we are grateful for a citation.

  1. Izsak,R.; Neese,F.
     An overlap fitted chain of spheres exchange method
     J. Chem. Phys., 2011 135 144105
     doi.org/10.1063/1.3646921
  2. Izsak,R.; Hansen,A.; Neese,F.
     The resolution of identity and chain of spheres approximations for the LPNO-CCSD singles Fock term
     Molec. Phys., 2012 110 2413-2417
     doi.org/10.1080/00268976.2012.687466
  3. Neese,F.
     The ORCA program system
     WIRES Comput. Molec. Sci., 2012 2(1)73-78
     doi.org/10.1002/wcms.81
  4. Izsak,R.; Neese,F.; Klopper,W.
     Robust fitting techniques in the chain of spheres approximation to the Fock exchange: The role of the complementary space
     J. Chem. Phys., 2013 139 
     doi.org/10.1063/1.4819264
  5. Neese,F.
     Software update: the ORCA program system, version 4.0
     WIRES Comput. Molec. Sci., 2018 8(1)1-6
     doi.org/10.1002/wcms.1327
  6. Neese,F.; Wennmohs,F.; Becker,U.; Riplinger,C.
     The ORCA quantum chemistry program package
     J. Chem. Phys., 2020 152 Art. No. L224108
     doi.org/10.1063/5.0004608

List of optional additional citations

  1. Neese,F.
     Approximate second-order SCF convergence for spin unrestricted wavefunctions
     Chem. Phys. Lett., 2000 325(1-3)93-98
     doi.org/10.1016/s0009-2614(00)00662-x

Timings for individual modules:

Sum of individual times          ...      481.154 sec (=   8.019 min)
Startup calculation              ...       25.007 sec (=   0.417 min)   5.2 %
SCF iterations                   ...      274.360 sec (=   4.573 min)  57.0 %
Property calculations            ...        0.415 sec (=   0.007 min)   0.1 %
SCF Gradient evaluation          ...      181.285 sec (=   3.021 min)  37.7 %
Geometry relaxation              ...        0.087 sec (=   0.001 min)   0.0 %
                             ****ORCA TERMINATED NORMALLY****
TOTAL RUN TIME: 0 days 0 hours 8 minutes 11 seconds 188 msec
