
                                 *****************
                                 * O   R   C   A *
                                 *****************

                                            #,                                       
                                            ###                                      
                                            ####                                     
                                            #####                                    
                                            ######                                   
                                           ########,                                 
                                     ,,################,,,,,                         
                               ,,#################################,,                 
                          ,,##########################################,,             
                       ,#########################################, ''#####,          
                    ,#############################################,,   '####,        
                  ,##################################################,,,,####,       
                ,###########''''           ''''###############################       
              ,#####''   ,,,,##########,,,,          '''####'''          '####       
            ,##' ,,,,###########################,,,                        '##       
           ' ,,###''''                  '''############,,,                           
         ,,##''                                '''############,,,,        ,,,,,,###''
      ,#''                                            '''#######################'''  
     '                                                          ''''####''''         
             ,#######,   #######,   ,#######,      ##                                
            ,#'     '#,  ##    ##  ,#'     '#,    #''#        ,####,   ,####,        
            ##       ##  ##   ,#'  ##            #'  '#       #'       #'  '#        
            ##       ##  #######   ##           ,######,      #####,   #    #        
            '#,     ,#'  ##    ##  '#,     ,#' ,#      #,     #,   #   #,  ,#        
             '#######'   ##     ##  '#######'  #'      '#     '####' # '####'        



                #########################################################
                #                        -***-                          #
                #          Department of theory and spectroscopy        #
                #                                                       #
                #                      Frank Neese                      #
                #                                                       #
                #     Directorship, Architecture, Infrastructure        #
                #                    SHARK, DRIVERS                     #
                #        Core code/Algorithms in most modules           #
                #                                                       #
                #        Max Planck Institute fuer Kohlenforschung      #
                #                Kaiser Wilhelm Platz 1                 #
                #                 D-45470 Muelheim/Ruhr                 #
                #                      Germany                          #
                #                                                       #
                #                  All rights reserved                  #
                #                        -***-                          #
                #########################################################


                         Program Version 6.0.1  -  RELEASE   -


 With contributions from (in alphabetic order):
[Max-Planck-Institut fuer Kohlenforschung]                               
  Daniel Aravena         : Magnetic Suceptibility                        
  Michael Atanasov       : Ab Initio Ligand Field Theory (pilot matlab implementation)
  Alexander A. Auer      : GIAO ZORA, VPT2 properties, NMR spectrum      
  Ute Becker             : All parallelization in ORCA, NUMFREQ, NUMCALC 
  Giovanni Bistoni       : ED, misc. LED, open-shell LED, HFLD           
  Martin Brehm           : Molecular dynamics                            
  Dmytro Bykov           : pre 5.0 version of the SCF Hessian            
  Marcos Casanova-Páez   : Triplet and SCS-CIS(D). UHF-(DLPNO)-IP/EA/STEOM-CCSD. UHF-CVS-IP/STEOM-CCSD   
  Vijay G. Chilkuri      : MRCI spin determinant printing, contributions to CSF-ICE 
  Pauline Colinet        : FMM embedding                                 
  Dipayan Datta          : RHF DLPNO-CCSD density                        
  Achintya Kumar Dutta   : EOM-CC, STEOM-CC                              
  Nicolas Foglia         : Exact transition moments, OPA infrastructure, MCD improvements    
  Dmitry Ganyushin       : Spin-Orbit,Spin-Spin,Magnetic field MRCI      
  Miquel Garcia-Rates    : C-PCM and meta-GGA Hessian, CCSD/C-PCM, Gaussian charge scheme 
  Tiago L. C. Gouveia    : GS-ROHF, GS-ROCIS                             
  Yang Guo               : DLPNO-NEVPT2, F12-NEVPT2, CIM, IAO-localization        
  Andreas Hansen         : Spin unrestricted coupled pair/coupled cluster methods 
  Ingolf Harden          : AUTO-CI MPn and infrastructure                
  Benjamin Helmich-Paris : MC-RPA, TRAH-(SCF,CASSCF), AVAS, COSX integrals, SCF dyn. polar. 
  Lee Huntington         : MR-EOM, pCC                                   
  Robert Izsak           : Overlap fitted RIJCOSX, COSX-SCS-MP3, EOM     
  Riya Kayal             : Wick's Theorem for AUTO-CI, AUTO-CI UHF-CCSDT 
  Emily Kempfer          : AUTO-CI, RHF CISDT and CCSDT                  
  Christian Kollmar      : KDIIS, OOCD, Brueckner-CCSD(T), CCSD density, CASPT2, CASPT2-K, improved NEVPT2 
  Axel Koslowski         : Symmetry handling                             
  Simone Kossmann        : meta-GGA functionals, TD-DFT gradient, OOMP2, (MP2 Hessian; deprecated post 5.0) 
  Lucas Lang             : DCDCAS                                        
  Marvin Lechner         : AUTO-CI (C++ implementation), FIC-MRCC        
  Spencer Leger          : CASSCF response                               
  Dagmar Lenk            : GEPOL surface, SMD, ORCA-2-JSON               
  Dimitrios Liakos       : Extrapolation schemes; Compound Job, initial MDCI parallelization 
  Dimitrios Manganas     : Further ROCIS development; embedding schemes. LFT, Crystal Embedding 
  Dimitrios Pantazis     : SARC Basis sets                               
  Anastasios Papadopoulos: AUTO-CI, single reference methods and gradients 
  Taras Petrenko         : pre 6.0 DFT Hessian and TD-DFT gradient, (ASA, deprecated), ECA, 1-Electron XAS/XES, NRVS 
  Peter Pinski           : DLPNO-MP2, DLPNO-MP2 Gradient                 
  Christoph Reimann      : Effective Core Potentials                     
  Marius Retegan         : Local ZFS, SOC                                
  Christoph Riplinger    : Optimizer, TS searches, QM/MM, DLPNO-CCSD(T), (RO)-DLPNO pert. Triples 
  Michael Roemelt        : Original ROCIS implementation                 
  Masaaki Saitow         : Open-shell DLPNO-CCSD energy and density      
  Barbara Sandhoefer     : DKH picture change effects                    
  Kantharuban Sivalingam : CASSCF convergence/infrastructure, NEVPT2 and variants, FIC-MRCI 
  Bernardo de Souza      : ESD, SOC TD-DFT                               
  Georgi L. Stoychev     : AutoAux, RI-MP2 NMR, DLPNO-MP2 response, X2C  
  Van Anh Tran           : RI-MP2 g-tensors                              
  Willem Van den Heuvel  : Paramagnetic NMR                              
  Zikuan Wang            : NOTCH, Electric field optimization            
  Frank Wennmohs         : Technical directorship and infrastructure     
  Hang Xu                : AUTO-CI-Response properties                   
                                                                         
[FACCTs GmbH]                                                            
  Markus Bursch, Miquel Garcia-Rates, Christoph Riplinger, Bernardo de Souza, Georgi L. Stoychev 
                                                                 
  APM, Basis sets (HGBS, AHGBS, def-TZVP (Ac-Lr), def2-XVPD (La-Lu)), CI-OPT, improved COSX, DLPNO-Multilevel,           
  DOCKER, DRACO, updates on ESD, GOAT, IRC, LR-CPCM, MBIS, meta-GGA TD-DFT gradient, ML-optimized integration grids, 
  MM, NACMEs, nearIR, NEB, NEB-TS, NL-DFT gradient (VV10), 2- and 3-layer-ONIOM, interface openCOSMO-RS, QMMM,   
  Crystal-QMMM, SF, symmetry and pop. for TD-DFT, r2SCAN hybrids, SOLVATOR                                   
                                                                         
[Other institutions]                                                     
  V. Asgeirsson          : NEB                                           
  Christoph Bannwarth    : sTDA-DFT, sTD-DFT, PBEh-3c, B97-3c, D3        
  Sebastian Ehlert       : rSCAN, r2SCAN, r2SCAN-3c, D4, dhf basis sets  
  Marvin Friede          : D4 for Fr, Ra, Ac-Lr                          
  Lars Goerigk           : TD-DFT with DH, B97 family of functionals     
  Stefan Grimme          : VdW corrections, initial TS optimization, DFT functionals, gCP, sTDA/sTD-DF 
  Waldemar Hujo          : DFT-NL                                        
  H. Jonsson             : NEB                                           
  Holger Kruse           : gCP                                           
  Marcel Mueller         : wB97X-3c, vDZP basis set                      
  Hagen Neugebauer       : wr2SCAN                                       
  Tobias Risthaus        : range-separated hybrid DFT                    
  Lukas Wittmann         : regularized MP2, r2SCAN double-hybrids, wr2SCAN        
                                                                         
We gratefully acknowledge several colleagues who have allowed us to      
interface, adapt or use parts of their codes:                            
  Ed Valeev, F. Pavosevic, A. Kumar             : LibInt (2-el integral package), F12 methods 
  Garnet Chan, S. Sharma, J. Yang, R. Olivares  : DMRG                   
  Ulf Ekstrom                                   : XCFun DFT Library      
  Mihaly Kallay                                 : mrcc  (arbitrary order and MRCC methods)
  Frank Weinhold                                : gennbo (NPA and NBO analysis)           
  Simon Mueller                                 : openCOSMO-RS                            
  Christopher J. Cramer and Donald G. Truhlar   : smd solvation model                     
  S Lehtola, MJT Oliveira, MAL Marques          : LibXC Library                           
  Liviu Ungur et al                             : ANISO software                          


 Your calculation uses the libint2 library for the computation of 2-el integrals
 For citations please refer to: http://libint.valeyev.net

 Your ORCA version has been built with support for libXC version: 6.2.2
 For citations please refer to: https://libxc.gitlab.io

 This ORCA versions uses:
   CBLAS   interface :  Fast vector & matrix operations
   LAPACKE interface :  Fast linear algebra routines
   SCALAPACK package :  Parallel linear algebra routines
   Shared memory     :  Shared parallel matrices
   BLAS/LAPACK       :  OpenBLAS 0.3.27  USE64BITINT DYNAMIC_ARCH NO_AFFINITY SkylakeX SINGLE_THREADED
        Core in use  :  SkylakeX
   Copyright (c) 2011-2014, The OpenBLAS Project


NOTE: MaxCore=5000 MB was set to SCF,MP2,MDCI,CIPSI,MRCI and CIS
      => If you want to overwrite this, your respective input block should be placed after the MaxCore statement
Your calculation utilizes the atom-pairwise dispersion correction
based on EEQ partial charges (D4)


Warning: RI is on but no J-basis has been assigned. Assigning Def2/J (nothing to worry about!)
================================================================================

----- Orbital basis set information -----
Your calculation utilizes the basis: def2-TZVP
   F. Weigend and R. Ahlrichs, Phys. Chem. Chem. Phys. 7, 3297 (2005).

----- AuxJ basis set information -----
Your calculation utilizes the auxiliary basis: def2/J
   F. Weigend, Phys. Chem. Chem. Phys. 8, 1057 (2006).

================================================================================
                                        WARNINGS
                       Please study these warnings very carefully!
================================================================================

WARNING: Old DensityContainer found on disk!
         Will remove this file - 
         If you want to keep old densities, please start your calculation with a different basename. 


WARNING: Geometry Optimization
  ===> : Switching off AutoStart
         For restart on a previous wavefunction, please use MOREAD

================================================================================
                                       INPUT FILE
================================================================================
NAME = 02_Alanine_zwitterion.inp
|  1> ! Opt B3LYP D4 def2-TZVP TightSCF TightOpt CPCM(water)
|  2> 
|  3> %maxcore 5000
|  4> 
|  5> %pal
|  6> nprocs 10
|  7> end
|  8> 
|  9> %geom
| 10>     MaxIter 500
| 11> end
| 12> 
| 13> * xyz 0 1
| 14>   O           0.04864579930993      2.06191677818554     -4.88966036198389
| 15>   H          -0.65020856190437      2.69621594402791     -5.09739509997401
| 16>   H           0.13469965808906      1.51357708318887     -5.68090968497662
| 17>   H          -0.13408490966839      2.28148604717505      1.03946079488392
| 18>   O           0.40556671271376      2.64298237738785      1.78446273034851
| 19>   H           1.09844025146407      3.17045566856497      1.36940087193802
| 20>   H          -1.00749422862861     -1.54903984833112      0.38917285282137
| 21>   O          -1.45517373525651     -0.88014868204464      0.92191576704809
| 22>   H          -1.26110004298263     -0.02144089375750      0.48422354880890
| 23>   H          -2.27099197502724     -0.50608869858251     -1.78802934332470
| 24>   C          -2.07473278303765      0.28506068873505     -2.50896735721354
| 25>   H          -0.17446406613459     -0.54169192606568     -2.87951972227567
| 26>   H          -2.48580356135504     -0.01598025841670     -3.47093814639504
| 27>   N          -0.59452841555858      0.38495427658082     -2.66316418584351
| 28>   H          -3.75780371431846      1.49398729152375     -1.98721441240150
| 29>   C          -2.67456133890605      1.60510353870688     -2.05537196930313
| 30>   O          -1.12909701176567      1.59549028344643     -0.21114491228657
| 31>   C          -2.16543684418692      2.14668356073730     -0.71486678185944
| 32>   H          -0.21879972192642      0.74618255855648     -1.77977572254684
| 33>   O          -2.78199744584477      3.10819541582567     -0.22154470144339
| 34>   H          -0.34458053169180      1.03412426286321     -3.43058819572436
| 35>   H          -2.49296762421138      2.38065590882112     -2.80596136832903
| 36>   O          -4.24873514997257     -0.90436980335591      0.62458464614013
| 37>   H          -3.27179993663755     -0.92438750023091      0.69786277733148
| 38>   H          -4.42673588638113     -0.48098627728306     -0.22319769873685
| 39>   O           1.01109687854831     -1.44653064382271     -6.10779763733452
| 40>   H           1.60266873290781     -0.68347981489309     -6.15115708212337
| 41>   H           0.21894148497765     -1.17655448866911     -6.59153542708488
| 42>   O          -1.98959672388907      4.14198421280850      2.23707226919198
| 43>   H          -1.09790140685958      3.75427087431568      2.29115050002489
| 44>   H          -2.31410703533223      3.79989334412057      1.37565195157039
| 45>   O           0.39971219004864     -2.11496559755299     -3.48197516776076
| 46>   H           1.20440590445746     -2.42286304580459     -3.04676290893679
| 47>   H           0.65338503896114     -1.92624263676143     -4.41232082224835
| 48> *
| 49> 
| 50>                          ****END OF INPUT****
================================================================================

                       *****************************
                       * Geometry Optimization Run *
                       *****************************

Geometry optimization settings:
Update method            Update   .... BFGS
Choice of coordinates    CoordSys .... (2022) Redundant Internals
Initial Hessian          InHess   .... Almloef's Model
Max. no of cycles        MaxIter  .... 500

Convergence Tolerances:
Energy Change            TolE     ....  1.0000e-06 Eh
Max. Gradient            TolMAXG  ....  1.0000e-04 Eh/bohr
RMS Gradient             TolRMSG  ....  3.0000e-05 Eh/bohr
Max. Displacement        TolMAXD  ....  1.0000e-03 bohr
RMS Displacement         TolRMSD  ....  6.0000e-04 bohr
Strict Convergence                .... False

------------------------------------------------------------------------------
                        ORCA OPTIMIZATION COORDINATE SETUP
------------------------------------------------------------------------------

The optimization will be done in redundant internal coordinates (2022)
Making redundant internal coordinates   ...  (2022 redundants) done
Evaluating the initial hessian          ...  (Almloef) done
Evaluating the coordinates              ...  done
Calculating the B-matrix                .... done
Calculating the G-matrix                .... done
Diagonalizing the G-matrix              .... done
Small eigenvalue found = 5.550e-03
Small eigenvalue found = 7.253e-03
Small eigenvalue found = 1.488e-02
Small eigenvalue found = 1.627e-02
Small eigenvalue found = 2.015e-02
Small eigenvalue found = 2.430e-02
The first mode is                       ....  111
The number of degrees of freedom        ....   96

    -----------------------------------------------------------------
                    Redundant Internal Coordinates


    -----------------------------------------------------------------
         Definition                    Initial Value    Approx d2E/dq
    -----------------------------------------------------------------
      1. B(H   1,O   0)                  0.9664         0.507915   
      2. B(H   2,O   0)                  0.9665         0.507654   
      3. B(O   4,H   3)                  0.9884         0.468445   
      4. B(H   5,O   4)                  0.9647         0.511122   
      5. B(O   7,H   6)                  0.9652         0.510083   
      6. B(H   8,O   7)                  0.9832         0.477534   
      7. B(C  10,H   9)                  1.0882         0.362485   
      8. B(H  12,C  10)                  1.0886         0.361992   
      9. B(N  13,H  11)                  1.0402         0.387323   
     10. B(N  13,C  10)                  1.4916         0.385335   
     11. B(C  15,H  14)                  1.0911         0.358704   
     12. B(C  15,C  10)                  1.5192         0.388653   
     13. B(O  16,H   8)                  1.7651         0.027011   
     14. B(O  16,H   3)                  1.7392         0.029708   
     15. B(C  17,C  15)                  1.5328         0.369754   
     16. B(C  17,O  16)                  1.2773         0.846539   
     17. B(H  18,N  13)                  1.0257         0.408477   
     18. B(H  18,O  16)                  2.0026         0.011285   
     19. B(O  19,C  17)                  1.2442         0.956092   
     20. B(H  20,H   1)                  2.3736         0.000617   
     21. B(H  20,H   2)                  2.3502         0.000673   
     22. B(H  20,O   0)                  1.8275         0.021472   
     23. B(H  20,N  13)                  1.0358         0.393612   
     24. B(H  21,C  15)                  1.0945         0.354248   
     25. B(H  23,H   6)                  2.3691         0.000628   
     26. B(H  23,H   8)                  2.2145         0.001108   
     27. B(H  23,O  22)                  0.9799         0.483329   
     28. B(H  23,O   7)                  1.8309         0.021206   
     29. B(H  24,O  22)                  0.9642         0.512004   
     30. B(H  26,O  25)                  0.9665         0.507724   
     31. B(H  27,O  25)                  0.9666         0.507420   
     32. B(H  29,O  28)                  0.9738         0.494179   
     33. B(H  29,H   3)                  2.1598         0.001354   
     34. B(H  29,O   4)                  1.9370         0.014360   
     35. B(H  30,O  28)                  0.9820         0.479538   
     36. B(H  30,O  19)                  1.8023         0.023555   
     37. B(O  31,H  11)                  1.7798         0.025584   
     38. B(H  32,O  31)                  0.9653         0.509990   
     39. B(H  33,O  31)                  0.9826         0.478525   
     40. B(H  33,O  25)                  1.7980         0.023935   
     41. B(H  33,H  11)                  2.2253         0.001065   
     42. A(H   2,O   0,H  20)          110.7136         0.201569   
     43. A(H   1,O   0,H   2)          105.1168         0.319351   
     44. A(H   1,O   0,H  20)          112.6535         0.201582   
     45. A(O   0,H   1,H  20)           45.2778         0.129791   
     46. A(O   0,H   2,H  20)           46.6636         0.130589   
     47. A(O   4,H   3,H  29)           63.7315         0.136845   
     48. A(O  16,H   3,H  29)          115.4930         0.114629   
     49. A(H   3,O   4,H   5)          105.5351         0.315520   
     50. A(H   3,O   4,H  29)           89.0382         0.189920   
     51. A(H   5,O   4,H  29)          110.8753         0.191931   
     52. A(O   7,H   6,H  23)           45.7383         0.129986   
     53. A(H   6,O   7,H  23)          112.0802         0.201374   
     54. A(H   6,O   7,H   8)          105.5451         0.316403   
     55. A(H   8,O   7,H  23)           99.3509         0.199709   
     56. A(O  16,H   8,H  23)          118.6490         0.112968   
     57. A(O   7,H   8,O  16)          171.9972         0.205941   
     58. A(O   7,H   8,H  23)           54.6680         0.134918   
     59. A(H   9,C  10,C  15)          111.2657         0.326791   
     60. A(H   9,C  10,H  12)          108.4388         0.291381   
     61. A(H  12,C  10,C  15)          110.7958         0.326718   
     62. A(H   9,C  10,N  13)          107.2270         0.324377   
     63. A(N  13,C  10,C  15)          111.3763         0.365475   
     64. A(H  12,C  10,N  13)          107.5725         0.324304   
     65. A(N  13,H  11,H  33)          147.9742         0.132402   
     66. A(O  31,H  11,H  33)           25.4237         0.112464   
     67. A(N  13,H  11,O  31)          171.1753         0.199167   
     68. A(C  10,N  13,H  18)          107.3423         0.328009   
     69. A(C  10,N  13,H  11)          111.2605         0.325150   
     70. A(H  18,N  13,H  20)          109.2080         0.295996   
     71. A(H  11,N  13,H  20)          107.8654         0.293520   
     72. A(C  10,N  13,H  20)          110.9803         0.326012   
     73. A(H  11,N  13,H  18)          110.1791         0.295243   
     74. A(H  14,C  15,C  17)          108.1271         0.323566   
     75. A(H  14,C  15,H  21)          106.2448         0.289916   
     76. A(C  10,C  15,C  17)          115.9110         0.365176   
     77. A(C  17,C  15,H  21)          107.1148         0.322903   
     78. A(C  10,C  15,H  14)          108.7935         0.326227   
     79. A(C  10,C  15,H  21)          110.2086         0.325557   
     80. A(H   3,O  16,H   8)           96.9402         0.151370   
     81. A(H   8,O  16,C  17)          119.3402         0.243450   
     82. A(H   3,O  16,C  17)          125.2787         0.246813   
     83. A(C  15,C  17,O  16)          117.5101         0.415677   
     84. A(C  15,C  17,O  19)          117.0784         0.424801   
     85. A(O  16,C  17,O  19)          125.3926         0.490712   
     86. A(C  17,O  19,H  30)          121.2859         0.242918   
     87. A(O   0,H  20,N  13)          174.8329         0.195270   
     88. A(H   1,H  20,H   2)           37.9119         0.096365   
     89. A(O   0,H  20,H   1)           22.0687         0.108934   
     90. A(H   1,H  20,N  13)          158.1366         0.127504   
     91. A(O   0,H  20,H   2)           22.6228         0.109326   
     92. A(H   2,H  20,N  13)          152.4357         0.128261   
     93. A(H  23,O  22,H  24)          104.9976         0.317218   
     94. A(H   6,H  23,H   8)           39.3863         0.097276   
     95. A(H   6,H  23,O   7)           22.1815         0.108954   
     96. A(H   6,H  23,O  22)          161.5388         0.129489   
     97. A(O   7,H  23,H   8)           25.9811         0.111691   
     98. A(H   8,H  23,O  22)          152.8364         0.135044   
     99. A(H  26,O  25,H  27)          104.9897         0.319307   
    100. A(H  27,O  25,H  33)          112.5431         0.204358   
    101. A(H  26,O  25,H  33)          112.0076         0.204374   
    102. A(H  29,O  28,H  30)          102.2746         0.314992   
    103. A(H   3,H  29,O   4)           27.2303         0.110741   
    104. A(H   3,H  29,O  28)          130.3844         0.137427   
    105. A(O   4,H  29,O  28)          157.6051         0.191149   
    106. L(O  19,H  30,O  28,H  29, 2) 179.7979         0.202480   
    107. L(O  19,H  30,O  28,H  29, 1) 175.4331         0.202480   
    108. A(H  32,O  31,H  33)          105.8392         0.316500   
    109. A(H  11,O  31,H  33)          103.5325         0.204567   
    110. A(H  11,O  31,H  32)          113.4705         0.206245   
    111. A(H  11,H  33,O  25)          123.8871         0.112113   
    112. A(O  25,H  33,O  31)          174.5301         0.202837   
    113. A(H  11,H  33,O  31)           51.0438         0.134529   
    114. D(H  20,H   1,O   0,H   2)    120.6468         0.325480   
    115. D(H  20,H   2,O   0,H   1)   -121.9164         0.325049   
    116. D(H   5,O   4,H   3,H  29)   -111.4219         0.293247   
    117. D(H   8,O   7,H   6,H  23)   -107.1479         0.329079   
    118. D(O  16,H   8,O   7,H  23)     34.8233         0.308021   
    119. D(O  16,H   8,O   7,H   6)    151.0061         0.308021   
    120. D(H  23,H   8,O   7,H   6)    116.1828         0.308021   
    121. D(H  18,N  13,C  10,C  15)     53.6244         0.013588   
    122. D(C  10,N  13,H  11,H  33)    100.6467         0.198024   
    123. D(H  18,N  13,C  10,H  12)    175.2178         0.013588   
    124. D(H  18,N  13,H  11,O  31)   -176.9375         0.198024   
    125. D(H  11,N  13,C  10,H  12)    -64.1664         0.013588   
    126. D(H  20,N  13,H  11,O  31)    -57.8116         0.198024   
    127. D(H  18,N  13,C  10,H   9)    -68.3235         0.013588   
    128. D(H  18,N  13,H  11,H  33)   -140.4221         0.198024   
    129. D(H  11,N  13,C  10,H   9)     52.2923         0.013588   
    130. D(H  11,N  13,C  10,C  15)    174.2402         0.013588   
    131. D(C  10,N  13,H  11,O  31)     64.1313         0.198024   
    132. D(C  17,C  15,C  10,H   9)     59.8434         0.012013   
    133. D(C  17,C  15,C  10,N  13)    -59.7348         0.012013   
    134. D(C  17,C  15,C  10,H  12)   -179.4352         0.012013   
    135. D(H  14,C  15,C  10,H   9)    -62.2092         0.012013   
    136. D(H  14,C  15,C  10,H  12)     58.5121         0.012013   
    137. D(H  14,C  15,C  10,N  13)    178.2125         0.012013   
    138. D(H   8,O  16,O   4,H  29)   -111.6716         0.001501   
    139. D(C  17,O  16,O   4,H  29)     21.1869         0.001501   
    140. D(C  17,O  16,O   4,H   5)    -90.2659         0.001501   
    141. D(H   8,O  16,H   3,H  29)   -110.3081         0.002083   
    142. D(C  17,O  16,H   3,H  29)     23.3831         0.002083   
    143. D(C  17,O  16,H   8,O   7)    -40.0373         0.001978   
    144. D(H   8,O  16,O   4,H   5)    136.8757         0.001501   
    145. D(H   3,O  16,H   8,H  23)    129.4056         0.001978   
    146. D(H   3,O  16,H   8,O   7)     97.3420         0.001978   
    147. D(C  17,O  16,H   8,H  23)     -7.9737         0.001978   
    148. D(O  19,C  17,O  16,H   3)    -15.6144         0.067534   
    149. D(C  15,C  17,O  16,H   8)    -72.6698         0.067534   
    150. D(C  15,C  17,O  16,H   3)    162.7563         0.067534   
    151. D(O  19,C  17,C  15,H  14)    -46.7596         0.010239   
    152. D(O  19,C  17,C  15,C  10)   -169.1652         0.010239   
    153. D(O  16,C  17,C  15,H  21)   -111.1388         0.010239   
    154. D(O  16,C  17,C  15,H  14)    134.7321         0.010239   
    155. D(O  19,C  17,O  16,H   8)    108.9595         0.067534   
    156. D(O  16,C  17,C  15,C  10)     12.3265         0.010239   
    157. D(H  30,O  19,C  17,O  16)     -3.6328         0.073878   
    158. D(H  30,O  19,C  17,C  15)    177.9902         0.073878   
    159. D(H   2,H  20,N  13,H  11)     32.4316         0.222333   
    160. D(H   2,H  20,N  13,C  10)    -89.6843         0.222333   
    161. D(O   0,H  20,N  13,H  18)    167.6330         0.222333   
    162. D(O   0,H  20,N  13,C  10)    -74.2248         0.222333   
    163. D(H   1,H  20,H   2,O   0)     32.8852         0.001505   
    164. D(N  13,H  20,H   2,O   0)    176.4219         0.001505   
    165. D(H   2,H  20,H   1,O   0)    -33.7716         0.001504   
    166. D(N  13,H  20,H   1,O   0)   -166.1682         0.001504   
    167. D(O   0,H  20,N  13,H  11)     47.8911         0.222333   
    168. D(H   1,H  20,O   0,H   2)   -117.3829         0.001797   
    169. D(H   2,H  20,O   0,H   1)    117.3829         0.001797   
    170. D(N  13,H  20,O   0,H   2)    -18.7031         0.001797   
    171. D(H   2,H  20,N  13,H  18)    152.1735         0.222333   
    172. D(N  13,H  20,O   0,H   1)     98.6798         0.001797   
    173. D(H  24,O  22,O   7,H   8)     34.6911         0.001501   
    174. D(H  24,O  22,O   7,H   6)    -76.6674         0.001501   
    175. D(H   8,H  23,H   6,O   7)     40.0993         0.001504   
    176. D(O  22,H  23,H   6,O   7)   -178.7019         0.001504   
    177. D(H   6,H  23,O  22,H  24)    -77.1925         0.317692   
    178. D(H   6,H  23,H   8,O  16)    151.4794         0.001513   
    179. D(H   6,H  23,H   8,O   7)    -33.7183         0.001513   
    180. D(O   7,H  23,H   8,O  16)   -174.8023         0.001513   
    181. D(O  22,H  23,H   8,O  16)     -2.7584         0.001513   
    182. D(O  22,H  23,H   8,O   7)    172.0439         0.001513   
    183. D(H   8,H  23,O  22,H  24)     42.2380         0.317692   
    184. D(H   6,H  23,O   7,H   8)    111.0941         0.001789   
    185. D(H   8,H  23,O   7,H   6)   -111.0941         0.001789   
    186. D(H  29,O  28,O  19,C  17)     16.8731         0.001501   
    187. D(H   3,H  29,O  28,H  30)     -8.4687         0.303286   
    188. D(O   4,H  29,O  28,H  30)     -7.1509         0.303286   
    189. D(H   3,H  29,O   4,H   5)    106.2771         0.001619   
    190. D(O  28,H  29,O   4,H   5)    104.0829         0.001619   
    191. D(O  28,H  29,O   4,H   3)     -2.1941         0.001619   
    192. D(O   4,H  29,H   3,O  16)    176.7994         0.001518   
    193. D(O  28,H  29,H   3,O  16)     -4.2978         0.001518   
    194. D(O  28,H  29,H   3,O   4)    178.9028         0.001518   
    195. D(H  33,O  31,H  11,N  13)     47.3088         0.001891   
    196. D(H  32,O  31,H  11,H  33)    114.2398         0.001891   
    197. D(H  32,O  31,H  11,N  13)    161.5486         0.001891   
    198. D(O  25,H  33,O  31,H  11)    -22.8563         0.309660   
    199. D(O  25,H  33,O  31,H  32)   -142.4668         0.309660   
    200. D(H  11,H  33,O  31,H  32)   -119.6105         0.309660   
    201. D(H  11,H  33,O  25,H  27)    -63.0322         0.001840   
    202. D(H  11,H  33,O  25,H  26)     54.9908         0.001840   
    203. D(O  31,H  33,O  25,H  27)    -41.6952         0.001840   
    204. D(O  31,H  33,O  25,H  26)     76.3278         0.001840   
    205. D(O  25,H  33,H  11,O  31)    177.4437         0.001511   
    206. D(O  25,H  33,H  11,N  13)      9.7206         0.001511   
    207. D(O  31,H  33,H  11,N  13)   -167.7231         0.001511   
    -----------------------------------------------------------------

Number of atoms                         .... 34
Number of degrees of freedom            .... 207


         *************************************************************
         *                GEOMETRY OPTIMIZATION CYCLE   1            *
         *************************************************************
---------------------------------
CARTESIAN COORDINATES (ANGSTROEM)
---------------------------------
  O      0.048646    2.061917   -4.889660
  H     -0.650209    2.696216   -5.097395
  H      0.134700    1.513577   -5.680910
  H     -0.134085    2.281486    1.039461
  O      0.405567    2.642982    1.784463
  H      1.098440    3.170456    1.369401
  H     -1.007494   -1.549040    0.389173
  O     -1.455174   -0.880149    0.921916
  H     -1.261100   -0.021441    0.484224
  H     -2.270992   -0.506089   -1.788029
  C     -2.074733    0.285061   -2.508967
  H     -0.174464   -0.541692   -2.879520
  H     -2.485804   -0.015980   -3.470938
  N     -0.594528    0.384954   -2.663164
  H     -3.757804    1.493987   -1.987214
  C     -2.674561    1.605104   -2.055372
  O     -1.129097    1.595490   -0.211145
  C     -2.165437    2.146684   -0.714867
  H     -0.218800    0.746183   -1.779776
  O     -2.781997    3.108195   -0.221545
  H     -0.344581    1.034124   -3.430588
  H     -2.492968    2.380656   -2.805961
  O     -4.248735   -0.904370    0.624585
  H     -3.271800   -0.924388    0.697863
  H     -4.426736   -0.480986   -0.223198
  O      1.011097   -1.446531   -6.107798
  H      1.602669   -0.683480   -6.151157
  H      0.218941   -1.176554   -6.591535
  O     -1.989597    4.141984    2.237072
  H     -1.097901    3.754271    2.291151
  H     -2.314107    3.799893    1.375652
  O      0.399712   -2.114966   -3.481975
  H      1.204406   -2.422863   -3.046763
  H      0.653385   -1.926243   -4.412321

----------------------------
CARTESIAN COORDINATES (A.U.)
----------------------------
  NO LB      ZA    FRAG     MASS         X           Y           Z
   0 O     8.0000    0    15.999    0.091927    3.896458   -9.240119
   1 H     1.0000    0     1.008   -1.228716    5.095110   -9.632681
   2 H     1.0000    0     1.008    0.254545    2.860246  -10.735363
   3 H     1.0000    0     1.008   -0.253384    4.311384    1.964296
   4 O     8.0000    0    15.999    0.766410    4.994513    3.372146
   5 H     1.0000    0     1.008    2.075751    5.991293    2.587793
   6 H     1.0000    0     1.008   -1.903888   -2.927261    0.735430
   7 O     8.0000    0    15.999   -2.749880   -1.663240    1.742168
   8 H     1.0000    0     1.008   -2.383134   -0.040517    0.915050
   9 H     1.0000    0     1.008   -4.291553   -0.956369   -3.378886
  10 C     6.0000    0    12.011   -3.920677    0.538687   -4.741261
  11 H     1.0000    0     1.008   -0.329689   -1.023649   -5.441504
  12 H     1.0000    0     1.008   -4.697488   -0.030198   -6.559123
  13 N     7.0000    0    14.007   -1.123496    0.727458   -5.032651
  14 H     1.0000    0     1.008   -7.101220    2.823227   -3.755291
  15 C     6.0000    0    12.011   -5.054188    3.033206   -3.884090
  16 O     8.0000    0    15.999   -2.133684    3.015040   -0.399006
  17 C     6.0000    0    12.011   -4.092083    4.056644   -1.350902
  18 H     1.0000    0     1.008   -0.413472    1.410081   -3.363289
  19 O     8.0000    0    15.999   -5.257213    5.873638   -0.418659
  20 H     1.0000    0     1.008   -0.651163    1.954212   -6.482872
  21 H     1.0000    0     1.008   -4.711026    4.498788   -5.302499
  22 O     8.0000    0    15.999   -8.028946   -1.709011    1.180294
  23 H     1.0000    0     1.008   -6.182806   -1.746839    1.318770
  24 H     1.0000    0     1.008   -8.365318   -0.908932   -0.421783
  25 O     8.0000    0    15.999    1.910696   -2.733547  -11.542065
  26 H     1.0000    0     1.008    3.028605   -1.291590  -11.624002
  27 H     1.0000    0     1.008    0.413739   -2.223366  -12.456197
  28 O     8.0000    0    15.999   -3.759793    7.827216    4.227454
  29 H     1.0000    0     1.008   -2.074733    7.094544    4.329647
  30 H     1.0000    0     1.008   -4.373029    7.180758    2.599605
  31 O     8.0000    0    15.999    0.755347   -3.996706   -6.579979
  32 H     1.0000    0     1.008    2.275997   -4.578548   -5.757547
  33 H     1.0000    0     1.008    1.234719   -3.640071   -8.338078

--------------------------------
INTERNAL COORDINATES (ANGSTROEM)
--------------------------------
 O      0   0   0     0.000000000000     0.00000000     0.00000000
 H      1   0   0     0.966378068534     0.00000000     0.00000000
 H      1   2   0     0.966518069596   105.11675201     0.00000000
 H      1   2   3     5.935998557000    99.68159934   201.52205108
 O      4   1   2     0.988398378258   138.55526311   253.00163754
 H      5   4   1     0.964664791476   105.53514225     7.39260235
 H      4   1   2     3.982291662119    78.93433133   119.06108928
 O      7   4   1     0.965218807136    49.08121733   231.11923549
 H      8   7   4     0.983167402635   105.54512713    29.24823687
 H      9   8   7     2.533357143188    98.83117302    59.45086193
 C     10   9   8     1.088203401650   112.53463441   186.57769082
 H     11  10   9     2.105195985597    89.64999439    82.25419120
 H     11  10   9     1.088573670399   108.43884490   176.77540513
 N     12  11  10     1.040161987712    41.32233048   229.08345193
 H     11  10   9     2.136927098914    96.17097736   273.39922520
 C     15  11  10     1.091057430587    42.30195940   123.98093781
 O      4   1   2     1.739153215212    44.33762433    74.06555738
 C     17   4   1     1.277321415729   125.27869098   263.95097305
 H     14  12  11     1.025686648057   110.17909977   118.93126605
 O     18  17   4     1.244193995331   125.39264850   344.38563091
 H     14  12  11     1.035777595182   107.86543687   238.05718065
 H     16  15  11     1.094459776299   106.24479338   118.63459232
 O      8   7   4     2.809444399871   113.37837390   136.55231863
 H     23   8   7     0.979884076691     2.44115283   353.63789131
 H     23   8   7     0.964195403742   105.83310674   283.33256592
 O      3   1   2     3.116495334091   132.53505437   209.18673964
 H     26   3   1     0.966480143538    55.13640420   267.17987795
 H     26   3   1     0.966643440544    64.71121440   134.50957455
 O     20  18  17     2.782339948536   119.76028392   356.96823962
 H     29  20  18     0.973841170986    99.31819597    16.87309484
 H     29  20  18     0.982027529290     2.95776528   198.59420028
 O     12  11  10     1.779837347162   134.26031239    60.19653318
 H     32  12  11     0.965268109325   113.47047442   217.60491749
 H     32  12  11     0.982603331477   103.53252604   103.36506933

---------------------------
INTERNAL COORDINATES (A.U.)
---------------------------
 O      0   0   0     0.000000000000     0.00000000     0.00000000
 H      1   0   0     1.826189891358     0.00000000     0.00000000
 H      1   2   0     1.826454455023   105.11675201     0.00000000
 H      1   2   3    11.217411604082    99.68159934   201.52205108
 O      4   1   2     1.867802246119   138.55526311   253.00163754
 H      5   4   1     1.822952266925   105.53514225     7.39260235
 H      4   1   2     7.525440626803    78.93433133   119.06108928
 O      7   4   1     1.823999204798    49.08121733   231.11923549
 H      8   7   4     1.857917134780   105.54512713    29.24823687
 H      9   8   7     4.787351200038    98.83117302    59.45086193
 C     10   9   8     2.056406407121   112.53463441   186.57769082
 H     11  10   9     3.978243871009    89.64999439    82.25419120
 H     11  10   9     2.057106113652   108.43884490   176.77540513
 N     12  11  10     1.965621291691    41.32233048   229.08345193
 H     11  10   9     4.038206985102    96.17097736   273.39922520
 C     15  11  10     2.061799740190    42.30195940   123.98093781
 O      4   1   2     3.286523281679    44.33762433    74.06555738
 C     17   4   1     2.413787660720   125.27869098   263.95097305
 H     14  12  11     1.938266864048   110.17909977   118.93126605
 O     18  17   4     2.351185908645   125.39264850   344.38563091
 H     14  12  11     1.957335990545   107.86543687   238.05718065
 H     16  15  11     2.068229241798   106.24479338   118.63459232
 O      8   7   4     5.309080504236   113.37837390   136.55231863
 H     23   8   7     1.851712547937     2.44115283   353.63789131
 H     23   8   7     1.822065252658   105.83310674   283.33256592
 O      3   1   2     5.889322679075   132.53505437   209.18673964
 H     26   3   1     1.826382785159    55.13640420   267.17987795
 H     26   3   1     1.826691371780    64.71121440   134.50957455
 O     20  18  17     5.257860514202   119.76028392   356.96823962
 H     29  20  18     1.840293111101    99.31819597    16.87309484
 H     29  20  18     1.855763086330     2.95776528   198.59420028
 O     12  11  10     3.363405149062   134.26031239    60.19653318
 H     32  12  11     1.824092372432   113.47047442   217.60491749
 H     32  12  11     1.856851194770   103.53252604   103.36506933

---------------------
BASIS SET INFORMATION
---------------------
There are 4 groups of distinct atoms

 Group   1 Type O   : 11s6p2d1f contracted to 5s3p2d1f pattern {62111/411/11/1}
 Group   2 Type H   : 5s1p contracted to 3s1p pattern {311/1}
 Group   3 Type C   : 11s6p2d1f contracted to 5s3p2d1f pattern {62111/411/11/1}
 Group   4 Type N   : 11s6p2d1f contracted to 5s3p2d1f pattern {62111/411/11/1}

Atom   0O    basis set group =>   1
Atom   1H    basis set group =>   2
Atom   2H    basis set group =>   2
Atom   3H    basis set group =>   2
Atom   4O    basis set group =>   1
Atom   5H    basis set group =>   2
Atom   6H    basis set group =>   2
Atom   7O    basis set group =>   1
Atom   8H    basis set group =>   2
Atom   9H    basis set group =>   2
Atom  10C    basis set group =>   3
Atom  11H    basis set group =>   2
Atom  12H    basis set group =>   2
Atom  13N    basis set group =>   4
Atom  14H    basis set group =>   2
Atom  15C    basis set group =>   3
Atom  16O    basis set group =>   1
Atom  17C    basis set group =>   3
Atom  18H    basis set group =>   2
Atom  19O    basis set group =>   1
Atom  20H    basis set group =>   2
Atom  21H    basis set group =>   2
Atom  22O    basis set group =>   1
Atom  23H    basis set group =>   2
Atom  24H    basis set group =>   2
Atom  25O    basis set group =>   1
Atom  26H    basis set group =>   2
Atom  27H    basis set group =>   2
Atom  28O    basis set group =>   1
Atom  29H    basis set group =>   2
Atom  30H    basis set group =>   2
Atom  31O    basis set group =>   1
Atom  32H    basis set group =>   2
Atom  33H    basis set group =>   2
---------------------------------
AUXILIARY/J BASIS SET INFORMATION
---------------------------------
There are 4 groups of distinct atoms

 Group   1 Type O   : 12s5p4d2f1g contracted to 6s4p3d1f1g pattern {711111/2111/211/2/1}
 Group   2 Type H   : 5s2p1d contracted to 3s1p1d pattern {311/2/1}
 Group   3 Type C   : 12s5p4d2f1g contracted to 6s4p3d1f1g pattern {711111/2111/211/2/1}
 Group   4 Type N   : 12s5p4d2f1g contracted to 6s4p3d1f1g pattern {711111/2111/211/2/1}

Atom   0O    basis set group =>   1
Atom   1H    basis set group =>   2
Atom   2H    basis set group =>   2
Atom   3H    basis set group =>   2
Atom   4O    basis set group =>   1
Atom   5H    basis set group =>   2
Atom   6H    basis set group =>   2
Atom   7O    basis set group =>   1
Atom   8H    basis set group =>   2
Atom   9H    basis set group =>   2
Atom  10C    basis set group =>   3
Atom  11H    basis set group =>   2
Atom  12H    basis set group =>   2
Atom  13N    basis set group =>   4
Atom  14H    basis set group =>   2
Atom  15C    basis set group =>   3
Atom  16O    basis set group =>   1
Atom  17C    basis set group =>   3
Atom  18H    basis set group =>   2
Atom  19O    basis set group =>   1
Atom  20H    basis set group =>   2
Atom  21H    basis set group =>   2
Atom  22O    basis set group =>   1
Atom  23H    basis set group =>   2
Atom  24H    basis set group =>   2
Atom  25O    basis set group =>   1
Atom  26H    basis set group =>   2
Atom  27H    basis set group =>   2
Atom  28O    basis set group =>   1
Atom  29H    basis set group =>   2
Atom  30H    basis set group =>   2
Atom  31O    basis set group =>   1
Atom  32H    basis set group =>   2
Atom  33H    basis set group =>   2
--------------------------------------------------------------------------
WARNING: There was an error initializing an OpenFabrics device.

  Local host:   ga01
  Local device: mlx5_0
--------------------------------------------------------------------------


           ************************************************************
           *        Program running with 10 parallel MPI-processes    *
           *              working on a common directory               *
           ************************************************************
------------------------------------------------------------------------------
                             ORCA STARTUP CALCULATIONS
                           -- RI-GTO INTEGRALS CHOSEN --
------------------------------------------------------------------------------
------------------------------------------------------------------------------
                   ___                                                        
                  /   \      - P O W E R E D   B Y -                         
                 /     \                                                     
                 |  |  |   _    _      __       _____    __    __             
                 |  |  |  | |  | |    /  \     |  _  \  |  |  /  |          
                  \  \/   | |  | |   /    \    | | | |  |  | /  /          
                 / \  \   | |__| |  /  /\  \   | |_| |  |  |/  /          
                |  |  |   |  __  | /  /__\  \  |    /   |      \           
                |  |  |   | |  | | |   __   |  |    \   |  |\   \          
                \     /   | |  | | |  |  |  |  | |\  \  |  | \   \       
                 \___/    |_|  |_| |__|  |__|  |_| \__\ |__|  \__/        
                                                                              
                      - O R C A' S   B I G   F R I E N D -                    
                                      &                                       
                       - I N T E G R A L  F E E D E R -                       
                                                                              
 v1 FN, 2020, v2 2021, v3 2022-2024                                           
------------------------------------------------------------------------------


----------------------
SHARK INTEGRAL PACKAGE
----------------------

Number of atoms                             ...     34
Number of basis functions                   ...    529
Number of shells                            ...    227
Maximum angular momentum                    ...      3
Integral batch strategy                     ... SHARK/LIBINT Hybrid
RI-J (if used) integral strategy            ... SPLIT-RIJ (Revised 2003 algorithm where possible)
Printlevel                                  ...      1
Contraction scheme used                     ... SEGMENTED contraction
Prescreening option                         ... SCHWARTZ
   Thresh                                   ... 2.500e-11
   Tcut                                     ... 2.500e-12
   Tpresel                                  ... 2.500e-12 
Coulomb Range Separation                    ... NOT USED
Exchange Range Separation                   ... NOT USED
Multipole approximations                    ... NOT USED
Finite Nucleus Model                        ... NOT USED
CABS basis                                  ... NOT available
Auxiliary Coulomb fitting basis             ... AVAILABLE
   # of basis functions in Aux-J            ...    868
   # of shells in Aux-J                     ...    300
   Maximum angular momentum in Aux-J        ...      4
Auxiliary J/K fitting basis                 ... NOT available
Auxiliary Correlation fitting basis         ... NOT available
Auxiliary 'external' fitting basis          ... NOT available

Checking pre-screening integrals            ... done (  0.0 sec) Dimension = 227
Check shell pair data                       ... done (  0.0 sec)
Shell pair information
Shell pair cut-off parameter TPreSel        ...   2.5e-12
Total number of shell pairs                 ...     25878
Shell pairs after pre-screening             ...     17585
Total number of primitive shell pairs       ...     75040
Primitive shell pairs kept                  ...     34257
          la=0 lb=0:   5768 shell pairs
          la=1 lb=0:   5384 shell pairs
          la=1 lb=1:   1316 shell pairs
          la=2 lb=0:   2124 shell pairs
          la=2 lb=1:   1029 shell pairs
          la=2 lb=2:    208 shell pairs
          la=3 lb=0:   1028 shell pairs
          la=3 lb=1:    489 shell pairs
          la=3 lb=2:    191 shell pairs
          la=3 lb=3:     48 shell pairs

Calculating one electron integrals          ... done (  0.0 sec)
Calculating RI/J V-Matrix + Cholesky decomp.... done (  0.0 sec)
Calculating Nuclear repulsion               ... done (  0.0 sec) ENN=    941.932468980319 Eh

Diagonalization of the overlap matrix:
Smallest eigenvalue                        ... 1.523e-04
Time for diagonalization                   ...    0.028 sec
Threshold for overlap eigenvalues          ... 1.000e-07
Number of eigenvalues below threshold      ... 0
Time for construction of square roots      ...    0.014 sec
Total time needed                          ...    0.046 sec

-------------------
DFT GRID GENERATION
-------------------

General Integration Accuracy     IntAcc      ... 4.388
Radial Grid Type                 RadialGrid  ... OptM3 with GC (2021)
Angular Grid (max. ang.)         AngularGrid ... 4 (Lebedev-302)
Angular grid pruning method      GridPruning ... 4 (adaptive)
Weight generation scheme         WeightScheme... mBecke (2022)
Basis function cutoff            BFCut       ... 1.0000e-11
Integration weight cutoff        WCut        ... 1.0000e-14
Partially contracted basis set               ... off
Rotationally invariant grid construction     ... off
Angular grids for H and He will be reduced by one unit

Total number of grid points                  ...   146275
Total number of batches                      ...     2304
Average number of points per batch           ...       63
Average number of grid points per atom       ...     4302

--------------------
COSX GRID GENERATION
--------------------

GRIDX 1
-------
General Integration Accuracy     IntAcc      ... 3.816
Radial Grid Type                 RadialGrid  ... OptM3 with GC (2021)
Angular Grid (max. ang.)         AngularGrid ... 1 (Lebedev-50)
Angular grid pruning method      GridPruning ... 4 (adaptive)
Weight generation scheme         WeightScheme... mBecke (2022)
Basis function cutoff            BFCut       ... 1.0000e-11
Integration weight cutoff        WCut        ... 1.0000e-14
Partially contracted basis set               ... on
Rotationally invariant grid construction     ... off
Angular grids for H and He will be reduced by one unit

Total number of grid points                  ...    18702
Total number of batches                      ...      162
Average number of points per batch           ...      115
Average number of grid points per atom       ...      550
UseSFitting                                  ... on

GRIDX 2
-------
General Integration Accuracy     IntAcc      ... 4.020
Radial Grid Type                 RadialGrid  ... OptM3 with GC (2021)
Angular Grid (max. ang.)         AngularGrid ... 2 (Lebedev-110)
Angular grid pruning method      GridPruning ... 4 (adaptive)
Weight generation scheme         WeightScheme... mBecke (2022)
Basis function cutoff            BFCut       ... 1.0000e-11
Integration weight cutoff        WCut        ... 1.0000e-14
Partially contracted basis set               ... on
Rotationally invariant grid construction     ... off
Angular grids for H and He will be reduced by one unit

Total number of grid points                  ...    39151
Total number of batches                      ...      323
Average number of points per batch           ...      121
Average number of grid points per atom       ...     1152
UseSFitting                                  ... on

GRIDX 3
-------
General Integration Accuracy     IntAcc      ... 4.338
Radial Grid Type                 RadialGrid  ... OptM3 with GC (2021)
Angular Grid (max. ang.)         AngularGrid ... 3 (Lebedev-194)
Angular grid pruning method      GridPruning ... 4 (adaptive)
Weight generation scheme         WeightScheme... mBecke (2022)
Basis function cutoff            BFCut       ... 1.0000e-11
Integration weight cutoff        WCut        ... 1.0000e-14
Partially contracted basis set               ... on
Rotationally invariant grid construction     ... off
Angular grids for H and He will be reduced by one unit

Total number of grid points                  ...    85319
Total number of batches                      ...      685
Average number of points per batch           ...      124
Average number of grid points per atom       ...     2509
UseSFitting                                  ... on
Initializing property integral containers    ... done (  0.0 sec)

SHARK setup successfully completed in   1.6 seconds

Maximum memory used throughout the entire STARTUP-calculation: 52.4 MB
[ga01:1891241] 9 more processes have sent help message help-mpi-btl-openib.txt / error in device init
[ga01:1891241] Set MCA parameter "orte_base_help_aggregate" to 0 to see all help / error messages
--------------------------------------------------------------------------
WARNING: There was an error initializing an OpenFabrics device.

  Local host:   ga01
  Local device: mlx5_0
--------------------------------------------------------------------------


           ************************************************************
           *        Program running with 10 parallel MPI-processes    *
           *              working on a common directory               *
           ************************************************************
-------------------------------------------------------------------------------
                                 ORCA GUESS
                   Start orbitals & Density for SCF / CASSCF
-------------------------------------------------------------------------------

------------
SCF SETTINGS
------------
Hamiltonian:
 Density Functional     Method          .... DFT(GTOs)
 Exchange Functional    Exchange        .... B88
   X-Alpha parameter    XAlpha          ....  0.666667
   Becke's b parameter  XBeta           ....  0.004200
 Correlation Functional Correlation     .... LYP
 LDA part of GGA corr.  LDAOpt          .... VWN-5
 Gradients option       PostSCFGGA      .... off
 Hybrid DFT is turned on
   Fraction HF Exchange ScalHFX         ....  0.200000
   Scaling of DF-GGA-X  ScalDFX         ....  0.720000
   Scaling of DF-GGA-C  ScalDFC         ....  0.810000
   Scaling of DF-LDA-C  ScalLDAC        ....  1.000000
   Perturbative correction              ....  0.000000
   NL short-range parameter             ....  4.800000
 RI-approximation to the Coulomb term is turned on
   Number of AuxJ basis functions       .... 868
   RIJ-COSX (HFX calculated with COS-X)).... on


General Settings:
 Integral files         IntName         .... 02_Alanine_zwitterion
 Hartree-Fock type      HFTyp           .... RHF
 Total Charge           Charge          ....    0
 Multiplicity           Mult            ....    1
 Number of Electrons    NEL             ....  118
 Basis Dimension        Dim             ....  529
 Nuclear Repulsion      ENuc            ....    941.9324689803 Eh

Convergence Acceleration:
 AO-DIIS                CNVDIIS         .... on
   Start iteration      DIISMaxIt       ....    12
   Startup error        DIISStart       ....  0.200000
   # of expansion vecs  DIISMaxEq       ....     5
   Bias factor          DIISBfac        ....   1.050
   Max. coefficient     DIISMaxC        ....  10.000
 MO-DIIS                CNVKDIIS        .... off
 Trust-Rad. Augm. Hess. CNVTRAH         .... auto
   Auto Start mean grad. ratio tolernc. ....  1.125000
   Auto Start start iteration           ....    50
   Auto Start num. interpolation iter.  ....    10
   Max. Number of Micro iterations      ....    24
   Max. Number of Macro iterations      .... Maxiter - #DIIS iter
   Number of Davidson start vectors     ....     2
   Converg. threshold    (grad. norm)   ....   1.000e-05
   Grad. Scal. Fac. for Micro threshold ....   0.100
   Minimum threshold for Micro iter.    ....   1.000e-02
   NR start threshold (gradient norm)   ....   1.000e-04
   Initial trust radius                 ....   0.400
   Minimum AH scaling param. (alpha)    ....   1.000
   Maximum AH scaling param. (alpha)    .... 1000.000
   Quad. conv. algorithm                .... NR
   White noise on init. David. guess    .... on
   Maximum white noise                  ....   0.010
   Pseudo random numbers                .... off
   Inactive MOs                         .... canonical
   Orbital update algorithm             .... Taylor
   Preconditioner                       .... Diag
   Full preconditioner red. dimension   ....   250
 SOSCF                  CNVSOSCF        .... on
   Start iteration      SOSCFMaxIt      ....   150
   Startup grad/error   SOSCFStart      ....  0.003300
   Hessian update       SOSCFHessUp     .... L-BFGS
 Level Shifting         CNVShift        .... on
   Level shift para.    LevelShift      ....    0.2500
   Turn off err/grad.   ShiftErr        ....    0.0010
 Zerner damping         CNVZerner       .... off
 Static damping         CNVDamp         .... on
   Fraction old density DampFac         ....    0.7000
   Max. Damping (<1)    DampMax         ....    0.9800
   Min. Damping (>=0)   DampMin         ....    0.0000
   Turn off err/grad.   DampErr         ....    0.1000

SCF Procedure:
 Maximum # iterations   MaxIter         ....   125
 SCF integral mode      SCFMode         .... Direct
   Integral package                     .... SHARK and LIBINT hybrid scheme
 Reset frequency        DirectResetFreq ....    20
 Integral Threshold     Thresh          ....  2.500e-11 Eh
 Primitive CutOff       TCut            ....  2.500e-12 Eh

Convergence Tolerance:
 Convergence Check Mode ConvCheckMode   .... Total+1el-Energy
 Convergence forced     ConvForced      .... 0
 Energy Change          TolE            ....  1.000e-08 Eh
 1-El. energy change                    ....  1.000e-05 Eh
 Orbital Gradient       TolG            ....  1.000e-05
 Orbital Rotation angle TolX            ....  1.000e-05
 DIIS Error             TolErr          ....  5.000e-07

------------------------------
INITIAL GUESS: MODEL POTENTIAL
------------------------------
Loading Hartree-Fock densities                     ... done
Calculating cut-offs                               ... done
Initializing the effective Hamiltonian             ... done
Setting up the integral package (SHARK)            ... done
Starting the Coulomb interaction                   ... done (   0.1 sec)
Making the grid                                    ... done (   0.2 sec)
Mapping shells                                     ... done
Starting the XC term evaluation                    ... done (   0.1 sec)
  promolecular density results
     # of electrons  =    117.989626283
     EX              =   -101.993903529
     EC              =     -4.038981446
     EX+EC           =   -106.032884975
Transforming the Hamiltonian                       ... done (   0.0 sec)
Diagonalizing the Hamiltonian                      ... done (   0.0 sec)
Back transforming the eigenvectors                 ... done (   0.0 sec)
Now organizing SCF variables                       ... done
                      ------------------
                      INITIAL GUESS DONE (   0.4 sec)
                      ------------------
             **** ENERGY FILE WAS UPDATED (02_Alanine_zwitterion.en.tmp) ****
Finished Guess after   0.8 sec
Maximum memory used throughout the entire GUESS-calculation: 35.7 MB
[ga01:1891286] 9 more processes have sent help message help-mpi-btl-openib.txt / error in device init
[ga01:1891286] Set MCA parameter "orte_base_help_aggregate" to 0 to see all help / error messages
--------------------------------------------------------------------------
WARNING: There was an error initializing an OpenFabrics device.

  Local host:   ga01
  Local device: mlx5_0
--------------------------------------------------------------------------


           ************************************************************
           *        Program running with 10 parallel MPI-processes    *
           *              working on a common directory               *
           ************************************************************

-------------------------------------------------------------------------------------------
                                      ORCA LEAN-SCF
                              memory conserving SCF solver
-------------------------------------------------------------------------------------------

--------------------
CPCM SOLVATION MODEL
--------------------
CPCM parameters:
  Epsilon                                         ...      80.1510
  Refrac                                          ...       1.3328
  Rsolv                                           ...       1.3000
  Surface type                                    ... GAUSSIAN VDW
  Discretization scheme                           ... Constant charge density
    Threshold for H atoms                         ...       5.0000 (charges/Ang^2)
    Threshold for non-H atoms                     ...       5.0000 (charges/Ang^2)
  Epsilon function type                           ...         CPCM
Solvent:                                          ... WATER
Radii:
  Scheme                                          ... Element-dependent radii
  Radius for O  used is    3.4469 Bohr (=   1.8240 Ang.)
  Radius for H  used is    2.4944 Bohr (=   1.3200 Ang.)
  Radius for C  used is    3.8550 Bohr (=   2.0400 Ang.)
  Radius for N  used is    3.5149 Bohr (=   1.8600 Ang.)
Calculating surface                               ...        done! (  0.0s)
Cavity surface points                             ...         2929
Cavity Volume                                     ...    1905.9001
Cavity Surface-area                               ...    1237.7794
Calculating surface distance matrix               ...        done! (  0.0s)
Performing Cholesky decomposition & store         ...        done! (  0.2s)
Overall time for CPCM initialization              ...                 0.3s

----------------------------------------D-I-I-S--------------------------------------------
Iteration    Energy (Eh)           Delta-E    RMSDP     MaxDP     DIISErr   Damp  Time(sec)
-------------------------------------------------------------------------------------------
               ***  Starting incremental Fock matrix formation  ***
    1    -857.9730761001387691     0.00e+00  1.63e-03  1.38e-01  3.53e-01  0.700   2.8
[ga01:1891330] 9 more processes have sent help message help-mpi-btl-openib.txt / error in device init
[ga01:1891330] Set MCA parameter "orte_base_help_aggregate" to 0 to see all help / error messages
    2    -858.4016318120827691    -4.29e-01  1.15e-03  1.27e-01  1.45e-01  0.700   1.8
                               ***Turning on AO-DIIS***
    3    -858.5422453880912599    -1.41e-01  3.66e-04  3.29e-02  3.49e-02  0.700   1.7
    4    -858.6318373326757865    -8.96e-02  3.97e-04  2.02e-02  1.54e-02  0.000   1.6
    5    -858.8387048216279709    -2.07e-01  2.35e-04  3.54e-02  1.01e-02  0.000   1.6
                              *** Initializing SOSCF ***
---------------------------------------S-O-S-C-F--------------------------------------
Iteration    Energy (Eh)           Delta-E    RMSDP     MaxDP     MaxGrad    Time(sec)
--------------------------------------------------------------------------------------
    6    -858.8395726616522552    -8.68e-04  8.09e-05  1.17e-02  1.94e-03     1.6
               *** Restarting incremental Fock matrix formation ***
    7    -858.8396435233787543    -7.09e-05  4.97e-05  6.65e-03  1.73e-04     2.8
    8    -858.8396460585859131    -2.54e-06  1.10e-05  7.90e-04  2.04e-04     2.0
    9    -858.8396488549083188    -2.80e-06  1.02e-05  1.15e-03  1.20e-04     1.8
   10    -858.8396487961272214     5.88e-08  2.62e-06  1.38e-04  1.00e-04     1.8
   11    -858.8396493898583230    -5.94e-07  2.92e-06  3.83e-04  1.50e-05     1.5
   12    -858.8396493822399407     7.62e-09  8.34e-07  9.91e-05  1.62e-05     1.5
                 **** Energy Check signals convergence ****

               *****************************************************
               *                     SUCCESS                       *
               *           SCF CONVERGED AFTER  12 CYCLES          *
               *****************************************************

Recomputing exchange energy using gridx3       ... done (    3.793 sec)
Old exchange energy                            :    -20.731325589 Eh
New exchange energy                            :    -20.731310759 Eh
Exchange energy change after final integration :      0.000014830 Eh
Total energy after final integration           :   -858.839634552 Eh
             **** ENERGY FILE WAS UPDATED (02_Alanine_zwitterion.en.tmp) ****

----------------
TOTAL SCF ENERGY
----------------

Total Energy       :       -858.83963455186358 Eh          -23370.21457 eV

Components:
Nuclear Repulsion  :        941.93246898031907 Eh           25631.28555 eV
Electronic Energy  :      -1800.63924815138171 Eh          -48997.88495 eV
One Electron Energy:      -3051.93214734217736 Eh          -83047.29577 eV
Two Electron Energy:       1251.29289919079565 Eh           34049.41083 eV
CPCM Dielectric    :         -0.13287021117733 Eh              -3.61558 eV

Virial components:
Potential Energy   :      -1714.19225427327979 Eh          -46645.54265 eV
Kinetic Energy     :        855.35261972141620 Eh           23275.32808 eV
Virial Ratio       :          2.00407669860365

DFT components:
N(Alpha)           :       59.000209736238 electrons
N(Beta)            :       59.000209736238 electrons
N(Total)           :      118.000419472476 electrons
E(X)               :      -82.555315928996 Eh       
E(C)               :       -4.786793111592 Eh       
E(XC)              :      -87.342109040588 Eh       

CPCM Solvation Model Properties:
Surface-charge          :         -0.02446376325615
Corrected charge        :         -0.00000000000000
Outlying charge corr.   :          0.00003312076722 Eh               0.00090 eV
Free-energy (cav+disp)  :  This term is not implemented in the current solvation scheme

---------------
SCF CONVERGENCE
---------------

  Last Energy change         ...   -7.6184e-09  Tolerance :   1.0000e-08
  Last MAX-Density change    ...    9.9102e-05  Tolerance :   1.0000e-07
  Last RMS-Density change    ...    8.3438e-07  Tolerance :   5.0000e-09
  Last DIIS Error            ...    1.9395e-03  Tolerance :   5.0000e-07
  Last Orbital Gradient      ...    1.6199e-05  Tolerance :   1.0000e-05
  Last Orbital Rotation      ...    1.6296e-05  Tolerance :   1.0000e-05


----------------
ORBITAL ENERGIES
----------------

  NO   OCC          E(Eh)            E(eV) 
   0   2.0000     -19.142429      -520.8920 
   1   2.0000     -19.141546      -520.8679 
   2   2.0000     -19.125756      -520.4383 
   3   2.0000     -19.121415      -520.3201 
   4   2.0000     -19.110791      -520.0311 
   5   2.0000     -19.105317      -519.8821 
   6   2.0000     -19.094572      -519.5897 
   7   2.0000     -19.086436      -519.3683 
   8   2.0000     -19.085783      -519.3506 
   9   2.0000     -14.381471      -391.3397 
  10   2.0000     -10.277177      -279.6562 
  11   2.0000     -10.216441      -278.0035 
  12   2.0000     -10.175898      -276.9003 
  13   2.0000      -1.052142       -28.6302 
  14   2.0000      -1.027253       -27.9530 
  15   2.0000      -1.024843       -27.8874 
  16   2.0000      -1.007716       -27.4214 
  17   2.0000      -1.006483       -27.3878 
  18   2.0000      -0.994966       -27.0744 
  19   2.0000      -0.986767       -26.8513 
  20   2.0000      -0.972541       -26.4642 
  21   2.0000      -0.965611       -26.2756 
  22   2.0000      -0.955081       -25.9891 
  23   2.0000      -0.770787       -20.9742 
  24   2.0000      -0.654023       -17.7969 
  25   2.0000      -0.558938       -15.2095 
  26   2.0000      -0.553561       -15.0632 
  27   2.0000      -0.542947       -14.7744 
  28   2.0000      -0.541792       -14.7429 
  29   2.0000      -0.540193       -14.6994 
  30   2.0000      -0.531698       -14.4682 
  31   2.0000      -0.523365       -14.2415 
  32   2.0000      -0.513134       -13.9631 
  33   2.0000      -0.510763       -13.8986 
  34   2.0000      -0.487636       -13.2692 
  35   2.0000      -0.478719       -13.0266 
  36   2.0000      -0.455085       -12.3835 
  37   2.0000      -0.443708       -12.0739 
  38   2.0000      -0.431811       -11.7502 
  39   2.0000      -0.420934       -11.4542 
  40   2.0000      -0.410017       -11.1571 
  41   2.0000      -0.399492       -10.8707 
  42   2.0000      -0.397102       -10.8057 
  43   2.0000      -0.389972       -10.6117 
  44   2.0000      -0.382304       -10.4030 
  45   2.0000      -0.378787       -10.3073 
  46   2.0000      -0.374576       -10.1927 
  47   2.0000      -0.369302       -10.0492 
  48   2.0000      -0.359566        -9.7843 
  49   2.0000      -0.335406        -9.1269 
  50   2.0000      -0.331378        -9.0172 
  51   2.0000      -0.320233        -8.7140 
  52   2.0000      -0.314966        -8.5707 
  53   2.0000      -0.304724        -8.2920 
  54   2.0000      -0.302471        -8.2307 
  55   2.0000      -0.289716        -7.8836 
  56   2.0000      -0.281529        -7.6608 
  57   2.0000      -0.271250        -7.3811 
  58   2.0000      -0.260374        -7.0851 
  59   0.0000      -0.000916        -0.0249 
  60   0.0000       0.022268         0.6059 
  61   0.0000       0.024003         0.6532 
  62   0.0000       0.039143         1.0651 
  63   0.0000       0.048177         1.3110 
  64   0.0000       0.058387         1.5888 
  65   0.0000       0.071067         1.9338 
  66   0.0000       0.084252         2.2926 
  67   0.0000       0.098873         2.6905 
  68   0.0000       0.103273         2.8102 
  69   0.0000       0.114294         3.1101 
*Only the first 10 virtual orbitals were printed.

                    ********************************
                    * MULLIKEN POPULATION ANALYSIS *
                    ********************************

-----------------------
MULLIKEN ATOMIC CHARGES
-----------------------
   0 O :   -0.697670
   1 H :    0.373956
   2 H :    0.366931
   3 H :    0.360184
   4 O :   -0.739290
   5 H :    0.353330
   6 H :    0.359952
   7 O :   -0.713467
   8 H :    0.362752
   9 H :    0.131179
  10 C :   -0.125451
  11 H :    0.290883
  12 H :    0.152618
  13 N :   -0.257152
  14 H :    0.137507
  15 C :   -0.213478
  16 O :   -0.668878
  17 C :    0.389061
  18 H :    0.292173
  19 O :   -0.541458
  20 H :    0.301711
  21 H :    0.134273
  22 O :   -0.731010
  23 H :    0.354151
  24 H :    0.347707
  25 O :   -0.697402
  26 H :    0.374966
  27 H :    0.374389
  28 O :   -0.762759
  29 H :    0.333620
  30 H :    0.332723
  31 O :   -0.714855
  32 H :    0.364864
  33 H :    0.373941
Sum of atomic charges:   -0.0000000

--------------------------------
MULLIKEN REDUCED ORBITAL CHARGES
--------------------------------
  0 O s       :     3.799450  s :     3.799450
      pz      :     1.594623  p :     4.878521
      px      :     1.707634
      py      :     1.576265
      dz2     :     0.004782  d :     0.018447
      dxz     :     0.002390
      dyz     :     0.005908
      dx2y2   :     0.001049
      dxy     :     0.004317
      f0      :     0.000023  f :     0.001252
      f+1     :     0.000032
      f-1     :     0.000394
      f+2     :     0.000149
      f-2     :     0.000134
      f+3     :     0.000228
      f-3     :     0.000292

  1 H s       :     0.581109  s :     0.581109
      pz      :     0.011365  p :     0.044935
      px      :     0.017448
      py      :     0.016123

  2 H s       :     0.588141  s :     0.588141
      pz      :     0.017755  p :     0.044928
      px      :     0.012400
      py      :     0.014772

  3 H s       :     0.584395  s :     0.584395
      pz      :     0.022578  p :     0.055420
      px      :     0.018227
      py      :     0.014615

  4 O s       :     3.801573  s :     3.801573
      pz      :     1.639258  p :     4.918041
      px      :     1.552312
      py      :     1.726471
      dz2     :     0.003526  d :     0.018498
      dxz     :     0.007364
      dyz     :     0.004462
      dx2y2   :     0.000339
      dxy     :     0.002808
      f0      :     0.000038  f :     0.001178
      f+1     :     0.000103
      f-1     :     0.000051
      f+2     :     0.000055
      f-2     :     0.000452
      f+3     :     0.000130
      f-3     :     0.000350

  5 H s       :     0.601014  s :     0.601014
      pz      :     0.012896  p :     0.045657
      px      :     0.016573
      py      :     0.016188

  6 H s       :     0.594348  s :     0.594348
      pz      :     0.015018  p :     0.045700
      px      :     0.015736
      py      :     0.014946

  7 O s       :     3.799437  s :     3.799437
      pz      :     1.742164  p :     4.894500
      px      :     1.795039
      py      :     1.357297
      dz2     :     0.001514  d :     0.018363
      dxz     :     0.003941
      dyz     :     0.008285
      dx2y2   :     0.001755
      dxy     :     0.002867
      f0      :     0.000198  f :     0.001167
      f+1     :     0.000057
      f-1     :    -0.000001
      f+2     :     0.000220
      f-2     :     0.000310
      f+3     :     0.000208
      f-3     :     0.000174

  8 H s       :     0.582801  s :     0.582801
      pz      :     0.015439  p :     0.054447
      px      :     0.012557
      py      :     0.026451

  9 H s       :     0.847019  s :     0.847019
      pz      :     0.008462  p :     0.021802
      px      :     0.003722
      py      :     0.009618

 10 C s       :     3.239204  s :     3.239204
      pz      :     1.078378  p :     2.777773
      px      :     0.718858
      py      :     0.980538
      dz2     :     0.011485  d :     0.100334
      dxz     :     0.018521
      dyz     :     0.020212
      dx2y2   :     0.028892
      dxy     :     0.021224
      f0      :     0.000845  f :     0.008140
      f+1     :     0.000940
      f-1     :     0.000920
      f+2     :     0.001507
      f-2     :     0.000323
      f+3     :     0.001513
      f-3     :     0.002091

 11 H s       :     0.663254  s :     0.663254
      pz      :     0.007612  p :     0.045862
      px      :     0.010483
      py      :     0.027767

 12 H s       :     0.825812  s :     0.825812
      pz      :     0.011415  p :     0.021570
      px      :     0.004888
      py      :     0.005267

 13 N s       :     3.422167  s :     3.422167
      pz      :     1.287948  p :     3.791606
      px      :     1.199114
      py      :     1.304544
      dz2     :     0.004062  d :     0.041269
      dxz     :     0.012349
      dyz     :     0.005695
      dx2y2   :     0.006299
      dxy     :     0.012865
      f0      :     0.000205  f :     0.002110
      f+1     :     0.000237
      f-1     :     0.000446
      f+2     :     0.000365
      f-2     :     0.000045
      f+3     :     0.000456
      f-3     :     0.000356

 14 H s       :     0.840274  s :     0.840274
      pz      :     0.004432  p :     0.022219
      px      :     0.013586
      py      :     0.004201

 15 C s       :     3.194373  s :     3.194373
      pz      :     0.959167  p :     2.941875
      px      :     1.037673
      py      :     0.945034
      dz2     :     0.014187  d :     0.071567
      dxz     :     0.007178
      dyz     :     0.025443
      dx2y2   :     0.016372
      dxy     :     0.008387
      f0      :     0.000740  f :     0.005663
      f+1     :     0.000763
      f-1     :     0.001194
      f+2     :     0.000889
      f-2     :     0.000591
      f+3     :     0.000817
      f-3     :     0.000669

 16 O s       :     3.888955  s :     3.888955
      pz      :     1.694331  p :     4.755330
      px      :     1.419706
      py      :     1.641293
      dz2     :     0.003444  d :     0.023123
      dxz     :     0.005268
      dyz     :     0.002744
      dx2y2   :     0.006067
      dxy     :     0.005600
      f0      :     0.000141  f :     0.001471
      f+1     :     0.000257
      f-1     :     0.000086
      f+2     :     0.000193
      f-2     :     0.000266
      f+3     :     0.000290
      f-3     :     0.000238

 17 C s       :     3.064921  s :     3.064921
      pz      :     0.822718  p :     2.275494
      px      :     0.719806
      py      :     0.732969
      dz2     :     0.049998  d :     0.245128
      dxz     :     0.040246
      dyz     :     0.041510
      dx2y2   :     0.064643
      dxy     :     0.048732
      f0      :     0.001935  f :     0.025396
      f+1     :     0.004283
      f-1     :     0.003899
      f+2     :     0.003885
      f-2     :     0.003196
      f+3     :     0.003945
      f-3     :     0.004253

 18 H s       :     0.668978  s :     0.668978
      pz      :     0.021404  p :     0.038850
      px      :     0.008226
      py      :     0.009219

 19 O s       :     3.825200  s :     3.825200
      pz      :     1.634831  p :     4.688806
      px      :     1.630352
      py      :     1.423624
      dz2     :     0.003817  d :     0.025805
      dxz     :     0.003589
      dyz     :     0.004955
      dx2y2   :     0.007145
      dxy     :     0.006299
      f0      :     0.000131  f :     0.001647
      f+1     :     0.000128
      f-1     :     0.000274
      f+2     :     0.000192
      f-2     :     0.000299
      f+3     :     0.000267
      f-3     :     0.000357

 20 H s       :     0.654293  s :     0.654293
      pz      :     0.020897  p :     0.043996
      px      :     0.007448
      py      :     0.015652

 21 H s       :     0.843709  s :     0.843709
      pz      :     0.008607  p :     0.022018
      px      :     0.004577
      py      :     0.008834

 22 O s       :     3.793280  s :     3.793280
      pz      :     1.565561  p :     4.918038
      px      :     1.492449
      py      :     1.860028
      dz2     :     0.006587  d :     0.018475
      dxz     :     0.000600
      dyz     :     0.004358
      dx2y2   :     0.006151
      dxy     :     0.000779
      f0      :     0.000074  f :     0.001218
      f+1     :     0.000158
      f-1     :     0.000424
      f+2     :     0.000073
      f-2     :     0.000079
      f+3     :     0.000367
      f-3     :     0.000042

 23 H s       :     0.591828  s :     0.591828
      pz      :     0.010807  p :     0.054021
      px      :     0.029828
      py      :     0.013386

 24 H s       :     0.606019  s :     0.606019
      pz      :     0.018912  p :     0.046274
      px      :     0.011210
      py      :     0.016153

[...]
      pz      :     1.572381  p :     4.877422
      px      :     1.488036
      py      :     1.817005
      dz2     :     0.010159  d :     0.027453
      dxz     :     0.000473
      dyz     :     0.006675
      dx2y2   :     0.009809
      dxy     :     0.000337
      f0      :     0.000154  f :     0.002205
      f+1     :     0.000407
      f-1     :     0.000787
      f+2     :     0.000107
      f-2     :     0.000097
      f+3     :     0.000652
      f-3     :     0.000002

 23 H s       :     0.680325  s :     0.680325
      pz      :     0.031551  p :     0.182501
      px      :     0.111196
      py      :     0.039754

 24 H s       :     0.676316  s :     0.676316
      pz      :     0.075854  p :     0.162201
      px      :     0.032126
      py      :     0.054221

 25 O s       :     3.446049  s :     3.446049
      pz      :     1.730584  p :     4.803441
      px      :     1.456365
      py      :     1.616491
      dz2     :     0.004030  d :     0.028425
      dxz     :     0.007413
      dyz     :     0.001472
      dx2y2   :     0.006049
      dxy     :     0.009461
      f0      :     0.000232  f :     0.002310
      f+1     :     0.000183
      f-1     :     0.000330
      f+2     :     0.000547
      f-2     :     0.000170
      f+3     :     0.000744
      f-3     :     0.000104

 26 H s       :     0.659982  s :     0.659982
      pz      :     0.039817  p :     0.159128
      px      :     0.045488
      py      :     0.073823

 27 H s       :     0.658947  s :     0.658947
      pz      :     0.057231  p :     0.158954
      px      :     0.066126
      py      :     0.035597

 28 O s       :     3.462887  s :     3.462887
      pz      :     1.604257  p :     4.907138
      px      :     1.489372
      py      :     1.813509
      dz2     :     0.009626  d :     0.026757
      dxz     :     0.002136
      dyz     :     0.004403
      dx2y2   :     0.004030
      dxy     :     0.006562
      f0      :     0.000128  f :     0.002110
      f+1     :     0.000587
      f-1     :     0.000521
      f+2     :     0.000008
      f-2     :     0.000157
      f+3     :     0.000076
      f-3     :     0.000634

 29 H s       :     0.692102  s :     0.692102
      pz      :     0.034054  p :     0.176628
      px      :     0.088846
      py      :     0.053727

 30 H s       :     0.684790  s :     0.684790
      pz      :     0.098004  p :     0.185802
      px      :     0.037059
      py      :     0.050739

 31 O s       :     3.450052  s :     3.450052
      pz      :     1.424294  p :     4.824770
      px      :     1.607046
      py      :     1.793430
      dz2     :     0.008442  d :     0.027475
      dxz     :     0.008808
      dyz     :     0.001839
      dx2y2   :     0.004698
      dxy     :     0.003688
      f0      :     0.000610  f :     0.002162
      f+1     :     0.000323
      f-1     :     0.000175
      f+2     :     0.000330
      f-2     :     0.000289
      f+3     :     0.000091
      f-3     :     0.000343

 32 H s       :     0.665227  s :     0.665227
      pz      :     0.039077  p :     0.161054
      px      :     0.073105
      py      :     0.048872

 33 H s       :     0.669572  s :     0.669572
      pz      :     0.103797  p :     0.183424
      px      :     0.035903
      py      :     0.043724



                      *****************************
                      * MAYER POPULATION ANALYSIS *
                      *****************************

  NA   - Mulliken gross atomic population
  ZA   - Total nuclear charge
  QA   - Mulliken gross atomic charge
  VA   - Mayer's total valence
  BVA  - Mayer's bonded valence
  FA   - Mayer's free valence

  ATOM       NA         ZA         QA         VA         BVA        FA
  0 O      8.6977     8.0000    -0.6977     1.8182     1.8182    -0.0000
  1 H      0.6261     1.0000     0.3739     0.8755     0.8755    -0.0000
  2 H      0.6327     1.0000     0.3673     0.8869     0.8869     0.0000
  3 H      0.6397     1.0000     0.3603     0.9347     0.9347    -0.0000
  4 O      8.7392     8.0000    -0.7392     1.7605     1.7605    -0.0000
  5 H      0.6467     1.0000     0.3533     0.8923     0.8923    -0.0000
  6 H      0.6400     1.0000     0.3600     0.8877     0.8877     0.0000
  7 O      8.7139     8.0000    -0.7139     1.8084     1.8084    -0.0000
  8 H      0.6372     1.0000     0.3628     0.9254     0.9254    -0.0000
  9 H      0.8694     1.0000     0.1306     1.0208     1.0208    -0.0000
 10 C      6.1247     6.0000    -0.1247     3.7852     3.7852    -0.0000
 11 H      0.7091     1.0000     0.2909     0.9833     0.9833    -0.0000
 12 H      0.8474     1.0000     0.1526     0.9718     0.9718    -0.0000
 13 N      7.2572     7.0000    -0.2572     3.3671     3.3671    -0.0000
 14 H      0.8625     1.0000     0.1375     0.9836     0.9836     0.0000
 15 C      6.2136     6.0000    -0.2136     3.8085     3.8085     0.0000
 16 O      8.6689     8.0000    -0.6689     1.7051     1.7051     0.0000
 17 C      5.6107     6.0000     0.3893     4.1870     4.1870     0.0000
 18 H      0.7078     1.0000     0.2922     0.9520     0.9520     0.0000
 19 O      8.5413     8.0000    -0.5413     1.9190     1.9190     0.0000
 20 H      0.6982     1.0000     0.3018     0.9550     0.9550     0.0000
 21 H      0.8658     1.0000     0.1342     0.9852     0.9852     0.0000
 22 O      8.7311     8.0000    -0.7311     1.7591     1.7591    -0.0000
 23 H      0.6458     1.0000     0.3542     0.9409     0.9409    -0.0000
 24 H      0.6523     1.0000     0.3477     0.9008     0.9008    -0.0000
 25 O      8.6979     8.0000    -0.6979     1.8312     1.8312     0.0000
 26 H      0.6248     1.0000     0.3752     0.8758     0.8758     0.0000
 27 H      0.6256     1.0000     0.3744     0.8750     0.8750    -0.0000
 28 O      8.7627     8.0000    -0.7627     1.6956     1.6956     0.0000
 29 H      0.6666     1.0000     0.3334     0.9497     0.9497    -0.0000
 30 H      0.6672     1.0000     0.3328     0.9744     0.9744    -0.0000
 31 O      8.7153     8.0000    -0.7153     1.7978     1.7978    -0.0000
 32 H      0.6351     1.0000     0.3649     0.8823     0.8823    -0.0000
 33 H      0.6256     1.0000     0.3744     0.9066     0.9066    -0.0000

  Mayer bond orders larger than 0.100000
B(  0-O ,  1-H ) :   0.8663 B(  0-O ,  2-H ) :   0.8655 B(  3-H ,  4-O ) :   0.7948 
B(  3-H , 16-O ) :   0.1146 B(  4-O ,  5-H ) :   0.8803 B(  6-H ,  7-O ) :   0.8763 
B(  7-O ,  8-H ) :   0.8107 B(  7-O , 23-H ) :   0.1038 B(  9-H , 10-C ) :   0.9680 
B( 10-C , 12-H ) :   0.9607 B( 10-C , 13-N ) :   0.8955 B( 10-C , 15-C ) :   0.9541 
B( 11-H , 13-N ) :   0.8226 B( 11-H , 31-O ) :   0.1434 B( 13-N , 18-H ) :   0.8618 
B( 13-N , 20-H ) :   0.8455 B( 14-H , 15-C ) :   0.9546 B( 15-C , 17-C ) :   0.9740 
B( 15-C , 21-H ) :   0.9414 B( 16-O , 17-C ) :   1.3991 B( 17-C , 19-O ) :   1.7406 
B( 19-O , 30-H ) :   0.1226 B( 22-O , 23-H ) :   0.8342 B( 22-O , 24-H ) :   0.8931 
B( 25-O , 26-H ) :   0.8667 B( 25-O , 27-H ) :   0.8670 B( 28-O , 29-H ) :   0.8588 
B( 28-O , 30-H ) :   0.8305 B( 31-O , 32-H ) :   0.8725 B( 31-O , 33-H ) :   0.8119 


-------
TIMINGS
-------

Total SCF time: 0 days 0 hours 0 min 12 sec 

Total time                  ....      12.878 sec
Sum of individual times     ....      12.805 sec  ( 99.4%)

SCF preparation             ....       0.769 sec  (  6.0%)
Fock matrix formation       ....      11.494 sec  ( 89.3%)
  Startup                   ....       0.022 sec  (  0.2% of F)
  Split-RI-J                ....       0.675 sec  (  5.9% of F)
  Chain of spheres X        ....       8.790 sec  ( 76.5% of F)
  XC integration            ....       0.810 sec  (  7.1% of F)
    Basis function eval.    ....       0.235 sec  ( 29.0% of XC)
    Density eval.           ....       0.192 sec  ( 23.7% of XC)
    XC-Functional eval.     ....       0.034 sec  (  4.2% of XC)
    XC-Potential eval.      ....       0.264 sec  ( 32.5% of XC)
  CPCM terms                ....       1.138 sec  (  9.9% of F)
Diagonalization             ....       0.000 sec  (  0.0%)
Density matrix formation    ....       0.042 sec  (  0.3%)
Total Energy calculation    ....       0.033 sec  (  0.3%)
Population analysis         ....       0.095 sec  (  0.7%)
Orbital Transformation      ....       0.068 sec  (  0.5%)
Orbital Orthonormalization  ....       0.000 sec  (  0.0%)
DIIS solution               ....       0.086 sec  (  0.7%)
SOSCF solution              ....       0.218 sec  (  1.7%)
Finished LeanSCF after  13.0 sec

Maximum memory used throughout the entire LEANSCF-calculation: 66.8 MB


-------------------------------------------------------------------------------
                          DFT DISPERSION CORRECTION                            
                                                                               
                                DFTD4 V3.4.0                                   
-------------------------------------------------------------------------------
The B3LYP functional is recognized
Active option DFTDOPT                   ...         5   

-------------------------   ----------------
Dispersion correction           -0.033348852
-------------------------   ----------------


-------------------------   --------------------
FINAL SINGLE POINT ENERGY      -858.873041727020
-------------------------   --------------------

                                *** OPTIMIZATION RUN DONE ***

--------------------------------------------------------------------------
WARNING: There was an error initializing an OpenFabrics device.

  Local host:   ga01
  Local device: mlx5_0
--------------------------------------------------------------------------


           ************************************************************
           *        Program running with 10 parallel MPI-processes    *
           *              working on a common directory               *
           ************************************************************

------------------------------------------------------------------------------
                              ORCA PROPERTY CALCULATIONS
------------------------------------------------------------------------------

GBWName                                 ... 02_Alanine_zwitterion.gbw
Number of atoms                         ...     34
Number of basis functions               ...    529
Max core memory                         ...   5000 MB

Electric properties:
Dipole moment                           ... YES
Quadrupole moment                       ...  NO
Static polarizability (Dipole/Dipole)   ...  NO
Static polarizability (Dipole/Quad.)    ...  NO
Static polarizability (Quad./Quad.)     ...  NO
Static polarizability (Velocity)        ...  NO

Atomic electric properties:
Dipole moment                           ...  NO
Quadrupole moment                       ...  NO
Static polarizability                   ...  NO

Choice of electric origin               ... Center of mass
Position of electric origin             ...    -2.353866     1.738554    -2.564469

General magnetic properties:
Magnetizability                         ...  NO

EPR properties:
g-Tensor (aka g-matrix)                 ...  NO
Zero-Field splitting spin-orbit         ...  NO
Zero-field splitting spin-spin          ...  NO
Hyperfine couplings                     ...  NO (   0 nuclei)
Quadrupole couplings                    ...  NO (   0 nuclei)
Contact density                         ...  NO (   0 nuclei)

NMR properties:
Chemical shifts                         ...  NO (   0 nuclei)
Spin-rotation constants                 ...  NO (   0 nuclei)
Spin-spin couplings                     ...  NO (   0 nuclei,    0 pairs)

Choice of magnetic origin               ... GIAO
Position of magnetic origin             ...     0.000000     0.000000     0.000000

Properties with geometric perturbations:
SCF Hessian                             ...  NO
IR spectrum                             ...  NO
VCD spectrum                            ...  NO
X-ray spectroscopy properties:
SCF XES/XAS/RIXS spectra                ...  NO


-------------
DIPOLE MOMENT
-------------

Method             : SCF
Type of density    : Electron Density
Multiplicity       :   1
Irrep              :   0
Energy             :  -858.8396928753203383 Eh
Relativity type    : 
Basis              : AO
                                X                 Y                 Z
Electronic contribution:     -0.806234977       3.300176086       1.521897000
Nuclear contribution   :      4.850188908      -6.298016122     -12.363134394
                        -----------------------------------------
Total Dipole Moment    :      4.043953931      -2.997840036     -10.841237394
                        -----------------------------------------
Magnitude (a.u.)       :     11.952950954
Magnitude (Debye)      :     30.381986829



--------------------
Rotational spectrum 
--------------------
 
Rotational constants in cm-1:             0.019643             0.007987             0.007199 
Rotational constants in MHz :           588.896986           239.455866           215.818365 

Dipole components along the rotational axes: 
x,y,z [a.u.] :   -11.723891    -2.244308    -0.621690 
x,y,z [Debye]:   -29.799763    -5.704576    -1.580210 

 

Dipole moment calculation done in   0.0 sec 

Maximum memory used throughout the entire PROP-calculation: 34.3 MB
[ga01:1896974] 9 more processes have sent help message help-mpi-btl-openib.txt / error in device init
[ga01:1896974] Set MCA parameter "orte_base_help_aggregate" to 0 to see all help / error messages
--------------------------------------------------------------------------
WARNING: There was an error initializing an OpenFabrics device.

  Local host:   ga01
  Local device: mlx5_0
--------------------------------------------------------------------------
[ga01:1897018] 9 more processes have sent help message help-mpi-btl-openib.txt / error in device init
[ga01:1897018] Set MCA parameter "orte_base_help_aggregate" to 0 to see all help / error messages

--------------------------------
SUGGESTED CITATIONS FOR THIS RUN
--------------------------------

Below you find a list of papers that are relevant to this ORCA run
We neither can nor want to force you to cite these papers, but we appreciate if you do
You receive ORCA, which is the product of decades of hard work by many enthusiastic individuals, for free
The only thing we kindly ask in return is that you cite our papers,
We deeply appreciate it, if you show your appreciation for ORCA by not just citing the generic ORCA reference.

Please note that relegating all ORCA citations to the supporting information does *not* help us.
SI sections are not indexed - citations you put there will not count into any citation statistics
But we need these citations in order to attract the funding resources that allow us to do what we are doing

Therefore, if you are a happy ORCA user, please consider citing a few of the papers listed below in the main body of your paper

In addition to the list printed below, the program has created the file 02_Alanine_zwitterion.bibtex that contains the list in bibtex format
You can import this file easily into all common literature databanks and citation aid programs


List of essential papers. We consider these as the minimum necessary citations

  1. Neese,F.
     Software update: the ORCA program system, version 5.0
     WIRES Comput. Molec. Sci., 2022 12(1)e1606
     doi.org/10.1002/wcms.1606

List of papers to cite with high priority. The work reported in these papers was absolutely
necessary for this run to complete.
Our perspective: the developers of density functionals and basis sets usually get cited in chemistry papers
Good! But without the algorithms to do something with them, the functionals or basis sets would not do anything.
Hence, in our opinion, the algorithm design and method developments papers are equally worthy of getting cited

  1. Neese,F.
     An improvement of the resolution of the identity approximation for the formation of the Coulomb matrix
     J. Comp. Chem., 2003 24(14)1740-1747
     doi.org/10.1002/jcc.10318
  2. Neese,F.; Wennmohs,F.; Hansen,A.; Becker,U.
     Efficient, approximate and parallel Hartree-Fock and hybrid DFT calculations. A 'chain-of-spheres' algorithm for the Hartree-Fock exchange
     Chem. Phys., 2009 356(1-3)98-109
     doi.org/10.1016/j.chemphys.2008.10.036
  3. Garcia-Rates,M.; Neese,F.
     Effect of the Solute Cavity on the Solvation Energy and its Derivatives within the Framework of the Gaussian Charge Scheme
     J. Comput. Chem., 2020 41 922-939
     doi.org/10.1002/jcc.26139
  4. Helmich-Paris,B.; de Souza,B.; Neese,F.; Izsák,R.
     An improved chain of spheres for exchange algorithm
     J. Chem. Phys., 2021 155 104109
     doi.org/doi: 10.1063/5.0058766.
  5. Neese,F.
     The SHARK Integral Generation and Digestion System
     J. Comp. Chem., 2022  1-16
     doi.org/10.1002/jcc.26942
  6. Caldeweyher,E.; Bannwarth,C.; Grimme,S.
     Extension of the D3 dispersion coefficient model
     J. Chem. Phys., 2017 147 034112
     doi.org/10.1063/1.4993215
  7. Caldeweyher,E.; Ehlert,S.; Hansen,A.; Neugebauer,H.; Spicher,S.; Bannwarth,C.; Grimme,S.
     A generally applicable atomic-charge dependent London dispersion correction
     J. Chem. Phys., 2019 150 154122
     doi.org/10.1063/1.5090222
  8. Caldeweyher,E.; Mewes,J.; Ehlert,S.; Grimme,S.
     Extension and evaluation of the D4 London-dispersion model for periodic systems
     Phys. Chem. Chem. Phys., 2020 22(16)8499-8512
     doi.org/10.1039/D0CP00502A
  9. Wittmann,L.; Gordiy,I.; Friede,M.; Helmich-Paris,B.; Grimme,S.; Hansen,A.; Bursch,M.
     Extension of the D3 and D4 London Dispersion Corrections to the full Actinides Series
     Phys. Chem. Chem. Phys., 2024 26(32)21379-21394
     doi.org/https://doi.org/10.1039/D4CP01514B 

List of suggested additional citations. These are papers that are important in the 'surrounding' of 
of this run, or papers that preceded the highly important papers. If you like your results we are grateful for a citation.

  1. Izsak,R.; Neese,F.
     An overlap fitted chain of spheres exchange method
     J. Chem. Phys., 2011 135 144105
     doi.org/10.1063/1.3646921
  2. Izsak,R.; Hansen,A.; Neese,F.
     The resolution of identity and chain of spheres approximations for the LPNO-CCSD singles Fock term
     Molec. Phys., 2012 110 2413-2417
     doi.org/10.1080/00268976.2012.687466
  3. Neese,F.
     The ORCA program system
     WIRES Comput. Molec. Sci., 2012 2(1)73-78
     doi.org/10.1002/wcms.81
  4. Izsak,R.; Neese,F.; Klopper,W.
     Robust fitting techniques in the chain of spheres approximation to the Fock exchange: The role of the complementary space
     J. Chem. Phys., 2013 139 
     doi.org/10.1063/1.4819264
  5. Neese,F.
     Software update: the ORCA program system, version 4.0
     WIRES Comput. Molec. Sci., 2018 8(1)1-6
     doi.org/10.1002/wcms.1327
  6. Neese,F.; Wennmohs,F.; Becker,U.; Riplinger,C.
     The ORCA quantum chemistry program package
     J. Chem. Phys., 2020 152 Art. No. L224108
     doi.org/10.1063/5.0004608

List of optional additional citations

  1. Neese,F.
     Approximate second-order SCF convergence for spin unrestricted wavefunctions
     Chem. Phys. Lett., 2000 325(1-3)93-98
     doi.org/10.1016/s0009-2614(00)00662-x

Timings for individual modules:

Sum of individual times          ...      450.583 sec (=   7.510 min)
Startup calculation              ...       31.029 sec (=   0.517 min)   6.9 %
SCF iterations                   ...      265.862 sec (=   4.431 min)  59.0 %
Property calculations            ...        0.625 sec (=   0.010 min)   0.1 %
SCF Gradient evaluation          ...      152.770 sec (=   2.546 min)  33.9 %
Geometry relaxation              ...        0.296 sec (=   0.005 min)   0.1 %
                             ****ORCA TERMINATED NORMALLY****
TOTAL RUN TIME: 0 days 0 hours 7 minutes 38 seconds 862 msec
