52
 energy: -85.249607855298 gnorm: 0.102224862656 xtb: 6.7.1 (edcfbbe)
N           -0.32849940580000        1.08179859500000       -0.39401113160000
C            0.60376966410000        2.13921653430000       -0.80551800210000
C            0.33895642580000        2.58551621880000       -2.24366563230000
C            0.87009640200000        1.62816857580000       -3.32385863660000
C           -0.03646384310000        0.44224806480000       -3.64978714710000
O           -0.38871308760000        0.26561111470000       -4.83794271930000
O           -0.39060161010000       -0.32273906040000       -2.71833002900000
H           -0.06949308210000        0.66417721520000        0.54434301080000
H           -1.30047580290000        1.44511309760000       -0.37993976120000
H            0.48307403330000        2.99312555290000       -0.13869359310000
H            1.62515504500000        1.76723652630000       -0.71205480010000
H            0.82982742240000        3.54658626650000       -2.39735528250000
H           -0.73351325200000        2.73742652330000       -2.38003344800000
H            1.83452684400000        1.21823883150000       -3.01304774060000
H            1.01804801280000        2.16857209560000       -4.26071355120000
H           -0.30391247970000        0.33636781890000       -1.11514214900000
O            0.40589077400000       -0.13026869930000        1.87632808650000
H            1.00084933080000       -0.81220740250000        1.50574889790000
H           -0.38579026410000       -0.61987060770000        2.17455133430000
O           -3.06006142590000       -0.52003199970000       -2.18606756130000
H           -3.47105520780000       -0.62474367500000       -3.05495726950000
H           -2.10011698370000       -0.52990908970000       -2.37633952250000
O           -3.09727255700000       -0.44587376420000       -5.04083567480000
H           -3.53853001960000        0.06087189060000       -5.72831518670000
H           -2.17324714620000       -0.13478210190000       -5.02497111710000
O           -2.95303710720000        1.89069683400000       -0.85603064560000
H           -3.14825385460000        1.06617235350000       -1.34337743030000
H           -3.66617914650000        2.01458235960000       -0.22412955310000
H           -0.09860875930000       -1.89235551590000       -1.90512611140000
H            0.10638030180000       -3.41068860350000       -2.05890834120000
O           -0.01006326010000       -2.71229101410000       -1.38993563320000
H            1.18185818590000       -2.36089698610000       -0.11328359440000
H            1.93098664940000       -2.95733147770000        1.10305394800000
O            1.79680680330000       -2.14067604960000        0.61511999620000
O            0.30602358130000       -4.26178449560000       -3.64799459360000
H            1.12344525930000       -4.57865494140000       -4.04225519830000
H           -0.10111465240000       -3.66449336210000       -4.30562239710000
O           -1.88536777900000       -1.56075780860000        2.36912676820000
H           -2.70959661920000       -1.27910261370000        2.77330623300000
H           -2.11992395440000       -1.91767733770000        1.48483886770000
H           -1.60803856140000       -2.64752117300000       -0.53436678650000
O           -2.47321469730000       -2.40702792310000       -0.15083085580000
H           -2.85906398670000       -1.78202839680000       -0.78718483670000
H           -1.75917898720000       -2.43769260970000       -5.47097586580000
O           -0.79564216670000       -2.44824915350000       -5.42280086960000
H           -0.54377392250000       -1.51971391740000       -5.26079526640000
O           -1.91292675170000       -2.02842283800000       -3.52827526760000
H           -2.61485471100000       -2.08154418530000       -4.18297763680000
H           -1.53391959740000       -1.13350582110000       -3.60871636340000
O           -1.74364143500000        2.23407467030000        1.00593815440000
H           -1.38287718130000        1.90893610730000        1.83563072890000
H           -2.51996272590000        2.77534393660000        1.24110618970000
52
 energy: -85.293621687125 gnorm: 0.046220474084 xtb: 6.7.1 (edcfbbe)
N           -0.30930638454623        1.06600638486586       -0.41462898353283
C            0.61187832262396        2.13321835357444       -0.81250839147808
C            0.34230489975781        2.58785923336893       -2.24594843090346
C            0.88058930643567        1.64003578729085       -3.33016834031914
C           -0.02057323853987        0.45888184273786       -3.65066396757753
O           -0.39429426032978        0.27111205843215       -4.83186215017317
O           -0.36933368765658       -0.28857016592917       -2.70545082322289
H           -0.05555691999951        0.65642453042839        0.52511021587598
H           -1.28356394566069        1.44119758465826       -0.37805193554834
H            0.47805919371170        2.98253771066918       -0.14087432623387
H            1.63498143807849        1.76914012008779       -0.71619101668123
H            0.82979391191226        3.55054811979442       -2.39648723620278
H           -0.73136593697755        2.73593628964785       -2.37799673504666
H            1.84100025211280        1.22416677141327       -3.01601994785343
H            1.02449741547802        2.17712447408726       -4.26765991628123
H           -0.28901377341781        0.32282866294628       -1.12528270458530
O            0.40509127597930       -0.13004973011773        1.88257655755608
H            1.00008624127319       -0.80812109790791        1.50593962275837
H           -0.38757408601989       -0.62416605986387        2.16974294831180
O           -3.11561024776539       -0.44376508361506       -2.13357310292485
H           -3.49472312459350       -0.59629717920985       -3.01339085111076
H           -2.14750474495006       -0.50785258404771       -2.28976458513791
O           -3.11289779943003       -0.41792315137023       -5.06811975749524
H           -3.55979600028603        0.08112250906758       -5.75227730847579
H           -2.18766326158945       -0.10693469194366       -5.06204768528466
O           -2.99548712674182        1.90802323906216       -0.92238298684407
H           -3.16191678274042        1.05604477425089       -1.36211702052856
H           -3.68157020756586        2.00208320115177       -0.25499894037170
H           -0.10913714117127       -1.89688273731312       -1.90222480940603
H            0.09644942332684       -3.40977689048324       -2.05821836265535
O            0.00542523996473       -2.71193367215672       -1.38489243959050
H            1.18304492999997       -2.35856961107491       -0.11395404803156
H            1.93183370552809       -2.95704819475561        1.10181299792217
O            1.79793242203815       -2.13947916733855        0.61549499025730
O            0.30508452551978       -4.26297477553834       -3.65244916460692
H            1.12288577568929       -4.57596911423729       -4.04902262194332
H           -0.10724971602392       -3.66014070572487       -4.30433861599785
O           -1.88636330123178       -1.55880247796970        2.36870794252666
H           -2.71306099786596       -1.28466516690629        2.77244467440020
H           -2.11763288065117       -1.91597045801144        1.48308971140834
H           -1.60969193410606       -2.64814578785388       -0.54060515720078
O           -2.47020968385968       -2.40262088446529       -0.14938621700995
H           -2.85874271058490       -1.78278326685939       -0.79002158217113
H           -1.69422443746413       -2.47599962350515       -5.53753911430638
O           -0.72343814183112       -2.46106505570753       -5.57283718563455
H           -0.50420711278178       -1.54271031051893       -5.29714781835477
O           -1.95409086418378       -2.13198374482563       -3.48530190066811
H           -2.66859161581444       -2.11097075122618       -4.13024633692556
H           -1.48491861133573       -1.27584441347861       -3.58668084439740
O           -1.74764005685394        2.29287547728702        1.09170888629463
H           -1.38263679193248        1.92562927615463        1.89973971329630
H           -2.52264204212726        2.81245871177903        1.32089011530561
52
 energy: -85.311864960233 gnorm: 0.028267894833 xtb: 6.7.1 (edcfbbe)
N           -0.30104479470193        1.05994811242328       -0.42303567776918
C            0.61701821279313        2.12926228306030       -0.81761551856131
C            0.34800238469245        2.59039268902384       -2.24916379468477
C            0.88542254549120        1.64761853260990       -3.33912898739053
C           -0.02532790903180        0.47398076991629       -3.65790318644238
O           -0.39416243977209        0.27413310529846       -4.83734989557133
O           -0.36305652815131       -0.28395191633789       -2.71590184749188
H           -0.04772462923500        0.65348117163081        0.51462929163084
H           -1.27032054833072        1.44437950700314       -0.36523676390780
H            0.47321712531559        2.97308911399488       -0.14189126337837
H            1.64317009873512        1.77223856064535       -0.72185074208733
H            0.83095693897544        3.55615319727804       -2.39541171485402
H           -0.72669051117012        2.73449017474404       -2.37686519546667
H            1.84501249458475        1.23089303393346       -3.02273809359649
H            1.03478834313319        2.19140061937551       -4.27219141010365
H           -0.28351123389088        0.31862495078676       -1.13657305417451
O            0.40346730821065       -0.13096813262972        1.89030666867978
H            1.00137419581874       -0.80383372186028        1.50937584668650
H           -0.38961803554607       -0.63167316289551        2.16477140918265
O           -3.14625325008789       -0.42122408999478       -2.10084120219731
H           -3.52383214645534       -0.55292098761987       -2.98059688459179
H           -2.18260012331101       -0.49507132410713       -2.25149562932728
O           -3.11754149363354       -0.39945010267541       -5.08574977364075
H           -3.57640222060554        0.09531987624624       -5.76608217668900
H           -2.19537961872843       -0.08025709187023       -5.08874030030270
O           -3.02157926293107        1.94205500855400       -0.96414822561067
H           -3.15519880840642        1.06511131439753       -1.38191201282563
H           -3.69405221800663        1.99781578871853       -0.27780772404210
H           -0.10521991183740       -1.90057366850442       -1.89291015701390
H            0.08825706807903       -3.41019964783920       -2.05593410081666
O            0.01361203528392       -2.71502505822002       -1.37795972213773
H            1.18722065787273       -2.35497554094204       -0.11594267954721
H            1.93497192562261       -2.95570846037626        1.09929515503015
O            1.79985060315039       -2.13645008149506        0.61639914374151
O            0.30486072841012       -4.26217290772571       -3.65676469972286
H            1.12175274111367       -4.57559798399381       -4.05453540390452
H           -0.10777756540211       -3.66085049842106       -4.30677052484679
O           -1.88931992723169       -1.55454444836366        2.36733133968649
H           -2.72017030176829       -1.29347704495245        2.77113019112842
H           -2.11543562294944       -1.91323457036570        1.48071865582932
H           -1.61178517829597       -2.64890849754860       -0.54964394851478
O           -2.46644693313468       -2.40207358381179       -0.14688639906209
H           -2.86412703080651       -1.78598507438813       -0.78460576117426
H           -1.63791153962617       -2.49985310357817       -5.59990604023318
O           -0.67112632873731       -2.46226720089720       -5.63050752442138
H           -0.47005453823987       -1.54316190421753       -5.38080935898949
O           -1.98439723672708       -2.25219418163488       -3.47429647882316
H           -2.71333106099001       -2.14240603086306       -4.10607809981349
H           -1.46184192054058       -1.42186318620142       -3.53717003607872
O           -1.75145341217414        2.35027776325373        1.17257946895881
H           -1.38524044559873        1.93885255953486        1.96140684039699
H           -2.52431197042646        2.85859363070217        1.40693301205585
52
 energy: -85.322220006996 gnorm: 0.021725615587 xtb: 6.7.1 (edcfbbe)
N           -0.29932097699003        1.05862592482802       -0.42685827431739
C            0.62038477387872        2.12781318755451       -0.82117696325952
C            0.34892546378990        2.59163264684992       -2.25183916278386
C            0.88428985375548        1.64918942653478       -3.34504262938449
C           -0.01545212005123        0.46780397827712       -3.67831433486187
O           -0.40070620875369        0.29260455606899       -4.85475392388071
O           -0.37742163199410       -0.29347280210567       -2.74460238410549
H           -0.04194916203964        0.64882414363093        0.50648082565779
H           -1.25933151479808        1.45131073409644       -0.34806659368635
H            0.47277307173287        2.96801694439890       -0.14292264729917
H            1.64820974894783        1.77349167101552       -0.72808021591410
H            0.82993969592680        3.55915624215236       -2.39455011384673
H           -0.72603456276187        2.73539330552023       -2.37679848187152
H            1.84574593115948        1.23537798092432       -3.03029054726681
H            1.03908125839387        2.20159835049484       -4.27323839616559
H           -0.28772349711628        0.32177887712251       -1.15108023391482
O            0.40113256268405       -0.13216926648738        1.89535440945403
H            1.00373139565395       -0.80209585295694        1.51717586792716
H           -0.39204732488463       -0.63767465597601        2.16102593570434
O           -3.17059863479873       -0.41783187564470       -2.07719730106426
H           -3.55515555731117       -0.51590949788326       -2.95642783216185
H           -2.21238780469462       -0.48148617282387       -2.22657709045966
O           -3.12048271676588       -0.38624789499926       -5.08747505213176
H           -3.58178888774388        0.10429947311762       -5.77174267837408
H           -2.19752623385050       -0.07203700902207       -5.09782964180596
O           -3.03907941190441        1.98445239174093       -0.99291817914105
H           -3.15520119630966        1.10045676897944       -1.40915077132313
H           -3.70377770408028        2.01239064095694       -0.29961566402508
H           -0.09017064989558       -1.90036409214614       -1.87979343400499
H            0.08059480370190       -3.41020070188372       -2.05346871343368
O            0.01692916450014       -2.71864395357986       -1.37087291403148
H            1.19262462832828       -2.35224203609287       -0.11663168138910
H            1.94123131620780       -2.95251686271699        1.09728398840764
O            1.80339514145532       -2.13209851379943        0.61731505173991
O            0.30606134927947       -4.25811252052528       -3.66381171811320
H            1.12105004068611       -4.57417855094922       -4.06342086533511
H           -0.10730329819953       -3.66079807201484       -4.31424361795713
O           -1.89401346679322       -1.54771251279786        2.36503572430562
H           -2.73083303311589       -1.30713121759453        2.77006129997827
H           -2.11307266829193       -1.91064324230796        1.47809086721616
H           -1.61398911028442       -2.65175523807720       -0.55826746237017
O           -2.46221134832442       -2.40480128474553       -0.14205221073938
H           -2.87502848788312       -1.79480055092175       -0.77501153435542
H           -1.57015491667433       -2.53355581920904       -5.66667690432246
O           -0.60543773115159       -2.45468356396614       -5.70240395325193
H           -0.43363973488165       -1.53291237967452       -5.43789126845194
O           -2.02213960604301       -2.36508826702712       -3.46934118523665
H           -2.75246399078506       -2.18228632563767       -4.08491872098020
H           -1.45587827424397       -1.56349919865441       -3.50074373343843
O           -1.74680895370755        2.41040274042620        1.25732987358435
H           -1.38462457732982        1.95417267489509        2.02604836838988
H           -2.52363649482731        2.90539583143599        1.50882183129099
52
 energy: -85.327839485478 gnorm: 0.016759648612 xtb: 6.7.1 (edcfbbe)
N           -0.30453995338328        1.05857903468842       -0.42933972326503
C            0.62054882373918        2.12570515672651       -0.82457422768230
C            0.34769131985826        2.59030970057112       -2.25478900608969
C            0.87699122235321        1.64568568053932       -3.34869549136766
C           -0.05325758776609        0.48610179935312       -3.69112474703234
O           -0.39350131131880        0.30103359627973       -4.87907882995856
O           -0.40028281961587       -0.30706978139536       -2.77492851678194
H           -0.03893660812768        0.63878154295864        0.49813581878268
H           -1.25455763790509        1.46028631907594       -0.33081670370815
H            0.47650677748886        2.96482522658245       -0.14478692095726
H            1.64751016791883        1.76823333291975       -0.73470037281329
H            0.83366217043442        3.55497069241931       -2.39877436862843
H           -0.72647666704559        2.74015825030612       -2.37860301421136
H            1.83656211784502        1.22337401063641       -3.03644809488257
H            1.03855460325270        2.20056777085703       -4.27509797627178
H           -0.30605628766292        0.32927272032723       -1.16517979262606
O            0.39779837689027       -0.13270135110808        1.89548378630262
H            1.00578584223595       -0.80266420277610        1.52646769778547
H           -0.39573961159211       -0.63948915267810        2.15737014019114
O           -3.18807315414277       -0.41012475661346       -2.06110424207511
H           -3.58217423361809       -0.48309508789927       -2.93907839916135
H           -2.23130013922396       -0.47490794787028       -2.21036416558328
O           -3.12072616272567       -0.37661734675730       -5.08030468048304
H           -3.58073900151321        0.10821706079450       -5.77100686020988
H           -2.19491717402694       -0.07099749683767       -5.09969869063193
O           -3.04901047714497        2.02526797845752       -1.01249892489120
H           -3.16728543741264        1.14665205406527       -1.43467450826770
H           -3.70941475839197        2.04640744611759       -0.31877023761038
H           -0.07090949832753       -1.89664250722295       -1.87150493600349
H            0.07439710832786       -3.41051356161623       -2.05015228033074
O            0.02125739345623       -2.71916753133540       -1.36660050411924
H            1.19903316379927       -2.35066650140888       -0.11393433022914
H            1.95269275691377       -2.94721186944134        1.09694619100346
O            1.81039275769655       -2.12682162178160        0.61827812698675
O            0.31430732009899       -4.25360487290807       -3.66950788966653
H            1.12500312158073       -4.57717173825920       -4.07203907285685
H           -0.09877226079798       -3.66199772167409       -4.32276359344628
O           -1.90123655506235       -1.54092371125060        2.36136682539891
H           -2.74498493116988       -1.32679478518066        2.76845518490438
H           -2.11174720072887       -1.90849152733707        1.47385207601410
H           -1.61487406324758       -2.65381138178197       -0.56474868079377
O           -2.45953360372818       -2.41112733552871       -0.13890023709123
H           -2.88759164460767       -1.80577749036471       -0.76575281362782
H           -1.49611432575144       -2.56280446588829       -5.73633374358115
O           -0.53633776738612       -2.44623460724761       -5.75517765516857
H           -0.39054576842602       -1.51746361773253       -5.51160475914989
O           -2.05642013720446       -2.46655544949198       -3.47115691314144
H           -2.78011771058980       -2.23145265506693       -4.06893433908028
H           -1.47187248299427       -1.68571217112962       -3.46401096885225
O           -1.73490537425293        2.46643149654691        1.34175600564987
H           -1.37326695194201        1.97700829660029        2.08986829941885
H           -2.51376703425376        2.94798363956153        1.62350607309041
52
 energy: -85.331004312257 gnorm: 0.013692908392 xtb: 6.7.1 (edcfbbe)
N           -0.31649036903463        1.06024045329485       -0.43158526104227
C            0.61639650116930        2.12254255390377       -0.82848544534249
C            0.34156413607867        2.58558267742807       -2.25846459607957
C            0.86533302385593        1.63523099696430       -3.35044909982703
C           -0.04124247358403        0.45960655213149       -3.70977470893760
O           -0.40442366194350        0.31381042392037       -4.89762119275931
O           -0.43312360822137       -0.31827661484124       -2.79721671935892
H           -0.04171545580840        0.62709985950812        0.48965702940428
H           -1.25769523017882        1.47160866775032       -0.31710422343928
H            0.47989430594004        2.96216489393410       -0.14773131646375
H            1.64091772771652        1.75799600299563       -0.74157896818216
H            0.83131642274273        3.54840210410297       -2.40447072723326
H           -0.73183157030151        2.74081547363358       -2.38045672306317
H            1.82536601678501        1.21437660689405       -3.04004433524612
H            1.02834808136207        2.19066918590085       -4.27667294365388
H           -0.33476900120966        0.33981462728606       -1.17693782726265
O            0.39279426423215       -0.13135921048198        1.89013790572621
H            1.00665157704541       -0.80247943022206        1.53290850934005
H           -0.40057088452970       -0.63766292403644        2.15250572791555
O           -3.19908982920093       -0.39618531390785       -2.05648398432036
H           -3.60774627856412       -0.45663299381032       -2.92856813336597
H           -2.24387564412151       -0.46505207994259       -2.21586134617296
O           -3.12650738565196       -0.36519333509518       -5.06640044381946
H           -3.57797141240497        0.11212969811230       -5.76817218643692
H           -2.19604244847708       -0.07414296030732       -5.09326083828945
O           -3.05449961985800        2.06845266516804       -1.02839994558125
H           -3.17982710678420        1.18920004131975       -1.44522539277103
H           -3.70483226315855        2.09069685298742       -0.32424735066089
H           -0.05721032643037       -1.88955663007526       -1.86445909411423
H            0.07385894154363       -3.40675484144378       -2.04679429875239
O            0.02379601598504       -2.71588022449736       -1.36338509829431
H            1.20724101978889       -2.34914551593864       -0.10927314554810
H            1.96794963245851       -2.94195796134504        1.09782567295381
O            1.81874674442567       -2.12143272132516        0.62127087667580
O            0.32893270864294       -4.24880036307270       -3.67541095978150
H            1.13492783412515       -4.58419728573526       -4.07819341444301
H           -0.07845683067215       -3.66053240034807       -4.33349150035599
O           -1.91140426640071       -1.53475622027201        2.35640583353722
H           -2.76160286885352       -1.34994219917676        2.76609706488721
H           -2.11315958119919       -1.90649641206826        1.46827166271166
H           -1.61606651738940       -2.65515760287814       -0.56963899910746
O           -2.45980247868595       -2.41893240744255       -0.13878222858199
H           -2.89886569344528       -1.81475700448187       -0.75831928160599
H           -1.42447674952179       -2.58715669934824       -5.80377623491060
O           -0.47065665858174       -2.43439298263978       -5.79273380280477
H           -0.35580479643388       -1.49681471349684       -5.56407177720001
O           -2.09454265183521       -2.55866106242170       -3.48354692161015
H           -2.81285469394284       -2.27163591232242       -4.06359571070722
H           -1.47652868557622       -1.80268604872301       -3.44492035119517
O           -1.72021480578013        2.51698536256283        1.42210660781919
H           -1.35058805923765        2.00406929295453        2.14880406666755
H           -2.49083633607614        2.99237563774550        1.74354058388391
52
 energy: -85.332955027238 gnorm: 0.009712396569 xtb: 6.7.1 (edcfbbe)
N           -0.33506380286484        1.06258386463507       -0.43223943242469
C            0.60838207217874        2.11542665261045       -0.83301077947173
C            0.33539248700290        2.57831987053927       -2.26305239998292
C            0.84921345856970        1.62204236708391       -3.35365464934648
C           -0.07447980753706        0.45967087322904       -3.71701313234982
O           -0.41023520585809        0.31168819124949       -4.91320914824891
O           -0.46828330435415       -0.32416677845956       -2.81194219289065
H           -0.05334063579805        0.61727303110055        0.48363351295232
H           -1.26899901204179        1.48512452453135       -0.30683900845303
H            0.48304602594169        2.95734023636077       -0.15261333762362
H            1.62896559407353        1.73978937027817       -0.74760497481046
H            0.83414151762484        3.53607543120201       -2.41295990535854
H           -0.73669571550359        2.74372750189988       -2.38394203814551
H            1.80452680165440        1.18995576371546       -3.04325492051218
H            1.01792292943607        2.17434286145079       -4.28080481755293
H           -0.37309941322683        0.34887168079134       -1.18251794738085
O            0.38501358611274       -0.12937322453100        1.88087598316335
H            1.00448960659016       -0.80070218207606        1.53351401958554
H           -0.40707803015121       -0.63536679886063        2.14638650488940
O           -3.20433244441770       -0.38467623895976       -2.05893767727573
H           -3.62738732598967       -0.44121852643951       -2.92372630446563
H           -2.25145085306367       -0.45416007340028       -2.23523686047607
O           -3.12942257445384       -0.36433704050651       -5.05203911690571
H           -3.57057255515592        0.11360413729309       -5.75951769373848
H           -2.19637199437723       -0.08153478079632       -5.07354682419257
O           -3.05313132458922        2.10375491028492       -1.03901986349224
H           -3.18886362161585        1.22092505161765       -1.44529814432334
H           -3.69730476070182        2.14254435163809       -0.32972524561983
H           -0.04821539152192       -1.88037901642591       -1.86682987631486
H            0.08074993542886       -3.40012085102530       -2.04423676694829
O            0.02881634699145       -2.70656246429115       -1.36474809613579
H            1.21634220014136       -2.34679086175692       -0.10363906899129
H            1.98557345966180       -2.93673322582220        1.09931447394258
O            1.82778697972855       -2.11600737475701        0.62550185426818
O            0.35185333510013       -4.24193115907713       -3.68046919934966
H            1.15137782299770       -4.59624640187188       -4.08109062653696
H           -0.04736136166434       -3.65854510243454       -4.34747716693808
O           -1.92396363282816       -1.53274540380057        2.35076739503860
H           -2.77815166830771       -1.37413430999565        2.76327222341917
H           -2.11876938340876       -1.90604802460937        1.46177888041448
H           -1.61563443607610       -2.65459376296247       -0.57479241086511
O           -2.46083455551467       -2.42627631645951       -0.14295829631399
H           -2.90536876114993       -1.82009830886518       -0.75529098566429
H           -1.35723070204966       -2.60473960428110       -5.86298282558173
O           -0.40870192636355       -2.42630332809042       -5.82089021354457
H           -0.32274471770066       -1.48243574120738       -5.59301491771507
O           -2.11823883683716       -2.62637585265238       -3.50310658809823
H           -2.83874326028867       -2.30857864827273       -4.05920639954748
H           -1.49791712370738       -1.88223605182350       -3.43635853084186
O           -1.70533215891057        2.55461140984195        1.49495927976765
H           -1.31370132612120        2.02842930141683        2.20002664502531
H           -2.44786382427999        3.04455463054330        1.86269262516259
52
 energy: -85.334470210835 gnorm: 0.014928555917 xtb: 6.7.1 (edcfbbe)
N           -0.36143934430829        1.06634499825750       -0.42965526431528
C            0.59547115886958        2.10443837482760       -0.83834711889950
C            0.32622628951575        2.56545541027188       -2.26949519017133
C            0.82932457619435        1.60150453828046       -3.35770746796314
C           -0.10701286868460        0.44821803309888       -3.71920995176932
O           -0.42282084944782        0.29485804496523       -4.92112307934207
O           -0.50867132172987       -0.32909720277973       -2.81476907559454
H           -0.07540924997236        0.61194940897146        0.48255813836086
H           -1.28856373652566        1.50013744556151       -0.29960626762929
H            0.48487595132011        2.95123176742761       -0.16097796186795
H            1.61067736174498        1.71398529696841       -0.75314913262243
H            0.83543179940405        3.51718442337974       -2.42393302587737
H           -0.74423285163575        2.74287892669923       -2.38971354680543