37
 energy: -59.748334937468 gnorm: 0.179678630404 xtb: 6.7.1 (edcfbbe)
N            0.05814800000000       -0.92758300000000        1.46960700000000
C            0.21195900000000        0.51002000000000        1.25738900000000
C           -0.42029600000000        1.02660100000000       -0.05399500000000
C            0.23290900000000        0.51099500000000       -1.35178600000000
C           -0.12525300000000       -0.89643600000000       -1.75561800000000
O            0.43258500000000       -1.42088200000000       -2.86197900000000
O           -0.94795900000000       -1.55110300000000       -1.13717200000000
H            0.42854800000000       -1.16686800000000        2.41684100000000
H           -0.95187600000000       -1.19383100000000        1.43153800000000
H           -0.27873900000000        1.04478500000000        2.10014800000000
H            1.29199600000000        0.77262900000000        1.27882300000000
H           -0.26331200000000        2.12751800000000       -0.03828000000000
H           -1.51695700000000        0.85134800000000       -0.07337000000000
H            1.33463900000000        0.61768200000000       -1.26361400000000
H           -0.10456000000000        1.15854300000000       -2.18948000000000
H            0.61816600000000       -1.46341800000000        0.77094700000000
O           -3.11860100000000       -2.55311400000000        4.20625100000000
H           -2.57520400000000       -2.58851400000000        5.03334100000000
H           -3.43726600000000       -1.61673800000000        4.15864700000000
O           -0.60542100000000       -4.18266500000000        4.47384900000000
H           -1.32273000000000       -4.09711800000000        3.79653000000000
H           -0.49558400000000       -3.26750900000000        4.83584100000000
O            1.95015100000000       -3.62803100000000        3.82808400000000
H            2.93719900000000       -3.58344600000000        3.89410900000000
H            1.73178500000000       -4.57627200000000        4.01184500000000
O            1.27536600000000        3.38931100000000        4.56756400000000
H            1.76399500000000        2.55804300000000        4.34207200000000
H            0.39188100000000        3.07833000000000        4.88905600000000
O            0.16484800000000        0.72939400000000        5.88765300000000
H            0.71040000000000        0.35888800000000        5.14893100000000
H           -0.58789300000000        1.18665400000000        5.43498600000000
O           -1.54257600000000       -0.66436300000000        4.72367800000000
H           -0.86022600000000       -1.15333700000000        5.24895200000000
H           -1.22736200000000       -0.72815500000000        3.78709700000000
O            2.55923300000000       -1.60720800000000        4.77851200000000
H            2.45189600000000       -1.00498700000000        5.55724000000000
H            2.77570900000000       -1.00223800000000        4.02501100000000
37
 energy: -59.776033028126 gnorm: 0.091172231122 xtb: 6.7.1 (edcfbbe)
N            0.06428115482232       -0.92891040397100        1.47269656118374
C            0.21517538123115        0.51990964948314        1.25752031968128
C           -0.40565473489060        1.03465318724547       -0.04714016665268
C            0.23837962344743        0.51965956532487       -1.34442198415619
C           -0.14269257707765       -0.89163011785677       -1.76963045662498
O            0.43968618028313       -1.37153950747492       -2.82161667031865
O           -0.94183006695836       -1.56288579321773       -1.10077324855733
H            0.43330277850664       -1.19653540504277        2.40101767780718
H           -0.92993148144026       -1.20100494909461        1.40679411145152
H           -0.27330470073716        1.04969376786629        2.08581127081942
H            1.28201510109231        0.77502483948522        1.26461124412740
H           -0.27506060495278        2.12466435298335       -0.04065002941822
H           -1.48389424248681        0.83320708158932       -0.07123336439100
H            1.33096422624214        0.60965180231314       -1.28626366530286
H           -0.08570039716071        1.15766190824869       -2.17837279917066
H            0.59102532199754       -1.46086704710524        0.76411378795193
O           -3.15959374690450       -2.58336208529657        4.20761065416282
H           -2.63096637114990       -2.61616856820222        5.02475914313014
H           -3.45420868166102       -1.65731744050283        4.15769487921278
O           -0.63826394164025       -4.19411299504943        4.48276515257691
H           -1.33764447110593       -4.09406105855393        3.81521497395000
H           -0.48454023571228       -3.29671279529344        4.82518592158777
O            1.95739533899657       -3.67580859412351        3.75929238056471
H            2.91859784884675       -3.61578486717965        3.90116876614269
H            1.71713401068268       -4.58237320044243        4.01543671263317
O            1.26440941058696        3.38074098546648        4.54555490238326
H            1.76087634432805        2.56660885727864        4.35678041954347
H            0.40953467980983        3.08055060417680        4.89978345001518
O            0.24780608074833        0.81435527876594        5.89284346203375
H            0.70922512552188        0.36305389685940        5.15568921959420
H           -0.58328716645047        1.14228222908134        5.47555074009443
O           -1.52691239492551       -0.64457459759057        4.70025252570875
H           -0.87504149860803       -1.13174287331317        5.23319444967406
H           -1.23735852733872       -0.74882787357872        3.77905464275708
O            2.53375734272562       -1.53822404744550        4.78890194968781
H            2.48414488692804       -0.96318786078395        5.57078862775286
H            2.80777300440292       -0.96916092504872        4.04926243836359
37
 energy: -59.787286092464 gnorm: 0.039237987911 xtb: 6.7.1 (edcfbbe)
N            0.06983535890528       -0.92592637560829        1.46709547357335
C            0.22579181464200        0.53503779935395        1.25849019663746
C           -0.39818985628051        1.04191894085812       -0.03812156624230
C            0.25048313632285        0.52893216660199       -1.32843569518166
C           -0.09659654056262       -0.91844549607664       -1.74080101832138
O            0.37948152733088       -1.30046215498382       -2.82013964282165
O           -0.93707251867761       -1.55137285718952       -1.05778998997736
H            0.44193724594922       -1.22886152927995        2.37445888681519
H           -0.91256242405949       -1.20035096310366        1.36570615400328
H           -0.26304758445161        1.05243416324089        2.07960763311857
H            1.28469488346112        0.77538582921722        1.25548593751063
H           -0.29609575949185        2.12470753287465       -0.03485086526554
H           -1.46045236329978        0.80435860773027       -0.07048696430582
H            1.33525176970762        0.60433562000580       -1.29453596836876
H           -0.07174971255216        1.14909811594792       -2.16686043480740
H            0.55722245787459       -1.45157603785688        0.73624440434858
O           -3.18202019237579       -2.60901975457216        4.19723599452281
H           -2.70672929237438       -2.65730119143687        5.03288164635091
H           -3.48616363914544       -1.70018876642821        4.15821301304250
O           -0.66956720485351       -4.21211460999292        4.49336982704761
H           -1.36430075027016       -4.10345376793870        3.84295862502889
H           -0.46437324082014       -3.33128505638121        4.81709322766281
O            1.96492836573018       -3.71338310741398        3.70528397634586
H            2.90255652615005       -3.64324039323299        3.89559472476054
H            1.69388148937690       -4.58281916521235        4.00776659202466
O            1.24967965196914        3.37633396017622        4.50565225418139
H            1.77117931223545        2.57952397782687        4.37740839621416
H            0.43265995012240        3.08228429004855        4.92224128899693
O            0.28778528052891        0.83310597863214        5.88750654304534
H            0.73200314127396        0.38573727437930        5.16349081425835
H           -0.55551052213881        1.12158274813868        5.50962104332464
O           -1.50305870126754       -0.61714419592037        4.67669513739168
H           -0.88346141596095       -1.10618331627331        5.22125432284984
H           -1.25402611091180       -0.77784700702701        3.76357112845401
O            2.48513295603919       -1.46260651026613        4.79567858647647
H            2.52349886154343       -0.92182910610018        5.59289005540011
H            2.85657210032941       -0.93244064273616        4.07777426190398
37
 energy: -59.792303067374 gnorm: 0.092889386586 xtb: 6.7.1 (edcfbbe)
N            0.07685283337031       -0.92344133667855        1.45335670967433
C            0.24179656421235        0.54312129476566        1.26359006254049
C           -0.39287119580733        1.04786398864145       -0.02645633247583
C            0.25165177861510        0.54651056859143       -1.31915745570770
C           -0.13369215937783       -0.89506179879432       -1.77412359850769
O            0.39314563619791       -1.29050278495391       -2.80419861972545
O           -0.88827745496104       -1.55751547570164       -1.00208615115460
H            0.45470903717818       -1.25420448308745        2.34856217865871
H           -0.90578790073047       -1.19232980102584        1.33186901164241
H           -0.24574591119561        1.05111374923610        2.09082186119177
H            1.30227512633136        0.77454510674163        1.25464288094428
H           -0.31122110756565        2.13269869715390       -0.01903378767964
H           -1.44976584214888        0.78434669254703       -0.06258643644098
H            1.34038550563452        0.59797646192359       -1.29729119937425
H           -0.07126217999032        1.17298941883601       -2.15110522034174
H            0.54173433955542       -1.43893493428865        0.69761843705386
O           -3.19858209047824       -2.63511903668937        4.18531182876203
H           -2.78712040894673       -2.70814190425756        5.05929806610126
H           -3.52451203060335       -1.73335723904267        4.15463071574151
O           -0.70942856862689       -4.24417931929757        4.51474670704186
H           -1.40405242601735       -4.10985189722658        3.86751040326760
H           -0.42620349850087       -3.36480650919485        4.80778085612159
O            1.97126321498912       -3.73731404636710        3.62575186192877
H            2.89626026104120       -3.66789087889678        3.91280610621507
H            1.65182049241011       -4.57339431854381        4.01111840337946
O            1.22452195271866        3.37692146285144        4.43651038273426
H            1.79432707863373        2.58581937671353        4.40949552605012
H            0.45242548097351        3.08068132386871        4.96003929556697
O            0.38317518543509        0.92361888051900        5.88664958031690
H            0.74453616772146        0.36856401474004        5.16115195419858
H           -0.55786877559264        1.06667197497105        5.55476045997117
O           -1.48629243208523       -0.58098915205472        4.64945972425840
H           -0.90125755658538       -1.09801201495382        5.20959603072102
H           -1.28205785338682       -0.82863911182846        3.73231751397956
O            2.40009873348116       -1.39383034266136        4.78464701437130
H            2.57629137588693       -0.88930509206509        5.61838162070070
H            2.91832662821146       -0.88969653448816        4.10286160827147
37
 energy: -59.793806945944 gnorm: 0.077905824870 xtb: 6.7.1 (edcfbbe)
N            0.08028198021056       -0.92667898723945        1.44094700367731
C            0.25099981916876        0.54180423873922        1.27038832557616
C           -0.39284896892329        1.04710458165129       -0.01477734388803
C            0.25128074042369        0.55492223075999       -1.30777896020435
C           -0.15730354969351       -0.88252247020716       -1.79010331880371
O            0.39897661999766       -1.28546058589457       -2.81578857792969
O           -0.85763200228879       -1.56610586711004       -0.97591143561398
H            0.46532555500454       -1.27833947197593        2.32701846325731
H           -0.90586728867389       -1.18765751146314        1.31069784381426
H           -0.23055334345856        1.04505617715145        2.10756269644652
H            1.31453819942417        0.77035151037422        1.25505724399369
H           -0.33208329689972        2.13670147747421       -0.00459747485827
H           -1.44662003579738        0.76176211974965       -0.05028341990561
H            1.34355764486906        0.59536024388100       -1.28651772679731
H           -0.06967908204154        1.18695019793182       -2.13814768247420
H            0.52988866404151       -1.43052238718675        0.66248014956683
O           -3.21520045680896       -2.66041059968925        4.17380708110692
H           -2.85485127519389       -2.75473646602748        5.07752915122575
H           -3.55681318967552       -1.75990349384351        4.14541560292662
O           -0.73727049358409       -4.27328842113795        4.53457874302411
H           -1.43664340786376       -4.11365344842519        3.88995937290350
H           -0.38974531959764       -3.39484871768634        4.79821928657372
O            1.97772213257848       -3.74213202902430        3.60790364232537
H            2.89598074374592       -3.69165389807089        3.90199866195354
H            1.62082905016422       -4.56282738175849        3.98548723384184
O            1.22653659445516        3.37904199695349        4.42929468246746
H            1.80948162994626        2.60103945645302        4.41486917762183
H            0.46898617633136        3.08815758758559        4.97132036971094
O            0.38807454868319        0.89485939171816        5.89096357373940
H            0.79319431172916        0.38419080946143        5.18323763238560
H           -0.48479692705631        1.11382233863421        5.57059426064481
O           -1.48614780165159       -0.56250024662426        4.61966658486029
H           -0.92140568463742       -1.08748056328093        5.20149379109813
H           -1.30109601502186       -0.86700621226911        3.70787078163004
O            2.49851434484462       -1.33839546771067        4.81236185948257
H            2.53745709090374       -0.84582412062333        5.61521059953132
H            2.86453029234187       -0.84225101126698        4.10722012508633
37
 energy: -59.798615576452 gnorm: 0.049087989961 xtb: 6.7.1 (edcfbbe)
N            0.08121866576997       -0.93298343892762        1.43386316083760
C            0.25113971291470        0.53197695445267        1.27442702099573
C           -0.39900954532402        1.03988916246593       -0.00926058323165
C            0.25606454810200        0.54890540414939       -1.29752996886183
C           -0.10177652206821       -0.90933231961676       -1.73965564894357
O            0.36537224898586       -1.27064950385211       -2.86409337234438
O           -0.88044962960030       -1.55474934244802       -1.01532282731127
H            0.47253805741773       -1.28836039354636        2.31656485405261
H           -0.90997395102875       -1.18647079751403        1.31385095072829
H           -0.22056933971023        1.03600045583508        2.12209665772529
H            1.31736383517610        0.76551153373936        1.25605971883157
H           -0.35055456551039        2.13381095116657        0.00207874240908
H           -1.45279370390868        0.74720052030939       -0.03731647167984
H            1.34629812398197        0.60580369030203       -1.25795321336646
H           -0.06060703306839        1.17685845243779       -2.13807513836593
H            0.52876540625465       -1.42814217791879        0.64528338258961
O           -3.23536090696414       -2.67869730994506        4.17613465628304
H           -2.87454806925689       -2.77548938815507        5.07182468551221
H           -3.57155839603392       -1.77205431717000        4.13600528476077
O           -0.72040174501561       -4.28168763764489        4.52785252720839
H           -1.44871155504430       -4.12285016108604        3.90715714509481
H           -0.39498026866829       -3.41516224263088        4.80354999280087
O            1.96860389923665       -3.74136270086851        3.61599576218327
H            2.88457911979801       -3.69851973227650        3.88776184821471
H            1.60620900769230       -4.56288128546007        3.94151190253585
O            1.24527820283366        3.38337899500136        4.46702125256255
H            1.81475104415992        2.62106346493968        4.40194330999739
H            0.47704315848346        3.10209598517869        4.95846280235162
O            0.42250965621689        0.92259280015158        5.88696756526104
H            0.81691969498601        0.38496166140519        5.18578757572956
H           -0.46727403444024        1.11076875328143        5.58118762844376
O           -1.49446472444159       -0.56842789095981        4.60747443976983
H           -0.93428384683603       -1.09573831291136        5.19604204605631
H           -1.30300867969207       -0.86606637305643        3.70922572855770
O            2.43875105921397       -1.29053014748153        4.80666082670755
H            2.56191801612090       -0.81747520751212        5.63389214898738
H            2.90460105926338       -0.80626310383082        4.12177160691306
37
 energy: -59.801397903062 gnorm: 0.065760312575 xtb: 6.7.1 (edcfbbe)
N            0.09047366196225       -0.93181828829872        1.42685532449467
C            0.25905618903299        0.53363087003435        1.27533790965517
C           -0.40085206139434        1.04272930171069       -0.00271271416391
C            0.25608451830879        0.56653529542952       -1.29710677171905
C           -0.10763923585162       -0.89004730741265       -1.74691485189568
O            0.37239395538088       -1.25539435947847       -2.84357984724462
O           -0.87457729931807       -1.54137339648696       -1.01519988343644
H            0.48912677097870       -1.29602749822559        2.29993622404527
H           -0.89989068609471       -1.18240779768570        1.30989779083518
H           -0.20416906994748        1.03048496014172        2.12974140321131
H            1.32318884830468        0.76716435523780        1.25338762454726
H           -0.36324822577870        2.13421546285975        0.01558945552483
H           -1.45079924080051        0.74321850755100       -0.02461353502241
H            1.34464795129869        0.61552839939482       -1.24860440969057
H           -0.04992134382120        1.20281206623962       -2.13277584965879
H            0.52594243895298       -1.41862709912401        0.62829643211332
O           -3.24891830611228       -2.70189614144134        4.17912728459426
H           -2.91474958023799       -2.80514475312183        5.08024646853216
H           -3.59220851510389       -1.80118271088186        4.13597534898283
O           -0.72882104262921       -4.30414231443244        4.54122919259503
H           -1.46765796659244       -4.13882530462143        3.93881211662872
H           -0.38030132448617       -3.44501283459091        4.80154207090023
O            1.96798111813020       -3.74484658786930        3.56967890620267
H            2.87505143404606       -3.72489151007276        3.90985259984648
H            1.55519898582161       -4.54278002685568        3.93155474816377
O            1.21753084694651        3.39074056115007        4.37647261015501
H            1.85021921430066        2.63525516827506        4.43661930203401
H            0.50719044159796        3.09853862048004        5.00584735088534
O            0.45708101172388        0.92922988336107        5.87232587142191
H            0.84708554082174        0.37325844466583        5.18736878944376
H           -0.45723284275282        1.06962028906519        5.58348218165932
O           -1.48878918873761       -0.56180629265742        4.59223820160836
H           -0.94247655199089       -1.09831779196391        5.17849671725471
H           -1.33197860903776       -0.89895909754148        3.69756814234340
O            2.37088202863315       -1.23703438571316        4.79465795077011
H            2.58625531180764       -0.79625245085838        5.65021503210511
H            2.94843882263278       -0.76924923625803        4.13840281227270
37
 energy: -59.795170513953 gnorm: 0.123186742214 xtb: 6.7.1 (edcfbbe)
N            0.09577467724686       -0.94231190244803        1.42200479396521
C            0.26576572783243        0.52361387775386        1.27521561822239
C           -0.40461643289097        1.02925354382458        0.00220589221659
C            0.25498706252647        0.57001768687512       -1.29949109903365
C           -0.14488317420700       -0.87222327866829       -1.78313852340398
O            0.38432894530478       -1.26122339659618       -2.80304381996979
O           -0.84852664447459       -1.55420284211606       -0.99321710491857
H            0.50226157550227       -1.31564762219298        2.28259657981721
H           -0.89326531722839       -1.18878779706029        1.30718357011042
H           -0.18992942908438        1.01301760282154        2.13361435511915
H            1.32672619472766        0.75490377260257        1.25052750916893
H           -0.37960833534955        2.11607694067809        0.02750107803451
H           -1.44905713555033        0.72069470225006       -0.01670480175173
H            1.34313592882027        0.60159366714360       -1.24278928507547
H           -0.03777610028021        1.21870047381090       -2.12498962113484
H            0.51382212012959       -1.42164107957729        0.61417309079709
O           -3.24599900361514       -2.71418471088857        4.17023966612922
H           -2.96525349001317       -2.83203060918099        5.08888546422346
H           -3.61189507726105       -1.82694268037412        4.13052566051403
O           -0.74060659725086       -4.32378012711781        4.55350473350509
H           -1.48594033746207       -4.15147881196663        3.97060474212127
H           -0.35170306341534       -3.47105035430876        4.78290304149707
O            1.96912456644190       -3.73378144166341        3.52533084228700
H            2.86433701890598       -3.73567122680040        3.90109721094496
H            1.50881676812163       -4.50942947271079        3.90396277912235
O            1.25552216889863        3.39688042727037        4.45651840025521
H            1.85733553170263        2.66732311144950        4.40691761355655
H            0.51391054782932        3.12290396909772        4.97717515577153
O            0.54967304605289        1.04073593214089        5.85122596360705
H            0.85864231808802        0.33912645820956        5.19033554638244
H           -0.48292526450520        0.98722419644816        5.59599634825767
O           -1.46933995361411       -0.54016147267891        4.58738736318251
H           -0.94917013835304       -1.09684480889432        5.17024988350486
H           -1.36048442338183       -0.92379171358326        3.69875584506676
O            2.38199140915123       -1.16613249864777        4.80258842516758
H            2.57304119376811       -0.76158986694962        5.66164376689388
H            2.93138111688102       -0.71223364794733        4.15175131584059
37
 energy: -59.803357767206 gnorm: 0.067372437580 xtb: 6.7.1 (edcfbbe)
N            0.09605518435215       -0.94626314324762        1.42066621480072
C            0.26502195735207        0.51896565397024        1.27711185635992
C           -0.40655723489161        1.02959022141195        0.00660993283474
C            0.25325467124890        0.56824540568472       -1.29314976754055
C           -0.14702070995170       -0.87029404030460       -1.77961064538231
O            0.38028366078261       -1.25570789220183       -2.82430250078657
O           -0.84730306505388       -1.55935312431588       -0.99479351050118
H            0.50652524528263       -1.32048842922360        2.28088295656384
H           -0.89535659005875       -1.19134209546394        1.31432497392039
H           -0.18975028857641        1.00976127300444        2.13724082793997
H            1.32723689918351        0.75323175069454        1.24857073100031
H           -0.38533142422346        2.11854500878756        0.03132305549061
H           -1.45112588250867        0.71501454504033       -0.01412594245807
H            1.34297743881955        0.60333286678502       -1.23760616445338
H           -0.04035289995790        1.21796116222405       -2.11903786739600
H            0.51354344494199       -1.42404739345928        0.61041027668967
O           -3.24226624873159       -2.72127650655806        4.16452475950016
H           -2.97686121176455       -2.84105067839505        5.09182350789441
H           -3.61905198243675       -1.83534623616310        4.12562185622986
O           -0.74011325468078       -4.32998300248651        4.55718594556673
H           -1.48987366020248       -4.15375972621853        3.97696625302259
H           -0.34432666165729       -3.47470471072339        4.77803523537705
O            1.95836878604719       -3.73475315572579        3.53856341082981
H            2.85203007993285       -3.73402783064304        3.88615456738282
H            1.51222617017957       -4.51429769327007        3.88707321190641
O            1.26449660216671        3.40376894894930        4.46740041845987
H            1.86328246971625        2.68002229841576        4.40029331235654
H            0.52009090456798        3.13070638743744        4.97222350632139
O            0.48547257852425        0.93735113730272        5.85282561836273
H            0.89325115077392        0.37032957944833        5.19900794939634
H           -0.41801163953604        1.06103448852727        5.58267930020008
O           -1.47846403182255       -0.55367844619639        4.58103105249476
H           -0.95202381381228       -1.09654120365920        5.17341152207299
H           -1.35691962448934       -0.91932289066656        3.70046181037661
O            2.35518747293440       -1.14583513024231        4.80060213518355
H            2.58649922526825       -0.75049871399342        5.66835801142897
H            2.94450428227565       -0.69836368452064        4.16049018854883
37
 energy: -59.785509143311 gnorm: 0.166132373229 xtb: 6.7.1 (edcfbbe)
N            0.10656187681071       -0.93832255657043        1.41578942287903
C            0.27123794400590        0.52505502335585        1.28049832834887
C           -0.40383151945883        1.04764943892112        0.01429252967122
C            0.25919053501427        0.57977230508151       -1.27926829052888
C           -0.06914460835801       -0.88329222436791       -1.71279602849630
O            0.34014789032390       -1.20628862564500       -2.90785386623174
O           -0.86725581588024       -1.53030198500652       -1.03108194794159
H            0.52477113199884       -1.31252576359829        2.27871350717473
H           -0.89046625091552       -1.18215929292064        1.32835117700132
H           -0.18203058770781        1.01755065571443        2.14711961070286
H            1.33760303360863        0.76607538570825        1.24560989278392
H           -0.38697256637498        2.14291638114594        0.03914559136398
H           -1.45052794316341        0.72373270123352       -0.00704712681231
H            1.34920359208312        0.63510499476273       -1.22282294767234
H           -0.04123838539540        1.22399414764217       -2.11481903946987
H            0.52728265221768       -1.41334632223092        0.59971831158265
O           -3.25705520669586       -2.74075676818736        4.18443280151982
H           -2.98222714307053       -2.85049758766401        5.10363451314669
H           -3.63613388692373       -1.84975490127575        4.13085863071679
O           -0.73895504281939       -4.34454076558295        4.56752028624255
H           -1.50380172563928       -4.16060834616220        3.99405516773750
H           -0.35209899764710       -3.48857577939940        4.79052457211963
O            1.94524601316167       -3.73027477054068        3.55868043577172
H            2.84130545849336       -3.75294422686515        3.89773252877024
H            1.49406389594805       -4.51050516977993        3.88237553650265
O            1.19570823909527        3.41446138397038        4.28824448264656
H            1.91056384770610        2.67459680488055        4.46132527867616
H            0.54417828072779        3.09587775699898        5.05725835927086
O            0.49239747471052        0.92982089245422        5.84700494791212
H            0.89704250764967        0.33183146129697        5.19760303983339
H           -0.41694364407588        1.02950032455999        5.56709967152032
O           -1.46967597298393       -0.53583822736599        4.57039738501094
H           -0.95972275026174       -1.11933809284153        5.16248446688877
H           -1.37910805672662       -0.95262603672317        3.68274834986202
O            2.45755322011418       -1.15012770841738        4.81948983185448
H            2.53828301408721       -0.73990217398714        5.64357500891241
H            2.89444749633351       -0.69848733258800        4.14865358072239
37
 energy: -59.807567802156 gnorm: 0.025588775723 xtb: 6.7.1 (edcfbbe)
N            0.10414440477956       -0.94631843868389        1.41953500309704
C            0.26927227737662        0.51832430427020        1.28103871376672
C           -0.40640251372756        1.03369206731022        0.01358348316647
C            0.25847296151591        0.57200021440592       -1.28412722613106