34
 energy: -56.586147030081 gnorm: 0.171819198595 xtb: 6.7.1 (edcfbbe)
H            1.51131700000000       -0.30682800000000       -0.55501400000000
C            0.42356400000000       -0.53272100000000       -0.60971700000000
H            0.15351800000000        0.48284000000000       -2.37712700000000
H            0.30622500000000       -1.51992900000000       -1.10801900000000
N           -0.26687200000000        0.47309100000000       -1.42055200000000
H            0.31243500000000       -1.51306200000000        1.31258500000000
C           -0.16516600000000       -0.64664900000000        0.80679900000000
O            0.75046400000000        1.63132300000000        1.24106600000000
C            0.05694300000000        0.56251400000000        1.67849900000000
H           -0.17036900000000        1.42768900000000       -1.01141000000000
O           -0.37805100000000        0.56237000000000        2.81853100000000
H           -1.27994500000000        0.22829700000000       -1.50380900000000
H           -1.25406300000000       -0.84893600000000        0.72816900000000
O            3.13778200000000       -3.04165900000000        1.30330800000000
H            2.68936600000000       -3.80372300000000        1.74917100000000
H            2.39542600000000       -2.48141400000000        0.96324000000000
O            2.93221100000000        3.19782600000000       -0.09010400000000
H            3.15904500000000        2.24537500000000       -0.23841100000000
H            2.31768300000000        3.18851500000000        0.68635100000000
O            1.18483600000000       -4.46885400000000       -0.25445100000000
H            0.89733000000000       -3.71704100000000       -0.83127600000000
H            2.17419800000000       -4.44256300000000       -0.28738800000000
O            1.78542900000000       -2.05874300000000       -3.43648700000000
H            1.75340600000000       -1.33686400000000       -2.75937900000000
H            2.74658400000000       -2.14990600000000       -3.65667900000000
O            2.82856200000000       -1.90732900000000        3.32395300000000
H            2.99709000000000       -1.20174800000000        2.64988700000000
H            1.92560900000000       -2.24954500000000        3.10446100000000
O            3.60961800000000       -2.99046300000000       -1.41571800000000
H            2.90851400000000       -2.33451900000000       -1.17322900000000
H            3.16704800000000       -3.60063600000000       -2.05792900000000
O            1.83503200000000       -2.17762600000000       -6.01027300000000
H            1.31608500000000       -2.82574600000000       -5.47060200000000
H            1.76272000000000       -1.32526600000000       -5.51140700000000
34
 energy: -56.612628943261 gnorm: 0.087734372005 xtb: 6.7.1 (edcfbbe)
H            1.49288692337293       -0.29393613625116       -0.54600789994993
C            0.42608239285138       -0.54576392056572       -0.61872038688267
H            0.13832267046738        0.50637989880436       -2.37367307396636
H            0.30319048539150       -1.51914588461700       -1.11231133208829
N           -0.26434764640924        0.47412995547569       -1.42363036541768
H            0.29474157374910       -1.49770323696575        1.31330053580324
C           -0.15581354062289       -0.64366222973475        0.79231566677421
O            0.71799953966620        1.58251981411095        1.19229020519224
C            0.07049425391636        0.57238447746444        1.68191546933338
H           -0.16227145818858        1.40834245145849       -0.98915590197197
O           -0.38650267866669        0.57218038820149        2.83119172894503
H           -1.26908885264854        0.24547933393946       -1.49905105028513
H           -1.23531325984314       -0.83820866170166        0.74726828314892
O            3.13620951369057       -3.11453290624277        1.19289325040585
H            2.71299960279577       -3.80850193961978        1.73711528098874
H            2.39694170483535       -2.51396191429550        0.96413452829178
O            2.92514297024324        3.19182771641382       -0.08339114391239
H            3.17116933343390        2.26295889304588       -0.22661352800603
H            2.31243485627691        3.16751727832360        0.67172978133755
O            1.18599467441779       -4.45992111905486       -0.24923890230466
H            0.89473547708202       -3.74943651834052       -0.84640483546227
H            2.16091546364112       -4.43668536844076       -0.28683741519460
O            1.79091928703971       -2.05603933994476       -3.38087551185913
H            1.77999952798832       -1.31271793714705       -2.75701580411948
H            2.72337237930570       -2.14094137971673       -3.65084432697601
O            2.78926783999858       -1.83278287896324        3.42090166333284
H            3.00565166654851       -1.20522651390449        2.70409088365282
H            1.93268455112986       -2.21735381344343        3.15782314777486
O            3.60763790198912       -2.99025397576716       -1.44503487032213
H            2.92593686433134       -2.34982248314833       -1.17587606325250
H            3.15902759203152       -3.59542805709294       -2.06049679721269
O            1.82845780231197       -2.18079019307901       -6.04699683184308
H            1.34001789339853       -2.81794538560092       -5.49649442769557
H            1.77367669447415       -1.34488841359983       -5.55126095625864
34
 energy: -56.621337682522 gnorm: 0.032620219170 xtb: 6.7.1 (edcfbbe)
H            1.47504381778442       -0.28059613304627       -0.53441510423201
C            0.42566899101465       -0.55678884997069       -0.62127384295645
H            0.12292118531777        0.54160984208712       -2.36472393222894
H            0.30199895552871       -1.51596909716287       -1.11731698571319
N           -0.26395470460839        0.48064961627015       -1.41904271292995
H            0.27428754235480       -1.48892310009037        1.31813163976141
C           -0.16178356724169       -0.65043914809754        0.77869786770897
O            0.71113474660395        1.52984870742167        1.14245876007070
C            0.05560605570674        0.60555479665340        1.65547868237423
H           -0.14965348244573        1.38974833553714       -0.94515890119752
O           -0.37859696956597        0.57324682080016        2.82569776258515
H           -1.26367480775710        0.27038054196750       -1.48649568487131
H           -1.23434004125464       -0.83618965551161        0.75854590411238
O            3.13063884577636       -3.10986636020968        1.22206819904506
H            2.75655227099578       -3.83183607078562        1.71845849102127
H            2.39381524965499       -2.55920860769190        0.96597103943822
O            2.91221501410877        3.18418419471252       -0.07649288598769
H            3.19967384765294        2.27892778188948       -0.21158443967023
H            2.29345108696743        3.14054682394796        0.65642386160829
O            1.17029401368952       -4.46766793143619       -0.26560218621435
H            0.87932844316901       -3.79540256849728       -0.88621764494055
H            2.13545963125454       -4.43217200788175       -0.27301597525777
O            1.78953579823597       -2.01751601425466       -3.35697395252298
H            1.81602676645766       -1.27335045668128       -2.75678019288714
H            2.69821028645978       -2.14694743378775       -3.64332176322197
O            2.77270046068863       -1.80988201864449        3.47561930030502
H            3.01585698986930       -1.20418075467594        2.77042332034805
H            1.92229009996945       -2.17214203661344        3.22913489598213
O            3.62653629024723       -2.98750501095127       -1.50619127724254
H            2.96114113023888       -2.37423552123298       -1.17438141109994
H            3.15284551742828       -3.60179410625057       -2.07412113540743
O            1.83988379689458       -2.19095634028550       -6.08011952038064
H            1.36146370738228       -2.81543695704247       -5.52955624148110
H            1.78099703142063       -1.35762128048487       -5.60728493391661
34
 energy: -56.627061943354 gnorm: 0.033543782209 xtb: 6.7.1 (edcfbbe)
H            1.46430795449090       -0.28718604511887       -0.52648556223302
C            0.41688024132646       -0.56814918161317       -0.61877854800732
H            0.11425271610497        0.57372929714364       -2.34924437934225
H            0.29448052327601       -1.51873497107409       -1.13115495316750
N           -0.26674626993014        0.49008381539475       -1.40204981219634
H            0.26024013705807       -1.50587419325999        1.32221047695322
C           -0.17236586530216       -0.66915164319059        0.77903368190084
O            0.66745063474462        1.54737665628358        1.06277932495040
C            0.09470211990341        0.60548533716173        1.64171371384657
H           -0.13455870821487        1.38171601770920       -0.89552261124832
O           -0.38131996601919        0.60069144059001        2.79623945248848
H           -1.27009723836905        0.29572086416621       -1.46701750387689
H           -1.24926962623755       -0.83443890430206        0.76766662594949
O            3.12836681771378       -3.11897636182307        1.20500548288036
H            2.82188962071162       -3.85273394857763        1.75127416910246
H            2.34865908831952       -2.58959212444540        1.00577427382073
O            2.88917827103317        3.18146064461147       -0.07316956595226
H            3.25694172620496        2.29355296281929       -0.19275076787473
H            2.25531838154417        3.10258034310298        0.64741379006662
O            1.15330610916249       -4.45995327181577       -0.25338820649661
H            0.85545948721294       -3.85864391936089       -0.96006066957151
H            2.11821670167660       -4.43088651332558       -0.26638371165507
O            1.77607145410125       -1.97544886810056       -3.32389553366095
H            1.86958350307514       -1.19518202244383       -2.76024673307109
H            2.66733447683396       -2.16087990986545       -3.65520398749118
O            2.76315671380778       -1.79133875655865        3.53632407820055
H            3.04410552356744       -1.20621454702474        2.82435263130986
H            1.90069944160419       -2.12806460202284        3.29865252856897
O            3.65859271987279       -2.98784734563339       -1.57142654897291
H            3.00286963023321       -2.39952259873304       -1.15697756894953
H            3.13863366199560       -3.62151576674979       -2.08705259262464
O            1.85657158960390       -2.20798325383366       -6.12489172451136
H            1.38449590027733       -2.82570821651323       -5.55974047748083
H            1.79616652861610       -1.36030041359647       -5.67595977165314
34
 energy: -56.631197579522 gnorm: 0.054033562076 xtb: 6.7.1 (edcfbbe)
H            1.45061636664777       -0.30395297795481       -0.51948588064520
C            0.40180019502237       -0.58493996025899       -0.61866749358528
H            0.10572842664738        0.60937216182593       -2.32829476363548
H            0.28575365758171       -1.52714250645154       -1.15345709620856
N           -0.27171873592345        0.49992263344121       -1.37975606626181
H            0.24880556538832       -1.51011786839012        1.33387147529351
C           -0.19314361523900       -0.68457359077492        0.77771103075628
O            0.64500251016546        1.56088364658481        0.98463603399579
C            0.06740642904426        0.63604184061660        1.60099472841768
H           -0.11135829880584        1.36928580656785       -0.83074352939959
O           -0.34015293033334        0.61808214504822        2.77782727740479
H           -1.28152729212707        0.32684707809504       -1.44232056223845
H           -1.27096174289597       -0.84457191317964        0.76799469815870
O            3.12467333306137       -3.13278924871380        1.17159764379561
H            2.90359465663600       -3.86985655198119        1.79391393270025
H            2.28560467692930       -2.62554512892341        1.06413851409725
O            2.88930167639616        3.18003373586345       -0.05071503984907
H            3.31097651717357        2.31183523931542       -0.17912261672009
H            2.19343256202732        3.05277166151118        0.62198375752230
O            1.12493338830478       -4.47205723389176       -0.28371236646858
H            0.83274031521191       -3.90508328742397       -1.01901939352190
H            2.09284885061665       -4.42638620122379       -0.25778665951149
O            1.76031350961818       -1.90259207356021       -3.32111614458173
H            1.92370143219716       -1.11946192716454       -2.76557924830568
H            2.63684440645801       -2.16733754333087       -3.65931372236860
O            2.75174828761883       -1.76707085847695        3.61869324051970
H            3.08593301193589       -1.21734138905483        2.88809135728739
H            1.86909179538900       -2.06946760206223        3.38507305715419
O            3.69297799993332       -3.01484153394600       -1.61362463810764
H            3.06473679958031       -2.42931118180090       -1.15343216701630
H            3.14618169169795       -3.64323204088638       -2.10922046650281
O            1.88431026030443       -2.23214078010758       -6.16746997030952
H            1.40365405470979       -2.83729552070100       -5.59020573759705
H            1.80972423902679       -1.35989702861028       -5.75644418426713
34
 energy: -56.634927940287 gnorm: 0.035331308886 xtb: 6.7.1 (edcfbbe)
H            1.44057183668710       -0.33484200921492       -0.52312700920048
C            0.38782670439085       -0.60263780479289       -0.62421208228813
H            0.09840126140490        0.63450021571834       -2.30969486502022
H            0.26916227461384       -1.53707073626030       -1.17600647347302
N           -0.27427895272808        0.50715822063125       -1.36097952301962
H            0.23999143528683       -1.51190852804177        1.33895196460747
C           -0.20410870384384       -0.69253088890445        0.77421152420154
O            0.58463178289330        1.59175506759229        0.92377153838203
C            0.05830968787322        0.64900123469356        1.57934873211253
H           -0.08095505544569        1.35481499278366       -0.77512798371024
O           -0.31810225173410        0.63613421079432        2.76230005818213
H           -1.28997389782772        0.35700179047540       -1.41786894636745
H           -1.28296608886557       -0.84717632568528        0.76571721820720
O            3.12646880938193       -3.15436601232914        1.21170683282812
H            2.88651841924889       -3.88683473845178        1.78387296855194
H            2.31626591223515       -2.64958372651249        1.06901229004621
O            2.88684894264620        3.17468085600925       -0.03912794718589
H            3.33163359070627        2.32268673111604       -0.16280862415446
H            2.16425826492026        3.02307296613070        0.60482994883363
O            1.09623593310803       -4.48513857700449       -0.32579278413664
H            0.81699595325432       -3.93468934468745       -1.06370236743566
H            2.06568956148439       -4.42067008397435       -0.25866857444151
O            1.76438898368132       -1.83929755320222       -3.33825077371054
H            1.94661485737342       -1.07979182787356       -2.77355507651774
H            2.63195252523988       -2.13140203363165       -3.65089377688295
O            2.74660609622105       -1.74756732393838        3.70204343559400
H            3.10560687710510       -1.21823944322647        2.96944137551676
H            1.84467267496422       -2.01519609969173        3.47447424509357
O            3.72680661411731       -3.04526388916124       -1.64605659226816
H            3.12433140049363       -2.46505789813990       -1.15418708668740
H            3.16489937494517       -3.66860445643073       -2.12638799159575
O            1.91729968509124       -2.25446811815060       -6.19903804303842
H            1.41366441581394       -2.84631246943219       -5.62487849302624
H            1.81730507526261       -1.36408639720700       -5.82227811799514
34
 energy: -56.637769402443 gnorm: 0.056498913352 xtb: 6.7.1 (edcfbbe)
H            1.43419516157261       -0.37464045140925       -0.54048657200184
C            0.37508717299390       -0.61467057004930       -0.63786851679857
H            0.09484617650837        0.65182857864955       -2.29813577452575
H            0.24146779433312       -1.54331687526836       -1.19400284346783
N           -0.27338688727615        0.51339149611749       -1.35312909512186
H            0.22481686810514       -1.49738184175747        1.33915521799111
C           -0.21263383874453       -0.68426405936201        0.76184863422463
O            0.52189788342453        1.61441913287499        0.91812075402078
C            0.03377797516199        0.65767453060628        1.56794483794308
H           -0.04551711411176        1.33696414945896       -0.73177964149250
O           -0.30942573064013        0.63884579937047        2.75544898445639
H           -1.29141288383742        0.38566034237510       -1.40043531948222
H           -1.29006136291694       -0.84077211449665        0.75068529032793
O            3.11177208441919       -3.16707166847042        1.20691805826729
H            2.92526859396361       -3.89304567659786        1.80583787584248
H            2.28061760091456       -2.68801369947493        1.10808383375618
O            2.85369352979917        3.16015970831282       -0.05393497588946
H            3.33555133076627        2.32692446450575       -0.13055265834838
H            2.17266913058953        3.00816148899965        0.60153600697403
O            1.07154629708619       -4.45133710158744       -0.30669043093250
H            0.80310780826237       -3.99665311226465       -1.14981167311196
H            2.03599070961862       -4.42297502227020       -0.28457284205654
O            1.77444009407441       -1.77813957062629       -3.34465378219622
H            1.99119404650053       -1.02229948640799       -2.79425187749577
H            2.62496795916290       -2.09927253166123       -3.65230742910909
O            2.77412255322496       -1.75818703242804        3.75344648050405
H            3.09430876190044       -1.20008948397072        3.06661443023686
H            1.83734460353027       -1.96095244557170        3.57727758038755
O            3.76268662946409       -3.06235100462254       -1.69690818678093
H            3.17751501258266       -2.51373153884827       -1.14777326482087
H            3.18233136085774       -3.70083487799215       -2.13636241537265
O            1.95666887105550       -2.27130532635606       -6.22794933263552
H            1.42307770947543       -2.85435250475859       -5.67428804468835
H            1.83104809817847       -1.38030169501956       -5.86998430860206
34
 energy: -56.638740376738 gnorm: 0.085759567268 xtb: 6.7.1 (edcfbbe)
H            1.43117630249342       -0.41467359415060       -0.56544743699665
C            0.36315920735672       -0.61688422841727       -0.65203647109699
H            0.09766703109206        0.66335063834472       -2.29164317501260
H            0.20495398752947       -1.54301891895241       -1.20034340844746
N           -0.26958280015360        0.52036769346542       -1.35348133400392
H            0.20847419533318       -1.47780180275798        1.33679008957560
C           -0.21813199555687       -0.66885366010409        0.74914889756136
O            0.45259528233346        1.63380439331201        0.93302170593653
C            0.01756334756516        0.65316181288918        1.56718573816370
H           -0.01816614784543        1.32193925063563       -0.70587054751468
O           -0.29928933562032        0.63653564096987        2.75647865930811
H           -1.28509036101791        0.40791971250184       -1.39189553261462
H           -1.29438011410721       -0.83080059412733        0.73599642572057
O            3.08495136689924       -3.16442865344726        1.19112897486241
H            2.98883946871737       -3.89104793490990        1.84678911256903
H            2.20847377346268       -2.73110231828955        1.16036430074322
O            2.84071535773169        3.14981259257519       -0.04732651835993
H            3.35148757748107        2.33912647346734       -0.10130025217395
H            2.14746979479771        2.97275724592578        0.57697151336483
O            1.05126136495382       -4.49699911498745       -0.39672212074297
H            0.79879762641049       -3.97061436094893       -1.11031312561194
H            2.01124045657591       -4.41912454796920       -0.31099879780133
O            1.78002427895566       -1.72214792228168       -3.33404324923856
H            2.06289424357986       -0.94664429997228       -2.81879687318373
H            2.60712375520009       -2.09780513162753       -3.66436979267786
O            2.77813363129130       -1.76334497195525        3.81171266361996
H            3.11509636420610       -1.21889027646225        3.12660099369997
H            1.82689726185668       -1.90157011040168        3.64631050894018
O            3.78808508605164       -3.07233480575164       -1.74255211235545
H            3.21744538272178       -2.56288867260328       -1.14107664555617
H            3.20294415576007       -3.72783619202007       -2.14588912307186
O            1.99401356907693       -2.28194634626888       -6.25071113718258
H            1.43045916025870       -2.85898064217183       -5.72397372177290
H            1.84627172460784       -1.40096635350895       -5.90266920864756
34
 energy: -56.641922911951 gnorm: 0.055955944212 xtb: 6.7.1 (edcfbbe)
H            1.42783162644418       -0.43136769006483       -0.57736272842761
C            0.35401561040004       -0.61242117509671       -0.65216746584723
H            0.10594700858998        0.67289881260512       -2.28908466783286
H            0.17782604812882       -1.53941735979657       -1.19316743160810
N           -0.26501946290474        0.52869259123229       -1.35371524456313
H            0.20496363804204       -1.47134893651310        1.33998651015398
C           -0.22520857416792       -0.66662307417270        0.75049911665686
O            0.41072622926785        1.64373768753855        0.91201865142271
C            0.00164228061218        0.65155312057246        1.55999010900506
H           -0.01786930107980        1.32369527025910       -0.70296072865246
O           -0.25885037704821        0.62936645999201        2.77109420975850
H           -1.27748135698888        0.41907063603629       -1.39340486876715
H           -1.30169448566326       -0.83539489005344        0.73882439622206
O            3.07086431397911       -3.15554916862310        1.22051257164863
H            2.98623314831244       -3.88766711371214        1.85385097430126
H            2.19949847856315       -2.74161576751212        1.17462522914159
O            2.86203477953611        3.14950332954719       -0.01274264140491
H            3.40576613886375        2.35632658819621       -0.08958362035803
H            2.06798342631687        2.91274411532515        0.53452734170467
O            1.03896341821985       -4.46505799710000       -0.37204790785436
H            0.79468711824683       -4.00951401385731       -1.18211128538533
H            1.99807383639332       -4.41430531444629       -0.30661546390599
O            1.78755308154333       -1.68758421302737       -3.33502679160135
H            2.09213605522524       -0.91205913052909       -2.82874288777911
H            2.60711860385160       -2.09527234879456       -3.66659368855189
O            2.73282291405197       -1.73836907306710        3.88467392135001
H            3.17987775397638       -1.27505567332703        3.11944940419826
H            1.80984096743912       -1.86636108237844        3.65368511603924
O            3.78869483357444       -3.08677819408660       -1.74574434252033
H            3.23327013024067       -2.58263052976369       -1.14632317275949
H            3.22033750498860       -3.73785148630312       -2.15560816171963
O            2.02549205429707       -2.29160170240339       -6.25280517146040
H            1.43562004018307       -2.86065740235959       -5.74438055219565
H            1.84987651856401       -1.40501527431660       -5.92650972840647
34
 energy: -56.640895276322 gnorm: 0.086755101424 xtb: 6.7.1 (edcfbbe)
H            1.42059583986929       -0.44511286742081       -0.57952312162333
C            0.34329048461647       -0.61536277588708       -0.64719830316796
H            0.11993317413405        0.68936105817003       -2.28596487870072
H            0.15475706094870       -1.54178831543603       -1.19175948184760
N           -0.25885104652700        0.53827382919381       -1.34966186112565
H            0.20544133710095       -1.48036628501534        1.34481448060094
C           -0.23469867651304       -0.67662630155331        0.75939551099963
O            0.37350830066477        1.66179439527323        0.85925824337744
C           -0.00888790005454        0.65479309998736        1.54677489466699
H           -0.02131187387207        1.33105475971990       -0.69442205405757
O           -0.20533024054302        0.62216979713442        2.78323471727968
H           -1.27342561634639        0.43424318354022       -1.39962045147606
H           -1.31333405292781       -0.84511117333972        0.74788157882758
O            3.06267528995786       -3.17325202435863        1.19905191930169
H            2.98133106165135       -3.88723764974762        1.83691122471848
H            2.19302472519237       -2.74795138239521        1.18675217785821
O            2.79311736791136        3.13499760338447       -0.04911097611645
H            3.43070259752286        2.35606986794699       -0.04876886884564
H            2.08348281509079        2.90757722828866        0.56099182553491
O            1.02211194067256       -4.45079518349915       -0.37922977501567
H            0.79273962234074       -4.02993584943530       -1.24267032260440
H            1.98688293995101       -4.40410024567995       -0.28243093013060
O            1.81124343891681       -1.66242387580923       -3.34929342838379
H            2.08380915452088       -0.91394194768190       -2.83115259417556
H            2.63060343346826       -2.05082467080799       -3.65544315970181
O            2.76545033217876       -1.77552452823814        3.88836172990841
H            3.14923574333608       -1.23159006733557        3.19292858630281
H            1.81244047980895       -1.84345630136711        3.70998478215746
O            3.82258230851135       -3.07241815173371       -1.81347422854059
H            3.26482909353406       -2.62208434001048       -1.10536929751003
H            3.20938340140539       -3.76830277044674       -2.14965511762864
O            2.05223993554173       -2.30728156979768       -6.25233916068956
H            1.43303664523629       -2.86740340961664       -5.76065308939642
H            1.84096488270008       -1.39937313602685       -5.96156157079461
34
 energy: -56.640110266140 gnorm: 0.104356108070 xtb: 6.7.1 (edcfbbe)
H            1.41643452911996       -0.45709030316456       -0.58565097578154
C            0.33703512553146       -0.61666044300618       -0.64827764651799
H            0.13300192612774        0.69682796704717       -2.28964196618743
H            0.13537872899594       -1.54404472690602       -1.19038514792288
N           -0.25405503110274        0.54218246270269       -1.35400547221751
H            0.19832754212981       -1.48376202780909        1.34375952140487
C           -0.23768683834342       -0.67349028104161        0.76242083135141
O            0.37234888143065        1.66906338457315        0.87389075320198
C           -0.00130711620015        0.65000645369089        1.54995125271442
H           -0.02670618248688        1.33460516411764       -0.69296460563143
O           -0.20137275151857        0.61957551399499        2.77891868362645
H           -1.27032836178872        0.44156191315577       -1.41232747735760
H           -1.31868321747406       -0.83738021193330        0.74535689237035
O            3.04908340577964       -3.18315837221723        1.17618405612210
H            2.98871030634132       -3.88013661980154        1.83686140961453
H            2.17290969262198       -2.75743607237257        1.20187036631561
O            2.83713567784129        3.12313295541566       -0.02005133048367
H            3.33296410763616        2.33672931753026       -0.07600132780019
H            2.10288597587900        2.92070983610518        0.55845517876592
O            1.01312203719221       -4.44592564425297       -0.39107866023798
H            0.79134656594739       -4.03404178864410       -1.26170055064894
H            1.97937600602842       -4.39567743071793       -0.27948826340022
O            1.82188906651452       -1.64058721898159       -3.35004134303616
H            2.10575100310343       -0.89190712216916       -2.84181018784768
H            2.63345442234278       -2.04568894654323       -3.65359390929261
O            2.80425590789486       -1.81685570788228        3.87043590480445
H            3.10291471283300       -1.19142566015315        3.25556678793502
H            1.82125825124111       -1.82619274892181        3.75401307552449
O            3.79350390750842       -3.13093010265367       -1.73674857389480
H            3.28281670711806       -2.60706587099834       -1.16260865561789
H            3.25291679785684       -3.76626860366064       -2.17326002932952
O            2.05098197580952       -2.30781992897588       -6.26291655436377
H            1.44584963719739       -2.87718951774860       -5.77220836538148
H            1.85806060089172       -1.40558961777927       -5.96588467079919
34