37
 energy: -59.728100506228 gnorm: 0.181409139237 xtb: 6.7.1 (edcfbbe)
N            0.00260500000000        0.26833900000000        2.34949800000000
C            0.00561000000000       -0.53426800000000        1.12782400000000
C           -0.01360500000000        0.36044200000000       -0.11757000000000
C           -0.00658000000000       -0.48411400000000       -1.39958300000000
C            0.00530900000000        0.34606300000000       -2.65559300000000
O            0.01598000000000        1.56658800000000       -2.61114500000000
O            0.01013600000000       -0.27058000000000       -3.85192000000000
H            0.84383000000000        0.88923800000000        2.37341700000000
H           -0.86762500000000        0.84621600000000        2.39703300000000
H           -0.88589600000000       -1.19861800000000        1.12403900000000
H            0.91775600000000       -1.17084600000000        1.11100500000000
H            0.88289000000000        1.01613200000000       -0.10393900000000
H           -0.92488100000000        0.99783100000000       -0.09978000000000
H           -0.91002800000000       -1.12912700000000       -1.41351300000000
H            0.89428700000000       -1.13411000000000       -1.40682800000000
H            0.03021100000000       -0.36918600000000        3.17705500000000
O            2.70890900000000        3.44769700000000        0.72317400000000
H            2.60683200000000        3.28511500000000        1.69464600000000
H            2.04499100000000        2.84707400000000        0.29999800000000
O            0.32662800000000        4.36340700000000       -1.01915500000000
H            0.86672500000000        3.62037100000000       -1.38902400000000
H           -0.48895000000000        3.92591000000000       -0.66695800000000
O            2.35377200000000        2.58723600000000        4.21120300000000
H            1.95989500000000        1.67869100000000        4.21552700000000
H            1.86662400000000        3.07223200000000        4.92399800000000
O           -3.42274400000000        3.28611100000000       -0.19939400000000
H           -4.06366500000000        2.57684600000000        0.05901100000000
H           -2.92857800000000        2.90570400000000       -0.96861700000000
O           -1.97040300000000        3.01098200000000        1.44113700000000
H           -1.00709500000000        2.90713000000000        1.64574300000000
H           -2.28822500000000        2.08908100000000        1.26879700000000
O           -1.45697000000000        3.41376600000000       -3.45628600000000
H           -0.58069200000000        3.63478300000000       -3.05144200000000
H           -1.83390500000000        2.71422700000000       -2.86537300000000
O           -0.06409300000000        3.59089300000000        3.91892000000000
H           -0.85739600000000        3.00266400000000        3.84633600000000
H            0.52662600000000        3.30332100000000        3.17799700000000
37
 energy: -59.758930727852 gnorm: 0.094206127832 xtb: 6.7.1 (edcfbbe)
N            0.00394413542184        0.26904423655793        2.35780643469231
C            0.00533284327493       -0.53998362136739        1.12707889745737
C           -0.01245101914356        0.35326856337551       -0.11337178202157
C           -0.00803396052562       -0.49743691155467       -1.38675898267938
C            0.02059301169123        0.33614508219849       -2.65492297034327
O            0.05814284207717        1.56941972217832       -2.57578247687483
O            0.00934446530178       -0.28365680877387       -3.79040333428627
H            0.83368424920436        0.88477215543925        2.37901908722334
H           -0.85225691395180        0.84736769377674        2.40442113107124
H           -0.87236472057126       -1.19696140097111        1.11935136975536
H            0.90256120746257       -1.17005452444245        1.10487189142518
H            0.87005408151349        1.00614752359634       -0.12302086214478
H           -0.90588975718817        0.99159842542936       -0.11838085912831
H           -0.89882591512519       -1.13719544469351       -1.42405404389222
H            0.87599148832610       -1.14679729392792       -1.41307005503036
H            0.02912918233595       -0.35446713252662        3.18051133805119
O            2.71562232638709        3.43019265467178        0.73408499390943
H            2.62196069647774        3.29259171037584        1.69403638104020
H            2.04992390382473        2.85710745388137        0.31657120263874
O            0.33751842459254        4.34163693517599       -1.00532009605799
H            0.83904663872485        3.61274388519857       -1.41049482527320
H           -0.48642528183699        3.93796853608844       -0.67688909073879
O            2.35052582022313        2.57073985846702        4.18887368420502
H            1.98802223611239        1.66918886586498        4.26022028191275
H            1.89921708323048        3.07236110505301        4.89244168877758
O           -3.50347114753937        3.29575406932992       -0.28111325214588
H           -4.09218938096630        2.58041022453778        0.01672463826887
H           -2.96143022362044        2.90804937576841       -0.99005440906619
O           -1.92356217817954        2.98318177045978        1.52503572371617
H           -0.96137551989129        2.90245724056197        1.65551472181182
H           -2.24558191073383        2.09163838303450        1.29403419463411
O           -1.51478428029101        3.49563306315290       -3.42636948847060
H           -0.60617308418385        3.64191485598260       -3.08951295205453
H           -1.81091870635570        2.71020336638767       -2.91872877431787
O           -0.08333718188584        3.57739619708059        3.93114211757336
H           -0.87765167632248        3.02489149260566        3.83561562055230
H            0.50439322212983        3.33596969202682        3.19113085580969
37
 energy: -59.773600121527 gnorm: 0.043754932563 xtb: 6.7.1 (edcfbbe)
N            0.00792342756935        0.27172772413586        2.36993376763439
C            0.00564972549242       -0.54392818232369        1.12998783476663
C           -0.01214902935127        0.34419285836293       -0.10793454079754
C           -0.01142352571581       -0.50957059472925       -1.37376188402619
C            0.02727850280255        0.33581766623385       -2.66009463918271
O            0.08719783959109        1.58128688213465       -2.52529060626525
O            0.00510275326156       -0.27393478916598       -3.73607459904135
H            0.83069405954378        0.88199298976240        2.38624598891385
H           -0.83638148741725        0.85342442534789        2.41434735296341
H           -0.86613701734837       -1.19184370879009        1.12241814353192
H            0.89498384512441       -1.16687314764205        1.10469987531180
H            0.86411536166820        0.99035960821465       -0.14334003623624
H           -0.89467099490451        0.98060112079631       -0.13524476839225
H           -0.89503575046207       -1.14354384008651       -1.43359553607114
H            0.86270833820947       -1.15742199809316       -1.41663384155643
H            0.02974088345724       -0.34108972893619        3.18932071935600
O            2.73545639872842        3.40861173286787        0.75387810860705
H            2.65034611660589        3.29571785245238        1.70563601523411
H            2.05744895040516        2.87408534232668        0.33387382187237
O            0.36359677694250        4.30819009928259       -0.97738036521626
H            0.80101795735006        3.58750823566378       -1.45171610746181
H           -0.49261799350430        3.95794913206135       -0.69677805945083
O            2.34845712063306        2.54797848006672        4.14996952214089
H            2.03590174682559        1.64379576806495        4.32196977201840
H            1.94489963004161        3.08133347522775        4.84578417728005
O           -3.52070556392451        3.26896371651056       -0.30212041255310
H           -4.13501794668843        2.58838462506761       -0.03255206529383
H           -3.00421724570224        2.92263014869731       -1.02529178782214
O           -1.90488744985132        2.94583596892439        1.62423060713431
H           -0.92581038261505        2.90954456736363        1.61079891932438
H           -2.21969305592232        2.08846648641300        1.29697091559802
O           -1.54749102985983        3.52904286692698       -3.42488882488789
H           -0.64076523054762        3.66674246116993       -3.12515811447945
H           -1.79357224839220        2.71085795075277       -2.96898679174171
O           -0.10356852688848        3.55548356908225        3.96622135636368
H           -0.92547937421249        3.07273266389382        3.81117168023573
H            0.47538941905563        3.38818857196186        3.20962240218905
37
 energy: -59.779927988751 gnorm: 0.108103819147 xtb: 6.7.1 (edcfbbe)
N            0.01121705445436        0.27555631931392        2.38301206647912
C            0.00563500439812       -0.54516835862065        1.14033171972478
C           -0.00880871590660        0.33645400341798       -0.09892925897031
C           -0.00645299994972       -0.51736388954989       -1.36016143838023
C            0.05013792951155        0.34198362054093       -2.65826603112515
O            0.10798469965197        1.59028083049324       -2.48569099917270
O           -0.00830015950165       -0.26568168418740       -3.72359698556864
H            0.83611307296387        0.88182000194400        2.39686317615283
H           -0.82724462374129        0.86543664472318        2.42441891940073
H           -0.86917344403259       -1.18841545458759        1.13416569008020
H            0.89459698794931       -1.16791144763806        1.11584208548181
H            0.86946052175308        0.97734700081729       -0.14801160540852
H           -0.88955944986789        0.97299404439867       -0.14152034892603
H           -0.89413066121749       -1.14417468915482       -1.43874902795759
H            0.86339183890883       -1.17022740448913       -1.40887788925863
H            0.02756891079960       -0.33330803087899        3.20411049243024
O            2.78450212292620        3.37137439219019        0.77641120464111
H            2.67642378976009        3.29442379557581        1.72954704303751
H            2.04836895436456        2.91060747557179        0.35000210382383
O            0.40268411672343        4.26536403232334       -0.92648509166966
H            0.74033997210193        3.53822440322220       -1.50568922244415
H           -0.52084499052910        3.99183564376677       -0.72850569012610
O            2.35711636263923        2.50657250639216        4.10588489973605
H            2.07924348545869        1.60553571172043        4.38586095953887
H            1.99889954648408        3.09494515628300        4.78746876108719
O           -3.52909036589562        3.24664367490472       -0.31248719784473
H           -4.18897812140274        2.59101422368995       -0.08544201492184
H           -3.04417361147713        2.93954635012918       -1.07576704472475
O           -1.87546341147441        2.90744237639627        1.71800280186262
H           -0.88827052076055        2.90315152032974        1.56771641408573
H           -2.19062745814987        2.08640401020562        1.28172057721824
O           -1.62315153896407        3.61707746256538       -3.38289757871616
H           -0.65579199051973        3.69035136009230       -3.19531332692104
H           -1.75200784496701        2.66392391300659       -3.04175705058401
O           -0.11365014019926        3.51270332124637        4.04193434130477
H           -1.00286311838006        3.15243925790918        3.76016119290583
H            0.43318379608775        3.46403890593630        3.22493135372867
37
 energy: -59.790049521837 gnorm: 0.077796786586 xtb: 6.7.1 (edcfbbe)
N            0.02104060051768        0.28227965710876        2.39336200527984
C            0.00864153358301       -0.54308411831787        1.14923734484973
C           -0.00616247336603        0.33127834881200       -0.09171314182119
C           -0.00574950549481       -0.52370135422128       -1.34688252997591
C            0.05988879594341        0.35156374825691       -2.65675952392835
O            0.12796321422716        1.59900574954458       -2.44890565362752
O           -0.03143262196796       -0.25885576230517       -3.72371365343114
H            0.85030698789582        0.88510830593234        2.40366931801108
H           -0.81210312126999        0.88311521126389        2.43478194724118
H           -0.87059640369321       -1.18362917526007        1.14751538559379
H            0.89886891446479       -1.16735194204287        1.12310599294816
H            0.87486807185516        0.96848265993040       -0.15554862092846
H           -0.88730415033457        0.96798649833795       -0.14547489965704
H           -0.89951989727637       -1.14320366684795       -1.44166844309420
H            0.86109713139131       -1.18278361007483       -1.40517438635589
H            0.03347255378669       -0.32362414538653        3.21762717526385
O            2.84234868717010        3.32767111015068        0.80088307779037
H            2.70269951696788        3.29167153788001        1.75733459454822
H            2.04451927151594        2.94858579825118        0.36531445544957
O            0.40824466481598        4.21558799221537       -0.93916593906963
H            0.70893778947133        3.48856185632728       -1.51840066187456
H           -0.52535285650496        4.00188356346213       -0.73469525508329
O            2.37962856652883        2.46693955441845        4.07992153004216
H            2.11802403082041        1.58845118357567        4.42358880917967
H            2.05132510046310        3.10501455542509        4.73701708499031
O           -3.54420062256050        3.22249510879462       -0.33217118171897
H           -4.25286872336526        2.58927624657784       -0.14756295465232
H           -3.09190499920576        2.95480358350998       -1.14197380214515
O           -1.81978078346141        2.86605419700165        1.79126787014892
H           -0.85756773034239        2.88463544675240        1.56742947098891
H           -2.16962367255401        2.09314633314720        1.29830763407257
O           -1.61665942878206        3.57116505159935       -3.43568616626115
H           -0.70010366332232        3.74750206476856       -3.22656578362097
H           -1.78210915451178        2.72216291581453       -3.05354781687044
O           -0.17001583084639        3.53121450201316        4.04817457453880
H           -1.04698173340480        3.19315064653867        3.75917658529090
H            0.39644694084582        3.51068134704530        3.25813355788812
37
 energy: -59.785028653252 gnorm: 0.148753285190 xtb: 6.7.1 (edcfbbe)
N            0.02591210548574        0.28716239784726        2.40156461635059
C            0.01095652282316       -0.54026529447194        1.15950500604109
C            0.00014808760273        0.32770638601091       -0.08523038876041
C            0.00012405271182       -0.52349334422753       -1.34019033553182
C            0.03823979725182        0.36924702797476       -2.65328517294209
O            0.13647138713345        1.60795488796686       -2.43785713694392
O           -0.01295720993474       -0.24378317679060       -3.73095557461586
H            0.86291118693884        0.88508195029202        2.41551939937371
H           -0.80262903192590        0.90226341165604        2.44216435564732
H           -0.87317377036697       -1.18029753298155        1.16187047274211
H            0.90165568194312       -1.17033182405717        1.13784796213755
H            0.88314633813186        0.96526756032759       -0.14617270864109
H           -0.88427296501467        0.96355165958550       -0.13920946195549
H           -0.89506507039344       -1.14310285358929       -1.43999645580454
H            0.86930886468415       -1.18413788980549       -1.40319519937772
H            0.03018496756600       -0.31808292472477        3.22961051633689
O            2.84595355631877        3.33149015584172        0.82415651963405
H            2.72181842690561        3.27536294589817        1.77749925157110
H            2.07877603869967        2.96204980898622        0.37376380697635
O            0.36452354736590        4.16636121101548       -0.99613225725314
H            0.68285817284971        3.45086001114498       -1.48942259135535
H           -0.52350988652107        3.99571757942437       -0.71594394375562
O            2.39441721041735        2.43265981134698        4.08132289179268
H            2.14535620476635        1.59237040408316        4.40602819563273
H            2.06333007289525        3.07669854537897        4.70977773789749
O           -3.53942791207523        3.19645374301488       -0.34694633936748
H           -4.30870722717690        2.60169400524317       -0.20885267684414
H           -3.15783334614775        2.97118348772089       -1.22344143740310
O           -1.72259658575757        2.82423734782301        1.77480405831256
H           -0.83407798106859        2.85296874897219        1.60060451570654
H           -2.16561054892210        2.11103311181561        1.35788002455086
O           -1.67415515072909        3.61464422376959       -3.38977110218272
H           -0.72325575415439        3.80235208413976       -3.28722094888816
H           -1.72459975842388        2.66015014771169       -3.11120342859878
O           -0.23622612179760        3.58169756629630        4.01308351101352
H           -1.05111134626081        3.21756933478099        3.78980228099182
H            0.37140244417903        3.54094628457865        3.29846003751250
37
 energy: -59.801981882960 gnorm: 0.071122937104 xtb: 6.7.1 (edcfbbe)
N            0.03046061511375        0.29286938936218        2.40335744240253
C            0.01264359344917       -0.53626001551353        1.16557285632340
C            0.00236922280630        0.32806905721341       -0.08406546576308
C            0.00005757445620       -0.52248239512745       -1.34211029883671
C            0.02624431554754        0.37289651478935       -2.64582860904805
O            0.12976227057096        1.60526967917418       -2.44783825379366
O           -0.01045908999498       -0.23425134260830       -3.72845862722810
H            0.87081429815082        0.88641806379134        2.41950780292553
H           -0.79502869034161        0.91366098629183        2.44421940944572
H           -0.87131582249734       -1.17572516653509        1.17186862027367
H            0.90000833710763       -1.17035679489633        1.14649417650518
H            0.88443528830328        0.96728317322801       -0.13684893033383
H           -0.88119069718533        0.96520207000951       -0.13087122253299
H           -0.89406108421276       -1.14204754265565       -1.43490747336670
H            0.86879810775064       -1.18254113740334       -1.40207454944550
H            0.03134781819908       -0.31104829356348        3.23269541701644
O            2.86012743972825        3.32310289279519        0.83362345315533
H            2.72604084818419        3.26898508785555        1.78479869494679
H            2.09044018703016        2.97660550304587        0.38310075338085
O            0.39350765200559        4.13704030788152       -0.96010493188279
H            0.64366194685275        3.40641314108289       -1.52458541211673
H           -0.53012291614032        4.01242018934964       -0.72197698538858
O            2.36596880961988        2.43807746591144        4.03692288989399
H            2.17738807291981        1.57730564245698        4.43936098853025
H            2.07712199119769        3.07600456611551        4.69072373522185
O           -3.52963046357727        3.17471648922181       -0.33650571700188
H           -4.32006048813651        2.59939369777219       -0.23394042788799
H           -3.18060046222475        2.97543583517033       -1.23555201134354
O           -1.73233331624185        2.79576429597041        1.87216951661200
H           -0.79984210113875        2.85846096724076        1.50549683151346
H           -2.16965238892184        2.11151073836947        1.33538054707319
O           -1.67495210418254        3.59951592938007       -3.40272972877138
H           -0.73738600921835        3.82752560988717       -3.30161088091126
H           -1.71997071101099        2.66253262996709       -3.11475805298337
O           -0.21864968004956        3.54059876637400        4.07272485771653
H           -1.08647548098632        3.26158613910470        3.75349441121149
H            0.35881811706694        3.58328885949013        3.30349317448787
37
 energy: -59.777427414128 gnorm: 0.198904064778 xtb: 6.7.1 (edcfbbe)
N            0.03881336663183        0.29960663786019        2.40166654984172
C            0.01657801514903       -0.53244719015092        1.17041523585702
C            0.00659143811592        0.32886621678014       -0.08477141734423
C            0.00508521073754       -0.51899279567358       -1.34900924855144
C            0.05225285069492        0.37846990448263       -2.63756577907872
O            0.10496973195635        1.60515797908988       -2.46075346810817
O           -0.02844486638417       -0.21618171099963       -3.72695216692435
H            0.88384322519366        0.88552036064480        2.42316223691124
H           -0.78018618981467        0.93126383382903        2.44252648335493
H           -0.86710319304740       -1.17012030942099        1.18070229559593
H            0.89923007518415       -1.17151002171674        1.15370758546994
H            0.88841648390830        0.96920304157973       -0.12545122717910
H           -0.87523748914364        0.96844959480329       -0.12259590696608
H           -0.88834787810396       -1.13882399529867       -1.43698542695394
H            0.87284776921271       -1.17698322375145       -1.40209359854398
H            0.03285288194947       -0.30198368700159        3.23205463362337
O            2.92898076928148        3.26501990451215        0.84886753206262
H            2.72033099853101        3.25030263065733        1.79885793892817
H            2.07184865223452        3.04173686031658        0.38402179839530
O            0.47882050105959        4.08461293906689       -0.82279842821868
H            0.54959503017675        3.33564832685849       -1.61316241452688
H           -0.56456237394310        4.06084403181860       -0.76019790460702
O            2.32933107579657        2.42329463995111        3.98776413943723
H            2.19937535996263        1.55429151610208        4.47818066338039
H            2.09743172525388        3.07971711910051        4.66231175702607
O           -3.55656943353269        3.17365136146852       -0.38331478842889
H           -4.30384932899404        2.60402799865088       -0.24089433310977
H           -3.19364445694837        2.96674275486894       -1.23837444782974
O           -1.68592467835723        2.77270671388399        1.81453349879496
H           -0.81257966352368        2.82434292770337        1.56178955283084
H           -2.19202039163831        2.12718216396638        1.32298905468311
O           -1.67499085630864        3.57043132151841       -3.41481454771974
H           -0.76164757788940        3.85274711594942       -3.31365968662126
H           -1.72195810802462        2.68523489429071       -3.10744929734125
O           -0.17842193482769        3.46170808714167        4.17908796935224
H           -1.13369542407250        3.33399321219965        3.69718799435882
H            0.34027368352334        3.65550984491784        3.31125516814902
37
 energy: -59.809874791013 gnorm: 0.072658984550 xtb: 6.7.1 (edcfbbe)
N            0.03806981244473        0.30287084879562        2.40433607037953
C            0.01559879663300       -0.53173521604046        1.17492811574955
C            0.00762689060495        0.32876166241111       -0.08069669290998
C            0.00751252011466       -0.51779718573984       -1.34557021199318
C            0.06104151211505        0.38007280932768       -2.63568607590591
O            0.10082469886020        1.60876183313818       -2.45702659023204
O           -0.02897350901733       -0.21536042186870       -3.72590253938786
H            0.88487819167005        0.88643382374412        2.42820084114321
H           -0.77798671594697        0.93988585861195        2.44310357811351
H           -0.86945625121072       -1.16798701801900        1.18575822748360
H            0.89784661399483       -1.17197031166847        1.16008803662275
H            0.89015977275235        0.96873756076275       -0.12017643776601
H           -0.87408942617910        0.96881928744683       -0.11996066554696
H           -0.88612561958334       -1.13839706643257       -1.43561651811907
H            0.87555296225489       -1.17574475684025       -1.39923073455072
H            0.02784325941233       -0.29704671004172        3.23570542266319
O            2.92736258078222        3.26568067199823        0.85515413354960
H            2.72363090415903        3.24486163335593        1.80371085343584
H            2.07711409154415        3.05300564579994        0.38543248362496
O            0.41949571988605        4.07335880031944       -0.90606421498570
H            0.56790204000986        3.33634761042481       -1.56031509371090
H           -0.54438648122699        4.03693177962135       -0.73169402998835
O            2.33779567211551        2.40530454906440        3.99853653606099
H            2.19825601234655        1.56184844833806        4.45987292644782
H            2.09536011642837        3.07781853042391        4.64882489722694
O           -3.54884775423612        3.15988998982783       -0.38040994160702
H           -4.31202364664234        2.60272611357969       -0.25069187719008
H           -3.19725506560186        2.96942805579838       -1.24713233386388
O           -1.69155265147394        2.74859796714980        1.89085283444081
H           -0.79586985901949        2.83413636835812        1.49105031345108
H           -2.19235435140897        2.13513581270899        1.29571632346049
O           -1.69437419957992        3.59287615797223       -3.39264136075761
H           -0.76408824283076        3.86095421255802       -3.33206065478679
H           -1.69335044056017        2.66105293493619       -3.12832438503095
O           -0.22524972080504        3.52373931780409        4.11449601478124
H           -1.10512701844259        3.31585831237842        3.74036897188923
H            0.34552378563637        3.63538308999434        3.34330177780853
37
 energy: -59.795649752742 gnorm: 0.198777590764 xtb: 6.7.1 (edcfbbe)
N            0.04482974546126        0.31312171603853        2.40621789604902
C            0.01895607091564       -0.52666925564454        1.18085094560890
C            0.01329952079098        0.33125688044176       -0.07629271615503
C            0.00784767230446       -0.51318835461958       -1.34180689979061
C            0.00758411062284        0.38674026119528       -2.63212347227172
O            0.10573792839058        1.61784615915934       -2.45129503672500
O            0.00073394578815       -0.21082513839227       -3.72629100065154
H            0.89790860944647        0.88938897299421        2.43350130303151
H           -0.76404532900214        0.96423845323102        2.44056141571689
H           -0.86970666374473       -1.15994046983701        1.19463013568644
H            0.89944578855589       -1.17114775677691        1.16696243515419
H            0.89602007275007        0.97219555157029       -0.11688245820893
H           -0.87009089510320        0.97004747927913       -0.11521343584824
H           -0.88311435811601       -1.13744988030774       -1.42613265610208
H            0.87930327818345       -1.16912797824869       -1.40814570372912
H            0.02445615475849       -0.28327933875514        3.24060079743733
O            2.83131809519782        3.35666129522851        0.86773103200463
H            2.75693820673530        3.21801345985876        1.80614275238442
H            2.17204334481843        2.99132447581885        0.39338799375734
O            0.35712596992660        4.02826550395735       -0.98049871183766
H            0.58475937771814        3.31615777810991       -1.47996753656769
H           -0.53729138654865        4.00058790748124       -0.72302886202317
O            2.30506986314336        2.39120921988658        3.95972071574100
H            2.23982664339455        1.54819205837776        4.48651117075935
H            2.09894605051219        3.06958757680619        4.61332224450501
O           -3.51558217753516        3.11382465468892       -0.35020880086023
H           -4.37705517329029        2.60498629177779       -0.31201349599432
H           -3.25002268038016        3.00227514233987       -1.31640414387445
O           -1.64751786107704        2.69587052224670        1.89633958243002
H           -0.77581473546090        2.85103244834512        1.43925800212845
H           -2.16808535682968        2.12217074412112        1.36610392199481
O           -1.70504466183412        3.59134195420351       -3.38090622653629
H           -0.78845782733994        3.89110390330393       -3.34282217609034
H           -1.67264640447052        2.65659317494259       -3.15104621686199
O           -0.22424878869782        3.48096659590961        4.16894977464312
H           -1.12313660971123        3.35442118936127        3.71893302677084
H            0.32799545972620        3.70544780190620        3.36159240432458
37
 energy: -59.812277577997 gnorm: 0.113378295391 xtb: 6.7.1 (edcfbbe)
N            0.04571876499127        0.31905723354103        2.40833631519922
C            0.01866118671126       -0.52399876437992        1.18632539690544
C            0.01447539181752        0.33222896961100       -0.07329860422040
C            0.00881412269692       -0.51148214117390       -1.34101872339359