34
 energy: -56.563843857408 gnorm: 0.186048619411 xtb: 6.7.1 (edcfbbe)
H            1.51131700000000       -0.30682800000000       -0.55501400000000
C            0.42356400000000       -0.53272100000000       -0.60971700000000
H            0.15351800000000        0.48284000000000       -2.37712700000000
H            0.30622500000000       -1.51992900000000       -1.10801900000000
N           -0.26687200000000        0.47309100000000       -1.42055200000000
H            0.31243500000000       -1.51306200000000        1.31258500000000
C           -0.16516600000000       -0.64664900000000        0.80679900000000
O            0.75046400000000        1.63132300000000        1.24106600000000
C            0.05694300000000        0.56251400000000        1.67849900000000
H           -0.17036900000000        1.42768900000000       -1.01141000000000
O           -0.37805100000000        0.56237000000000        2.81853100000000
H           -1.27994500000000        0.22829700000000       -1.50380900000000
H           -1.25406300000000       -0.84893600000000        0.72816900000000
O           -0.38327800000000       -2.21543900000000        3.46931600000000
H           -1.09893100000000       -1.70438500000000        3.01404100000000
H           -0.20276900000000       -2.98022800000000        2.86671600000000
O           -1.90956800000000       -3.79835200000000        1.74519400000000
H           -2.56964900000000       -4.51471400000000        1.92331800000000
H           -2.45634000000000       -2.98161000000000        1.62442200000000
O            0.10112100000000       -3.90403200000000        0.83997500000000
H            0.78933300000000       -4.61151500000000        0.92024300000000
H           -0.18922600000000       -3.94651300000000       -0.10580900000000
O           -1.92927100000000       -3.19962100000000        4.69291000000000
H           -2.01804000000000       -2.24417400000000        4.93755500000000
H           -2.40240700000000       -3.27890100000000        3.82661300000000
O            1.22496300000000        0.11756100000000        4.68469800000000
H            1.17301500000000        0.77877500000000        5.42002700000000
H            1.77784600000000       -0.61783900000000        5.05092300000000
O           -2.74415700000000       -3.32621300000000       -0.52917800000000
H           -2.35223000000000       -4.22178600000000       -0.37120900000000
H           -2.04641900000000       -2.83520000000000       -1.03185100000000
O            2.10279200000000       -0.20471900000000       -3.98124800000000
H            2.45876900000000       -0.55405600000000       -4.83673400000000
H            2.21858900000000        0.77657300000000       -4.04658900000000
34
 energy: -56.605698296441 gnorm: 0.096824174209 xtb: 6.7.1 (edcfbbe)
H            1.49716365726293       -0.30360949773571       -0.55261888716321
C            0.42947272475263       -0.54464280418276       -0.61879384144688
H            0.15269667952476        0.48763574262198       -2.37531330946432
H            0.31853813418494       -1.51768426541547       -1.11073770489205
N           -0.26120916008339        0.47122955096325       -1.42872241363836
H            0.30318997114804       -1.49160611850558        1.30450456341399
C           -0.15440235293851       -0.63858024103622        0.78701428860414
O            0.71740614623655        1.59750897086276        1.19185111608243
C            0.07550575840487        0.57540960159564        1.67659896499514
H           -0.15636635173946        1.40666475357764       -0.99702754880804
O           -0.43680456807086        0.59892588971175        2.80167836244211
H           -1.26600543832946        0.24260718671248       -1.50230517469772
H           -1.23476710304317       -0.83484784344450        0.73285231509476
O           -0.28862263970810       -2.17202020730884        3.40693661953340
H           -1.04427967222021       -1.68624682497083        3.02406750304049
H           -0.21562572405920       -2.97609277499784        2.85007692074733
O           -1.95731609123711       -3.80065135873306        1.83653122347322
H           -2.60300080630439       -4.51835159773553        1.94030300440940
H           -2.48066272398302       -3.00373638575516        1.62615174743580
O            0.18101117707334       -3.89232658789087        0.81019846853059
H            0.81138455914247       -4.62296378223278        0.90412570513382
H           -0.16484234956205       -3.96119522047923       -0.09805255275019
O           -2.06592672051835       -3.24636013230385        4.78596534137933
H           -2.01933924586118       -2.27751623102614        4.95135909000629
H           -2.38755550124480       -3.29574769144924        3.85168342481962
O            1.26159845272709        0.12540265442742        4.70050916785192
H            1.17791273239247        0.76839948975065        5.42489094320920
H            1.77680961409690       -0.61558622507858        5.06349370388988
O           -2.76676884600388       -3.33073120422048       -0.60508856893922
H           -2.36756950158235       -4.19228425980612       -0.37419901225710
H           -2.04791847766328       -2.83663779195628       -1.03405137259456
O            2.09188298569890       -0.19216164087065       -3.98701730285032
H            2.44237568657677       -0.55618627433003       -4.81739630262222
H            2.22617799493015        0.76759412124222       -4.05613448196855
34
 energy: -56.622344253606 gnorm: 0.037904530356 xtb: 6.7.1 (edcfbbe)
H            1.49060273671752       -0.29284395509624       -0.54832519752648
C            0.43922961641745       -0.55409165997864       -0.62669508070924
H            0.15967006856191        0.49873709886223       -2.37674718011905
H            0.34001150570204       -1.51637699147311       -1.11721492370741
N           -0.24996327963790        0.47225085942970       -1.43831118816106
H            0.30225151574264       -1.46049798908033        1.30292708346728
C           -0.15690128707767       -0.63392236719798        0.76243582514321
O            0.72624296047277        1.54905405348783        1.14725791422877
C            0.01631397234930        0.63300310590032        1.62733107302515
H           -0.13020189964430        1.38406980046516       -0.97108404518725
O           -0.50926916727031        0.63940340743667        2.75582029949319
H           -1.25024548086768        0.26331912819507       -1.50107864841655
H           -1.22793780725862       -0.83278605149086        0.72346730009614
O           -0.25357035506247       -2.19799777083567        3.41129392161645
H           -0.95438629238642       -1.64425815845569        3.05484191571498
H           -0.22618816687216       -2.97699126881243        2.83740140873030
O           -2.01635888019023       -3.80852702247846        1.90699388379560
H           -2.64507126206966       -4.52903392460015        1.96516917684946
H           -2.51617170637050       -3.03056351826355        1.61156034175270
O            0.23902106763229       -3.88858850713445        0.78021107464054
H            0.83610695224707       -4.62570679836180        0.89921152774122
H           -0.12942682316583       -3.97679415612166       -0.10256027292237
O           -2.12385047718102       -3.26959852538993        4.82696196776831
H           -2.03332224893800       -2.31950288395250        4.97605574502635
H           -2.37166077777484       -3.32366342406433        3.88091542560940
O            1.31914520324993        0.14101934219950        4.71771713661837
H            1.18376733029026        0.75943319840147        5.44114371848272
H            1.78038708612178       -0.62001326166796        5.08422484812780
O           -2.76801555836278       -3.32167503951631       -0.63562567882164
H           -2.38992639191472       -4.17148889880943       -0.38749903694515
H           -2.05435455840464       -2.83916142737416       -1.05077689117556
O            2.06555345093664       -0.17138647489724       -3.98756437165802
H            2.41241518327157       -0.57000659484606       -4.78917180045504
H            2.24024677073669        0.76879767552100       -4.06695327212276
34
 energy: -56.632292422542 gnorm: 0.064110414866 xtb: 6.7.1 (edcfbbe)
H            1.49425348613759       -0.28943273784417       -0.54400159882242
C            0.44844177163460       -0.56431582093469       -0.63404393590388
H            0.17559588081393        0.51073317505705       -2.38204049823267
H            0.36026180237959       -1.52116456895044       -1.13317856291275
N           -0.23274439796435        0.47568656029632       -1.44594087233131
H            0.30719337345410       -1.45319721677499        1.29797370986137
C           -0.15959996471780       -0.64415861486980        0.74546002198694
O            0.66201787611405        1.57188369498341        1.06346287787720
C            0.04414784976834        0.64773600214815        1.60037961834274
H           -0.09080644839065        1.36710155510111       -0.94563205616790
O           -0.61207503708083        0.69870203889051        2.68125318118634
H           -1.23582426457583        0.28807173035931       -1.50093391951788
H           -1.23108248297659       -0.83480599596161        0.71521639683077
O           -0.21929653669802       -2.24554743807420        3.43875509936854
H           -0.84715683691770       -1.57178465668267        3.11574371398578
H           -0.26517176676378       -2.99163117868558        2.81667635195031
O           -2.07124210173712       -3.81170065690712        1.98563785365352
H           -2.68744550864602       -4.55152388094506        1.97695331622287
H           -2.55705038676338       -3.05866712558807        1.59330333867084
O            0.29295869712554       -3.87096932653519        0.75470720523857
H            0.85405434384483       -4.63323667443541        0.91023861854311
H           -0.10889927646959       -4.00331762115638       -0.10836506227658
O           -2.19575322789014       -3.29780718678650        4.87671888268803
H           -2.02266770923646       -2.35037159554482        4.99454552484831
H           -2.33301402461731       -3.36030977363512        3.89720087264609
O            1.40719702659218        0.17623541618704        4.71745306392056
H            1.18125080620743        0.74934626780110        5.46680900872814
H            1.77523419320924       -0.63560346657091        5.10644113296655
O           -2.77935189038010       -3.31422184464144       -0.68192307412369
H           -2.41342054061648       -4.15353821030240       -0.38622121430010
H           -2.04475137166026       -2.83068523784391       -1.06109024012659
O            2.01710860662330       -0.14272576323659       -3.98125117556847
H            2.36703673844244       -0.60385902435728       -4.75106622781252
H            2.26474432175547        0.78269017644035       -4.08590735141911
34
 energy: -56.639765705686 gnorm: 0.053968117134 xtb: 6.7.1 (edcfbbe)
H            1.49937947474531       -0.29000911286045       -0.53348939535183
C            0.45316973127877       -0.57387696241960       -0.64206775566829
H            0.20213841825300        0.52304577089026       -2.38870359101748
H            0.38331996299556       -1.53010020077605       -1.15424143245960
N           -0.21204770178113        0.48002235445133       -1.45313802295242
H            0.31803474427175       -1.43513354204312        1.30379303164661
C           -0.17897149667732       -0.65488253653552        0.72951870009424
O            0.61911245408632        1.59725662309960        0.98795376220219
C           -0.02392424976711        0.68845720431912        1.54140447615027
H           -0.04866936423725        1.35628302875089       -0.92593921273730
O           -0.63708929036616        0.71635284001078        2.62826258401791
H           -1.22106631257866        0.31249433578372       -1.50959019075724
H           -1.24578555393499       -0.87018670591690        0.69417583260999
O           -0.15975333952202       -2.25844906333223        3.45493108677494
H           -0.73411808706203       -1.50732275850361        3.15869374297482
H           -0.28468198744316       -2.99181972086965        2.80656461956123
O           -2.13029260789068       -3.82030305481401        2.02128505887137
H           -2.73057248254993       -4.57401667689128        1.99373540913601
H           -2.59909979730238       -3.08190497028371        1.61399048249710
O            0.33885176952257       -3.85610597749240        0.72901468873480
H            0.87361525442312       -4.63888754958537        0.92651382522969
H           -0.08918002538213       -4.04171422850424       -0.12091996278955
O           -2.23309727612064       -3.32106051289611        4.90577112858097
H           -2.02775435293527       -2.38745345851757        5.02962858702533
H           -2.33526943374400       -3.40885354116631        3.93844099359295
O            1.45624846817022        0.19271517583395        4.73695597938462
H            1.19321350433523        0.74934148525289        5.48689497888915
H            1.78602000306269       -0.63586079026564        5.12470409366474
O           -2.79310455858116       -3.30475148338978       -0.73823603200393
H           -2.43764396286235       -4.13650478704412       -0.38372330083887
H           -2.02300791808605       -2.81996064260065       -1.07212068453164
O            1.96022542505774       -0.10772297892252       -3.96727043620462
H            2.31478478925520       -0.63766858896887       -4.70421589851276
H            2.29115879936718        0.80219202620708       -4.10524314581230
34
 energy: -56.644712487061 gnorm: 0.056782980567 xtb: 6.7.1 (edcfbbe)
H            1.50673868459812       -0.30428947498922       -0.52590672998020
C            0.45887440638651       -0.58709080530157       -0.65751781883838
H            0.23686850810608        0.54050700833378       -2.39626236819883
H            0.40414977774328       -1.54022884532317       -1.18627077833551
N           -0.18420207116403        0.48716573810470       -1.46073533162667
H            0.32868069948426       -1.42053358791718        1.30270033815519
C           -0.19421658493323       -0.66870114835915        0.70777741023833
O            0.53192462666147        1.63631849375670        0.90855162352753
C           -0.09829651899112        0.71468721979153        1.48540129266829
H            0.00731375217478        1.34448205748128       -0.89988151149150
O           -0.67900677425058        0.72126517948518        2.57191017405885
H           -1.20003188358559        0.34549309695524       -1.52124526459034
H           -1.25529499926403       -0.91314058739381        0.66300910475782
O           -0.13248239214234       -2.23686344669761        3.49765015841777
H           -0.64668420158395       -1.50782911041075        3.15067793848342
H           -0.22326580255365       -2.95091224791650        2.87066158370421
O           -2.20907394661710       -3.83307939801590        2.08538592599045
H           -2.79686892817642       -4.59639894913799        2.02467647434103
H           -2.64925138630570       -3.11555155951185        1.59064871563818
O            0.36397010071365       -3.87916004957429        0.70549689940042
H            0.91735918463084       -4.63010212013039        0.93254382264881
H           -0.04350694909768       -4.07202796550698       -0.14084718212219
O           -2.32037240809456       -3.34621282516266        4.94813208753006
H           -2.01949116637792       -2.41678488156219        5.04875886163712
H           -2.30029528149634       -3.45576405830094        3.95259666935607
O            1.47876286637689        0.19323268521281        4.77861917502528
H            1.22380795446907        0.75314400310579        5.50502932657048
H            1.81018984444702       -0.62762258210738        5.13311885213542
O           -2.77476465160712       -3.27825339097415       -0.73468082952027
H           -2.46573397115903       -4.12756089797257       -0.41808826513401
H           -2.02139325713703       -2.81745973055500       -1.10841966654762
O            1.93085058856186       -0.07831740010462       -3.94918776012980
H            2.28349079130771       -0.61284927250441       -4.66926056892473
H            2.27539438887608        0.81404985320284       -4.08170835884337
34
 energy: -56.645359871787 gnorm: 0.092103127053 xtb: 6.7.1 (edcfbbe)
H            1.51501808160254       -0.32976437029474       -0.53068600808160
C            0.46617415913660       -0.59664162568867       -0.67793625560517
H            0.26648190908601        0.55582709060730       -2.40301576821748
H            0.40988494858292       -1.54424075475400       -1.21503288181257
N           -0.15852189758672        0.49456728036818       -1.46870309966231
H            0.33125706834699       -1.41220678148234        1.28879366141569
C           -0.19296688755863       -0.67383105765448        0.68447808808772
O            0.42799200376551        1.67095835501458        0.85698439529871
C           -0.12973126341502        0.70770176321658        1.46021556111620
H            0.05133856676186        1.33758641145957       -0.88228655488313
O           -0.72659004850740        0.72094805475054        2.53686523312047
H           -1.17636295485558        0.37149868705460       -1.53460752910360
H           -1.24931555251338       -0.93845671962804        0.63302539472143
O           -0.07137310660038       -2.21768556487860        3.50077412696124
H           -0.54820591659467       -1.47052350137612        3.16898466228960
H           -0.22186470775812       -2.92869894976050        2.87443520739738
O           -2.26980070221893       -3.84005876388898        2.10949340802536
H           -2.84135514061156       -4.60381503297136        2.06134889479705
H           -2.68509654603487       -3.13216724951140        1.60416030151511
O            0.38235624373929       -3.89838113561137        0.68530551243137
H            0.95322069081606       -4.61789428172316        0.93933624736284
H           -0.00691362903165       -4.10864887495604       -0.15768942218455
O           -2.30468746286976       -3.35640223308518        4.92843431889318
H           -2.05892194507026       -2.47443724277955        5.10831457104946
H           -2.35346784287367       -3.49817267566300        4.01054749382746
O            1.57750427624713        0.23654896095696        4.77216630262285
H            1.21275693402290        0.73173617640895        5.53809744833473
H            1.79204141628218       -0.64918001894732        5.14735244997393
O           -2.75899187375911       -3.25396533630201       -0.73069199952664
H           -2.48742625346771       -4.11748546758677       -0.43987698035783
H           -2.01536808237096       -2.82276240807477       -1.13789614841665
O            1.90201510585724       -0.04775329052599       -3.92884161294868
H            2.25398026072786       -0.58571998952932       -4.63087799734114
H            2.25908314872346        0.82513154683545       -4.05763702109867
34
 energy: -56.650576926359 gnorm: 0.064553751039 xtb: 6.7.1 (edcfbbe)
H            1.52723408508151       -0.35065967860682       -0.54242851767203
C            0.47872389958287       -0.60001229161769       -0.69416253480442
H            0.29160895305661        0.55873733270337       -2.41084327976174
H            0.41040551416111       -1.54414798797366       -1.22704467911757
N           -0.13629963136613        0.49552652880672       -1.48037664261904
H            0.33118653896326       -1.40256531198302        1.27597160104037
C           -0.18328137187846       -0.66929869945351        0.66447424235851
O            0.37746111149371        1.67481924378396        0.84621985483554
C           -0.14569939569158        0.69775672164202        1.44597877266150
H            0.07247416433670        1.33353749785245       -0.88371725189626
O           -0.75315636567612        0.71772398428694        2.52455481435396
H           -1.15058992777016        0.37686062823873       -1.55198693683768
H           -1.23530240083590       -0.94890060090001        0.60854214323039
O           -0.07866419527738       -2.26241770018465        3.54250713541145
H           -0.47114595418545       -1.37824757841288        3.22706974730968
H           -0.29462473196934       -2.93524407864256        2.84478838902554
O           -2.28944568810640       -3.83782515333239        2.11805879415241
H           -2.84851584733760       -4.60945569500105        2.07214656514727
H           -2.70350455779124       -3.14021335653635        1.62212426502562
O            0.39777993200742       -3.88337373343798        0.67444701712874
H            0.96056313342665       -4.60672126990326        0.96066439580328
H           -0.00426371472489       -4.15200807273506       -0.16292054637752
O           -2.36390112544643       -3.37902379839680        4.95715757738638
H           -2.04042684699743       -2.48670311510375        5.10540774214276
H           -2.30157922539451       -3.51289301227034        3.98355991915642
O            1.56830894831225        0.23324181704593        4.79059850306061
H            1.23422484157087        0.74154122298030        5.54061763081603
H            1.80834035461303       -0.63873491209999        5.13936356543610
O           -2.75978282959553       -3.23614151352427       -0.72947669078403
H           -2.50431126632401       -4.10921106595427       -0.42958866584041
H           -1.99837012504078       -2.82836722276481       -1.13801822807546
O            1.85774935906785       -0.01756414960772       -3.91561306473394
H            2.21381474129262       -0.60807017752542       -4.59264371643112
H            2.27713262444303        0.84166619862685       -4.07209792052928
34
 energy: -56.649261250834 gnorm: 0.091732652169 xtb: 6.7.1 (edcfbbe)
H            1.54041862296567       -0.36212927770181       -0.55276410317566
C            0.48873800468035       -0.59751131037293       -0.70446223462846
H            0.32181987959060        0.56982279037927       -2.41739075547094
H            0.40812396422844       -1.54041238752428       -1.23694297625080
N           -0.11419518072362        0.50142250006378       -1.49170518180603
H            0.32970712762001       -1.39902827684009        1.26858706404492
C           -0.18749085815410       -0.67229173285766        0.64804587554506
O            0.34291221459998        1.66845633816336        0.84553485868461
C           -0.18670727750776        0.69336871572396        1.42237489358838
H            0.08372025117555        1.33459434154308       -0.88198227049910
O           -0.76477661470043        0.69125378842779        2.51700555607186
H           -1.12554974631988        0.38335306327143       -1.57313770233073
H           -1.23529642373803       -0.96941826079613        0.58191403448266
O           -0.07338355350024       -2.21010493936311        3.55052075182586
H           -0.52297376059084       -1.43805956136159        3.22950772898120
H           -0.24791257733069       -2.90567509121761        2.90166023421574
O           -2.29642759598015       -3.82162132683968        2.19171990455681
H           -2.86213820443370       -4.61585396221875        2.05680558131079
H           -2.71854221089996       -3.15213579772293        1.55537604210469
O            0.41230422903251       -3.87185166089476        0.66585735009968
H            0.96023957619476       -4.61158116898402        0.98519361238427
H            0.00182557396264       -4.19514934961149       -0.16734432745677
O           -2.38971926255757       -3.38776315864076        4.95973488070659
H           -1.99027146395522       -2.48760928170312        5.09916147308056
H           -2.30281879690832       -3.50810999943265        3.97966700722388
O            1.57432681198898        0.23231877938154        4.80656653251544
H            1.24448010430991        0.74092824100174        5.55073639635565
H            1.82090250775920       -0.63463018242810        5.13819674894794
O           -2.76145170325289       -3.22087045295093       -0.74968784551569
H           -2.52269971800336       -4.10481907553435       -0.41616897302206
H           -1.95617942339475       -2.84041684815169       -1.14033372652601
O            1.81144103084252        0.02252296544879       -3.88862256366207
H            2.16594985585940       -0.62834898104251       -4.54330151823264
H            2.29576761714119        0.87096156078493       -4.07698834814721
34
 energy: -56.652665616124 gnorm: 0.075185844629 xtb: 6.7.1 (edcfbbe)
H            1.54818907810750       -0.37250142152228       -0.55945091875406
C            0.49269205116743       -0.59813643772979       -0.71199948966522
H            0.34707230714916        0.57756222701924       -2.42328575543013
H            0.40535676188526       -1.54100514195144       -1.24740779443228
N           -0.09828137512287        0.50501647991672       -1.50065343841435
H            0.32818839937220       -1.40252282427575        1.26336109527933
C           -0.19277390103890       -0.67934618028361        0.63841193713168
O            0.30335417439061        1.67471370159970        0.83183808551049
C           -0.20872574722979        0.68257871855162        1.40811931182413
H            0.09097556149615        1.33469846173381       -0.88150403972609
O           -0.77322290274561        0.66972658387577        2.50923824375987
H           -1.10922297246898        0.38823518259855       -1.59234344696238
H           -1.23814701336017       -0.98689011518147        0.56260444383134
O           -0.06363536115584       -2.19387995228669        3.55668529027071
H           -0.51260443197508       -1.44188037914758        3.23828425555224
H           -0.23819010343917       -2.88744261662776        2.92081344710318
O           -2.32967024743130       -3.84261882205520        2.11455015212002
H           -2.88305379155528       -4.61478636624636        2.09231034252214
H           -2.72749409444045       -3.14767296921076        1.63825096554465
O            0.41099149531322       -3.90207310535193        0.65858496845354
H            0.98055820642933       -4.61493043467939        0.97372499787694
H            0.04536158938875       -4.18774126356070       -0.18137928941463
O           -2.39480660270234       -3.38704177535887        4.96360193747728
H           -2.01388779878436       -2.50026342042127        5.11301026502816
H           -2.30256701691224       -3.52068580503082        3.99211511237596
O            1.57893061549636        0.23121108689967        4.82047616352578
H            1.25634576828206        0.73945962679779        5.55824211465814
H            1.82728068555745       -0.63386189715951        5.13543061149581
O           -2.76425161952924       -3.21359379831271       -0.75456466125234
H           -2.52735361947308       -4.09748283164932       -0.42543606406204
H           -1.95520332339104       -2.84337053087698       -1.14956545238224
O            1.83133071617601        0.02963477329014       -3.87687757385813
H            2.17522505049963       -0.56471118639197       -4.54548051643249
H            2.25538246204478        0.87521343302735       -4.02637130055259
34
 energy: -56.649459964523 gnorm: 0.114844313066 xtb: 6.7.1 (edcfbbe)
H            1.55179649081754       -0.38425270664145       -0.56193420299365
C            0.49435937330103       -0.60320296208990       -0.71993937499548
H            0.37399515597816        0.58014161079833       -2.42851291242971
H            0.40611407688631       -1.54579371099239       -1.25922541834924
N           -0.08364661479462        0.50571664069004       -1.50980712206552
H            0.32822689554143       -1.40432745727006        1.25761888110283
C           -0.19495514189737       -0.68446190087686        0.63066286920549
O            0.26437936246501        1.68600172293309        0.81029182706916
C           -0.22341237385547        0.67239996472898        1.39897953496338
H            0.09782053983188        1.33337643533375       -0.88478110920836
O           -0.76747924324753        0.65044340830211        2.50782982192022
H           -1.09521282193519        0.39138074763581       -1.61494535329146
H           -1.23672076893907       -1.00212199577948        0.54578733625504
O           -0.06048890882252       -2.23962083085089        3.57347893566148
H           -0.40661000672586       -1.31947829935663        3.26718422795649
H           -0.30761712154194       -2.88977323807537        2.87462886406042
O           -2.33976743509700       -3.84095988967850        2.17209338497967
H           -2.90168772805859       -4.61021265052234        2.11479368316996
H           -2.73034920759829       -3.15575513266619        1.57642812965498
O            0.39389280509132       -3.94151296653072        0.66956460182366
H            1.00614746489027       -4.59847237634299        0.96403694624582
H            0.06905346926830       -4.18513975586539       -0.17407696074402
O           -2.38489840755283       -3.38958981477526        4.95470698204470
H           -2.07143192697692       -2.53463089881574        5.13655153332055
H           -2.31473179160262       -3.54224327610866        4.01108794548989
O            1.64982679727420        0.27012286980660        4.80187197992336
H            1.23967232790529        0.72175504597660        5.58093986723170
H            1.79956449668630       -0.65420153868703        5.13871394724117
O           -2.73795354616614       -3.20701437086853       -0.69241485610316
H           -2.51120399943788       -4.09881028853569       -0.47079076769402
H           -1.99386276020356       -2.84215138989627       -1.15845496357850
O            1.82904397782619        0.04625764169860       -3.86684278191061
H            2.16253465170024       -0.52899124401548       -4.53040454068187
H            2.23974491899012        0.87873360733578       -4.00178693527169
34