37
 energy: -59.740844497440 gnorm: 0.178053920008 xtb: 6.7.1 (edcfbbe)
N            0.05814800000000       -0.92758300000000        1.46960700000000
C            0.21195900000000        0.51002000000000        1.25738900000000
C           -0.42029600000000        1.02660100000000       -0.05399500000000
C            0.23290900000000        0.51099500000000       -1.35178600000000
C           -0.12525300000000       -0.89643600000000       -1.75561800000000
O            0.43258500000000       -1.42088200000000       -2.86197900000000
O           -0.94795900000000       -1.55110300000000       -1.13717200000000
H            0.42854800000000       -1.16686800000000        2.41684100000000
H           -0.95187600000000       -1.19383100000000        1.43153800000000
H           -0.27873900000000        1.04478500000000        2.10014800000000
H            1.29199600000000        0.77262900000000        1.27882300000000
H           -0.26331200000000        2.12751800000000       -0.03828000000000
H           -1.51695700000000        0.85134800000000       -0.07337000000000
H            1.33463900000000        0.61768200000000       -1.26361400000000
H           -0.10456000000000        1.15854300000000       -2.18948000000000
H            0.61816600000000       -1.46341800000000        0.77094700000000
O           -2.30313100000000       -2.21092300000000        4.91976300000000
H           -1.33123200000000       -2.14071400000000        5.09609900000000
H           -2.37149800000000       -2.29076600000000        3.93509900000000
O           -0.58712400000000       -3.89686400000000       -1.43540800000000
H           -0.14314200000000       -3.45567100000000       -2.20276700000000
H           -0.11397700000000       -3.54564200000000       -0.63955100000000
O           -1.50848900000000       -4.23399600000000        3.36532200000000
H           -2.15991300000000       -4.05814600000000        2.64052300000000
H           -0.64398200000000       -3.91193500000000        3.00543800000000
O           -1.24546000000000        3.97499500000000        3.02698400000000
H           -0.87686900000000        3.32233700000000        2.37984500000000
H           -1.00948300000000        4.85937900000000        2.64910700000000
O           -2.75551500000000        2.38516500000000        3.05993400000000
H           -2.89939100000000        2.80464400000000        3.94534300000000
H           -2.45539600000000        1.46456200000000        3.26737700000000
O           -3.16439700000000        1.27759500000000        5.50911800000000
H           -3.25938200000000        0.41683100000000        5.02883300000000
H           -2.19006200000000        1.45445900000000        5.51098500000000
O           -0.34759900000000       -0.23750900000000        4.60166200000000
H           -1.26690200000000       -0.10331900000000        4.25889900000000
H           -0.27285200000000        0.39036100000000        5.36376800000000
37
 energy: -59.775215359542 gnorm: 0.094237949344 xtb: 6.7.1 (edcfbbe)
N            0.05994513442609       -0.92250879324672        1.47630736784032
C            0.21229370717751        0.52283568016629        1.25453812356005
C           -0.40707944604901        1.03644935092119       -0.05178953941053
C            0.24442283426023        0.53210204636368       -1.35034769080914
C           -0.15188473293246       -0.87153469659236       -1.76646348746811
O            0.42952367864802       -1.39674692393992       -2.80283740073304
O           -0.96970402565144       -1.50090385064737       -1.08706699691576
H            0.41668079934908       -1.16272781327380        2.41783995490660
H           -0.93470483330600       -1.19062810634958        1.40939267212490
H           -0.27417331369133        1.04581747697898        2.08812568016508
H            1.28020051914612        0.77404003460117        1.27159063495840
H           -0.27569750111829        2.12524863987597       -0.04371320931381
H           -1.48662541064470        0.83853124142877       -0.07500902177140
H            1.33675563874636        0.61265576861504       -1.28524541590244
H           -0.08190549578058        1.16547403011849       -2.18576987322294
H            0.59576271070065       -1.45380399532967        0.77482115728112
O           -2.31527240841626       -2.13436175373640        4.92237384224163
H           -1.35422870394255       -2.15247361026875        5.10516243852777
H           -2.37484037571862       -2.32154530492503        3.96382778143036
O           -0.51834861600064       -4.01162218713727       -1.44832344086445
H           -0.18595659668251       -3.44683129076861       -2.18909011635757
H           -0.13494381472135       -3.57580487228021       -0.65926036949428
O           -1.50547852235823       -4.22389268040801        3.34764066167199
H           -2.14513146526694       -4.08938296597321        2.62853395450268
H           -0.64750514828705       -3.93866393353647        2.99112072793943
O           -1.15475302125871        4.03259223256198        3.03162609468488
H           -0.86835587550092        3.37478245768887        2.37083673383675
H           -0.97686498024818        4.89665016655199        2.63250996941621
O           -2.82972017829746        2.32142412719380        3.04737766013235
H           -2.92984294640705        2.77210048641185        3.90637570559118
H           -2.48244749895000        1.44163594565833        3.26826163324738
O           -3.15929812897150        1.26702634321690        5.52340408135271
H           -3.26767928897505        0.41052476283833        5.07318725632972
H           -2.20196726875927        1.44332943006032        5.53062728420593
O           -0.33357070333676       -0.20753441292519        4.56718103793443
H           -1.26013955525901       -0.11067554331145        4.27912454808203
H           -0.25326316592231        0.36326551339803        5.34950156029977
37
 energy: -59.790502359762 gnorm: 0.048175367123 xtb: 6.7.1 (edcfbbe)
N            0.05971046023194       -0.90961043816383        1.48257571108503
C            0.21896052542229        0.54451752620727        1.25264948647186
C           -0.39743887824557        1.04866430954855       -0.04815807156327
C            0.25790525186077        0.54237601572851       -1.33889374574469
C           -0.11557332477034       -0.89614727574185       -1.72688513137186
O            0.36862901971383       -1.35487941363588       -2.77361416553243
O           -0.97784929526741       -1.47066346382387       -1.02078853055281
H            0.39607489160220       -1.14695530950075        2.42313734782981
H           -0.92307881782397       -1.17623233121298        1.37536141223865
H           -0.26807535579515        1.05423153951850        2.07908258424142
H            1.27944315126283        0.77849859170305        1.26712570964913
H           -0.29646308775841        2.12980582185216       -0.04615645733674
H           -1.46050841927241        0.81346161067620       -0.08058802240088
H            1.34165340844925        0.61013510752016       -1.29694471971678
H           -0.06403714376409        1.16042256699178       -2.17739642462590
H            0.57248120892669       -1.43846717242538        0.77649150355088
O           -2.33332683208250       -2.04411710309731        4.92436124928587
H           -1.38716665314569       -2.16253019519281        5.12722919969061
H           -2.38388959488394       -2.36955335102620        3.99825793640458
O           -0.49686284781517       -4.04290736480657       -1.47347483802241
H           -0.18184736628388       -3.47742720010503       -2.18709015957349
H           -0.14496812146926       -3.61875669782871       -0.68913194812860
O           -1.51050028531374       -4.17868895162399        3.33620776155426
H           -2.13096839610071       -4.14203275010509        2.59937648993432
H           -0.64302536065022       -3.98420350322479        2.96581688811543
O           -1.06690935310964        4.07201270008585        3.05084100514396
H           -0.87460095216697        3.41396625609031        2.36645034201304
H           -0.96671755672178        4.92390429334401        2.62501905158916
O           -2.86074279600693        2.28922710506677        3.00297241327180
H           -2.97220309010584        2.76203222589649        3.83240317176763
H           -2.51078942713086        1.43378994498447        3.24655850444775
O           -3.15639329269032        1.25037432055787        5.55322805133019
H           -3.28288772603334        0.38869557675130        5.14624060113923
H           -2.21420027847856        1.42886157887307        5.56683006932130
O           -0.31080544118216       -0.17269092889824        4.51807208397160
H           -1.25622088454772       -0.13271162945447        4.30566124641064
H           -0.21260533885353        0.33844098847137        5.32354439411243
37
 energy: -59.798603089068 gnorm: 0.093339638990 xtb: 6.7.1 (edcfbbe)
N            0.05842969108959       -0.88965685101704        1.48443293050459
C            0.23154412484825        0.56824283957483        1.25458206110056
C           -0.38969691388179        1.06309159208657       -0.04378409107033
C            0.25748639904363        0.55249788563584       -1.33228815539927
C           -0.15983072544166       -0.88909340768489       -1.73950206577980
O            0.38004134561793       -1.37993187416593       -2.72281221053768
O           -0.94235411222732       -1.48241591065638       -0.93807282126148
H            0.37197190565834       -1.12407413165082        2.43204428077211
H           -0.92311831925547       -1.14933134818647        1.34027465987226
H           -0.25647176252217        1.07425742548556        2.08108475384540
H            1.29407122085466        0.78849614940040        1.26611722850665
H           -0.31124891677164        2.14578696078950       -0.04505027668169
H           -1.44565304982788        0.79801306977167       -0.08213496492681
H            1.34530728653623        0.59720176304045       -1.30561185451295
H           -0.05877463532096        1.17512868386167       -2.16844815479963
H            0.56499920857953       -1.41997658252108        0.77611917994714
O           -2.35387943504828       -1.98591903176720        4.92492500151357
H           -1.42576607841563       -2.15980946597595        5.16149233027850
H           -2.39957255041603       -2.39757827655587        4.02962657151840
O           -0.42870398550985       -4.14020986416404       -1.49336581241662
H           -0.22674948700200       -3.46565869768095       -2.19217054105562
H           -0.18316861045420       -3.62622325499920       -0.69440354192626
O           -1.52753399659367       -4.09733537945856        3.33553096023308
H           -2.12122014059070       -4.20843906655267        2.55219580758477
H           -0.63163943142507       -4.04413418421271        2.92850117404331
O           -0.98710093221532        4.09785973654879        3.07951798980528
H           -0.88374693054551        3.44408652603794        2.36146118295601
H           -0.97102704723924        4.95227044501114        2.62368293355898
O           -2.87172778188597        2.26601130998018        2.94722398194303
H           -3.01705462165766        2.76615913312287        3.75409646812662
H           -2.53260640754024        1.41747741299580        3.22868262763375
O           -3.16130484836203        1.25170648409372        5.55498507101251
H           -3.29482592484609        0.34347712471505        5.24060868734302
H           -2.21767995661881        1.41006535355896        5.61106779066098
O           -0.27264112773337       -0.12539511466799        4.43990279837638
H           -1.26013378987864       -0.17100098655366        4.33870575571499
H           -0.15441766300136        0.30919653276056        5.29715426351742
37
 energy: -59.803402434277 gnorm: 0.073780724421 xtb: 6.7.1 (edcfbbe)
N            0.05456739848473       -0.86673672171445        1.49092141889937
C            0.24098844705849        0.59142426378609        1.26182839439515
C           -0.38565674315563        1.07675719723070       -0.03732710998646
C            0.26178534037314        0.56356077707337       -1.32055206373735
C           -0.18031921613358       -0.88544078245246       -1.72498371511638
O            0.38459708445063       -1.40906734234769       -2.69208859625793
O           -0.92418675438411       -1.47647509496793       -0.87814767348720
H            0.34130943897702       -1.09669418268924        2.45009186461664
H           -0.92851621727775       -1.11827150934196        1.31155843252780
H           -0.24444906405040        1.09986196156230        2.09193082366629
H            1.30832251837438        0.80202444358414        1.26940607050436
H           -0.33066422125082        2.16439261619128       -0.04311394084899
H           -1.43744502433234        0.78493436199683       -0.07681388041756
H            1.35469994495559        0.58946621780993       -1.29605554331977
H           -0.04711397211897        1.18369270903603       -2.16476214982272
H            0.56519074561323       -1.40166005254426        0.78497753766123
O           -2.36868056744373       -1.95879447048726        4.93303190468893
H           -1.46297792509494       -2.14232406844860        5.20141250432133
H           -2.42634325810418       -2.38152339651422        4.07003071394402
O           -0.42114148139764       -4.16405074877073       -1.52556583384206
H           -0.21299105892540       -3.52175957100928       -2.21459996965891
H           -0.19469926251619       -3.68158032708744       -0.71544048686272
O           -1.51050023407051       -4.17759819273250        3.25556531976907
H           -2.12436448974081       -4.18718890572344        2.54409212893338
H           -0.63819609092836       -4.03281940439384        2.92198105838352
O           -0.94169205819943        4.13529844908127        3.07697097196074
H           -0.87268609478738        3.47928869234830        2.36873658703844
H           -0.95809148080031        4.98832347211073        2.62003888592576
O           -2.89483076770126        2.23194138932212        2.88545139060582
H           -3.06474262087539        2.77403291040077        3.66934402596272
H           -2.55743258886619        1.39144432267223        3.22234317483472
O           -3.17182667893649        1.25508475828872        5.54494509527363
H           -3.29638433996762        0.29453150915708        5.33369237119273
H           -2.22153981744512        1.39071377040896        5.66622011826631
O           -0.27452755646407       -0.16052296555127        4.43528726941062
H           -1.22980135488288       -0.17816090897518        4.32001844208999
H           -0.09545797843656        0.30873782369159        5.24594645848689
37
 energy: -59.809409898060 gnorm: 0.073663351353 xtb: 6.7.1 (edcfbbe)
N            0.05109782816994       -0.84475139899553        1.50043717322962
C            0.24355531584047        0.60791798129017        1.26882304568531
C           -0.39113366354483        1.08268761270466       -0.03437199080862
C            0.26579556677415        0.56110540922002       -1.30822930857304
C           -0.12727470615837       -0.91436416652593       -1.65694622153733
O            0.36064967602541       -1.41678975399485       -2.71217975407495
O           -0.93569386095894       -1.46793614373397       -0.88859315970407
H            0.31597343512776       -1.06928727841550        2.47146624360319
H           -0.93424586842075       -1.09020024672818        1.30219013206838
H           -0.23334188947091        1.12854118654160        2.10356652239152
H            1.31594923129797        0.81917924251985        1.27046652458687
H           -0.34920736435299        2.17589440392003       -0.04831173736028
H           -1.44340558146065        0.78315780866442       -0.06255416642567
H            1.35955131431786        0.59258964094290       -1.26857742436102
H           -0.03822624399736        1.16706081514271       -2.17210386549662
H            0.57777362944583       -1.38734908529880        0.80433643630368
O           -2.38414307048455       -1.86686307682082        4.92467550110719
H           -1.48952707201737       -2.15659430544106        5.24417702633554
H           -2.43856798867826       -2.43421733721839        4.09428876645395
O           -0.41104130551220       -4.17404080951444       -1.55207046547477
H           -0.20436075647692       -3.54915539707375       -2.23608836762610
H           -0.20272596527735       -3.72328502502446       -0.73051030702421
O           -1.52967563362897       -4.10352691832434        3.25433145504932
H           -2.12147327094504       -4.23494541011160        2.50439266864375
H           -0.63215371552611       -4.07339858102328        2.89796843430051
O           -0.92807188307102        4.16791171450151        3.06431967677007
H           -0.86593773292923        3.50323431813774        2.38317514265401
H           -0.92541273013877        5.01590977084769        2.63220378054670
O           -2.90645520044095        2.20903537240247        2.84016309644036
H           -3.09692674703739        2.77293688828781        3.61231561932649
H           -2.58859144097982        1.36692039176139        3.21866049097208
O           -3.17963753191566        1.21679276738817        5.57732459052240
H           -3.28336969517925        0.28490011681956        5.34318807877729
H           -2.23049164356633        1.37682350897771        5.71208091906838
O           -0.26212686259705       -0.15687337328779        4.39353206229558
H           -1.22149398816584       -0.20096951896091        4.32942822297464
H           -0.04143058406788        0.29679187642434        5.20939715836197
37
 energy: -59.793606240087 gnorm: 0.191761567218 xtb: 6.7.1 (edcfbbe)
N            0.05129911938497       -0.82197464321393        1.51246462447249
C            0.24739011343703        0.62441676312581        1.27007492686755
C           -0.39436835896190        1.08630820429347       -0.03604234278215
C            0.26670276986244        0.55190823370490       -1.30322293022487
C           -0.07788315158794       -0.94661715964177       -1.59814743148542
O            0.33401650683846       -1.41201056006470       -2.71852804234465
O           -0.93927480047932       -1.47587365067647       -0.89867547783886
H            0.29306153733015       -1.03757862136766        2.49263395242311
H           -0.93015282019079       -1.06359722630993        1.29794878962538
H           -0.21779507993834        1.15704987791289        2.10500895946559
H            1.31987375927443        0.83702597109491        1.26513167367326
H           -0.35928230203129        2.17881199954143       -0.05951653376239
H           -1.44508236540588        0.78944054270836       -0.04813459529263
H            1.35686798021273        0.59143938477377       -1.25271186850409
H           -0.03093832129965        1.14761912997461       -2.17774378724252
H            0.59230794789523       -1.37333389176354        0.83277183401728
O           -2.37275970667590       -2.00945371392624        4.93138044281535
H           -1.51809656681890       -2.07371571687714        5.26224724689559
H           -2.46967455014433       -2.33496023729655        4.11790800969370
O           -0.36287126798320       -4.23393374284752       -1.56461715609533
H           -0.23942964771447       -3.53117311936626       -2.24118263442669
H           -0.23692336228173       -3.73822927565035       -0.73111344905711
O           -1.55128651422325       -4.02313499077311        3.25592101767085
H           -2.12086786520414       -4.28300230788484        2.46569520905691
H           -0.62895124965747       -4.11153929205777        2.87619261788720
O           -0.86114383705763        4.19579668096730        3.08787237264907
H           -0.90936705627577        3.51920465561845        2.37383765863607
H           -0.91750447349708        5.03998217425514        2.63333452041936
O           -2.89461196391151        2.20338389726574        2.81029778216736
H           -3.11527353539446        2.75033493168856        3.57621857014900
H           -2.63205605670908        1.35260313404645        3.19631786384725
O           -3.18267684052650        1.18446671940466        5.58336754359390
H           -3.26570267633557        0.26534048530453        5.36664790593585
H           -2.24199224306812        1.35971902965616        5.74782380903474
O           -0.23285826302204       -0.12334792140372        4.31919124028814
H           -1.22865048459610       -0.25392820882717        4.36525936935517
H            0.01015762675525        0.27739546461325        5.17046030841860
37
 energy: -59.815911443297 gnorm: 0.062147198198 xtb: 6.7.1 (edcfbbe)
N            0.05113971343533       -0.81582854619284        1.51812238518736
C            0.24887315749534        0.63153134143204        1.26975781157990
C           -0.39226581150699        1.08697970777645       -0.03593918349052
C            0.26795040945305        0.54599268604646       -1.30363315649881
C           -0.13542059263267       -0.92338180851052       -1.65224488763475
O            0.36141270167231       -1.41989624560525       -2.67722605399867
O           -0.91749966848255       -1.49808201309534       -0.87110153560084
H            0.28703006944780       -1.02734065790734        2.49791238337785
H           -0.92593179235530       -1.05850329734050        1.30028786568000
H           -0.21564271155898        1.16277081372010        2.09976312300006
H            1.31744887035939        0.84188398829909        1.26437615218451
H           -0.35550286947728        2.17489164835684       -0.06281495068569
H           -1.44170326270109        0.79275581577219       -0.04911725179870
H            1.35668659088033        0.58581804817316       -1.25588260048294
H           -0.02854653559600        1.14612631609895       -2.16760454982791
H            0.59314755695198       -1.36824584872863        0.84766860661716
O           -2.38587812191972       -1.90991080636520        4.93531057124540
H           -1.51758662144927       -2.08713118924941        5.27660054489059
H           -2.46950301138481       -2.41645001290828        4.11227133874205
O           -0.35982183052633       -4.24396516252335       -1.57024311447523
H           -0.24269483565475       -3.52510924125296       -2.24354605448319
H           -0.24250687021651       -3.73961762962057       -0.73687134151311
O           -1.54221425706311       -4.07595825257800        3.22461955942020
H           -2.12492691488290       -4.25102828977403        2.47687814081156
H           -0.64118674328757       -4.08626161041207        2.88282014170401
O           -0.85124267823519        4.19579869958548        3.09882802181315
H           -0.91190999336844        3.52137716825186        2.37611939126639
H           -0.92676718246132        5.04364202512189        2.63081029739625
O           -2.88094560186393        2.20659370393737        2.80719856553828
H           -3.11868576704028        2.74367855570512        3.56744000556785
H           -2.64528156197131        1.35435851463620        3.18515602588552
O           -3.18065414107596        1.19462793673940        5.56190836896305
H           -3.26286571215012        0.24078223779705        5.39331205787007
H           -2.24491813602682        1.35521110805629        5.75420905270840
O           -0.23023634785556       -0.14171114299119        4.32557429280426
H           -1.21382059419717       -0.25237323165363        4.35199523237210
H            0.01667309724465        0.28081767120519        5.15365674386668
37
 energy: -59.800784544446 gnorm: 0.174614997045 xtb: 6.7.1 (edcfbbe)
N            0.04802484948761       -0.80040095905586        1.53515252091620
C            0.25004320586719        0.64587509626068        1.27548843737981
C           -0.38947273763135        1.09191993204051       -0.03187444260252
C            0.27050252687600        0.54532341686155       -1.29713813584879
C           -0.18374101403349       -0.90268323920877       -1.67852895198477
O            0.36913652613928       -1.44056805311586       -2.64954754903204
O           -0.89142883576337       -1.50617816719498       -0.81361546278925
H            0.26200818040022       -0.99977696327027        2.52387615539981
H           -0.92497806648831       -1.04437841239908        1.29858430649623
H           -0.21443881042298        1.18240199705810        2.10026260431052
H            1.31790810273044        0.85315795481807        1.26584348339648
H           -0.35818044180695        2.17889764460930       -0.06915762567828
H           -1.43774387050172        0.78902032331545       -0.04680024509893
H            1.36160582026978        0.57511758069913       -1.25140148907114
H           -0.02396772781737        1.14163179636045       -2.16125728537172
H            0.60137441859588       -1.36038585855152        0.88274894170879
O           -2.40870657335359       -1.82561883003596        4.92584186833077
H           -1.53908941634632       -2.16801691959775        5.33622790495591
H           -2.44804670439690       -2.39051148056241        4.12126629079045
O           -0.41423054907245       -4.17157719922618       -1.60412471649160
H           -0.17897027760166       -3.59997797718089       -2.26994574447570
H           -0.22376995349324       -3.79262970780701       -0.77658168026050
O           -1.57021119526475       -3.97961868301279        3.23880993777180
H           -2.11732825379577       -4.29655445446577        2.44456106033981
H           -0.64176279271606       -4.13580735254348        2.86403190102377
O           -0.90929325878144        4.22743189914052        3.04057937710591
H           -0.83878260230050        3.55166752145238        2.42979449024511
H           -0.89933785679732        5.06750727236665        2.63234192597430
O           -2.89343826621026        2.17375857783779        2.77623970861931
H           -3.14496093219258        2.74919356080527        3.51517542033733
H           -2.67750177306299        1.32681737127772        3.19423604135398
O           -3.17825680125363        1.17677931211087        5.56248596712355
H           -3.25583464194738        0.21192101908737        5.42098333297395
H           -2.25183809660743        1.34848308691136        5.77509751941376
O           -0.24033105342907       -0.19134417868259        4.34309206914883
H           -1.16998955599851       -0.24205689731117        4.31292308757787
H            0.03923042871838        0.27602297021196        5.12070097601407
37
 energy: -59.819711606632 gnorm: 0.059442387902 xtb: 6.7.1 (edcfbbe)
N            0.04932967427437       -0.79024840267023        1.53997909258623
C            0.25175724538528        0.65219308804656        1.27490523527973
C           -0.39094179474437        1.09463610279870       -0.03431516999738
C            0.26682683495383        0.54075569300805       -1.29738781427982
C           -0.14536824312543       -0.92522384334791       -1.63770355359555
O            0.34928593324204       -1.43766225392235       -2.66705157097436
O           -0.89808936986957       -1.50892378031927       -0.82760869279358
H            0.25605317377991       -0.98497464921081        2.53337250452601
H           -0.92337133470967       -1.03540484336112        1.30065962366846
H           -0.21196138711502        1.19584257497925        2.09876527143230
H            1.32156246086152        0.86189968744005        1.26312542110817
H           -0.35750065217597        2.18335500755116       -0.07613740320203
H           -1.44058458461994        0.79339312705008       -0.04433200506653
H            1.35831883022692        0.57287386407363       -1.24682547277456
H           -0.02479817240152        1.13555343534893       -2.16750080986882
H            0.61199749029261       -1.35541094965479        0.89588547468181
O           -2.40694441365845       -1.83155180560760        4.92773493783530
H           -1.54869360511593       -2.14767649264347        5.33477409280947
H           -2.45622788313715       -2.39565705296883        4.13197480492090
O           -0.37795170485810       -4.23056248565612       -1.60628539772226
H           -0.20152112953611       -3.56715097138874       -2.27120253811841
H           -0.25712774977801       -3.78246828434707       -0.75959351071392
O           -1.55631450778935       -4.06036715178676        3.19294326074143
H           -2.13016081652409       -4.25144926363419        2.46131984420226
H           -0.65690880579731       -4.09332462520073        2.87639530489385
O           -0.87388756120294        4.23678526863763        3.06928999002866
H           -0.86928336680239        3.54349628564842        2.42344457334544
H           -0.90328983856642        5.07706889834155        2.62431434582188
O           -2.87376900583212        2.17665081048774        2.76679506444219
H           -3.15310355392547        2.74656566210667        3.50295519592015
H           -2.69416078462733        1.31891861507448        3.19217393895034
O           -3.17789714938702        1.15709332120734        5.56844036360512
H           -3.24843025872649        0.20737065847390        5.41662779504797
H           -2.25439492866211        1.34205377892939        5.78305680765696
O           -0.21390080639033       -0.16304331359434        4.29205589383989
H           -1.18691071658218       -0.27246365282871        4.34011918922447
H            0.06256448264164        0.26190094294256        5.11120791254108
37
 energy: -59.795884400807 gnorm: 0.210533453175 xtb: 6.7.1 (edcfbbe)
N            0.05076967265291       -0.77339073451827        1.54999384385076
C            0.25282401843745        0.66483899384061        1.27289455801354
C           -0.39322253546176        1.09860991630455       -0.03857094177040
C            0.26004919050349        0.53571990044957       -1.30029391849655