22
 energy: -34.368621350814 gnorm: 0.146256043557 xtb: 6.7.1 (edcfbbe)
N            1.55717000000000       -0.08904000000000        0.48346000000000
C            2.96671000000000        0.10626000000000        0.14920000000000
C            3.11967000000000        0.73867000000000       -1.23952000000000
C            4.60047000000000        0.94651000000000       -1.58725000000000
C            4.80813000000000        1.59352000000000       -2.93081000000000
O            3.86326000000000        1.91158000000000       -3.63638000000000
O            6.06142000000000        1.83130000000000       -3.35999000000000
H            1.05653000000000        0.82916000000000        0.47952000000000
H            1.11230000000000       -0.73982000000000       -0.20362000000000
H            3.48777000000000       -0.87565000000000        0.17173000000000
H            3.43433000000000        0.76927000000000        0.91030000000000
H            2.59848000000000        1.71954000000000       -1.24806000000000
H            2.65078000000000        0.07634000000000       -2.00009000000000
H            5.11401000000000       -0.03773000000000       -1.58833000000000
H            5.07208000000000        1.59258000000000       -0.81635000000000
H            1.48743000000000       -0.50722000000000        1.43861000000000
O           -1.69071585460000        1.53201263170000        2.18601665410000
H           -0.70141585460000        1.56001263170000        2.15361665410000
H           -1.98011585460000        2.15081263170000        1.46911665410000
O            4.22759461130000        4.64048019180000       -5.13055523710000
H            4.19634262200000        3.67674030710000       -4.90521771730000
H            4.83479427780000        5.03387674110000       -4.45441979940000
22
 energy: -34.382033980652 gnorm: 0.074180865835 xtb: 6.7.1 (edcfbbe)
N            1.55622434570935       -0.09455067448606        0.48738056827674
C            2.97561308490703        0.10551316894981        0.14906261568105
C            3.12289146298251        0.73831810208557       -1.23527344579538
C            4.59640062831602        0.94410571199642       -1.58749931501910
C            4.80967782569729        1.59965793260347       -2.94252061920541
O            3.85065887458655        1.94210846251985       -3.64973090995291
O            6.03322667849441        1.81046575773204       -3.30452291947619
H            1.05900117941938        0.80870733380317        0.47170595581503
H            1.11111120831479       -0.72913822154674       -0.19458899889655
H            3.49471691999446       -0.85916996371092        0.16863140228593
H            3.44181547933540        0.75831862305801        0.89623168972965
H            2.61729764590970        1.71062475728247       -1.27130978240013
H            2.66795484495016        0.10197357970821       -2.00389896289403
H            5.12594829085367       -0.01696473740392       -1.59506394049605
H            5.08472657277097        1.57912423767823       -0.83677559100014
H            1.47221839488890       -0.50818860139269        1.42958122826058
O           -1.68595090808026        1.49222350625757        2.14532009827510
H           -0.71594116885451        1.60934031458469        2.19180325471347
H           -1.98382864823962        2.14742377017234        1.48968228379501
O            4.22860568487848        4.62021819489541       -5.12141309364214
H            4.18462506072064        3.67806215281748       -4.87338288045642
H            4.83003048974491        5.02103172749553       -4.47244142909804
22
 energy: -34.386092591229 gnorm: 0.022938662940 xtb: 6.7.1 (edcfbbe)
N            1.55742926152737       -0.10136821475648        0.48793964520096
C            2.98555978811512        0.10576141868245        0.14458969679077
C            3.12753359802792        0.73922457230002       -1.23547934580438
C            4.59704659973771        0.94594220973754       -1.58692097392640
C            4.82629999760425        1.63705834643314       -2.94554127007550
O            3.84151404516810        1.98241453885775       -3.64041983283686
O            6.01190552013381        1.78025074444432       -3.28444843591007
H            1.06131395866696        0.79176144217965        0.45903605658547
H            1.11507030547681       -0.72491544977027       -0.19328087184669
H            3.50092675093354       -0.85028635184074        0.15786649757796
H            3.44430583036895        0.75588623992411        0.88468935105084
H            2.63638582199962        1.70948920137684       -1.28114679336644
H            2.68374164361632        0.11564167424536       -2.00901113771085
H            5.13761448232505       -0.00068590566063       -1.62078482286265
H            5.09875533756374        1.57540744200583       -0.85145124504188
H            1.46262186442230       -0.51193513216926        1.42153342016103
O           -1.67792789133984        1.48666050005722        2.13464391914674
H           -0.73011711480230        1.65479611335947        2.22639007234444
H           -2.00112980348963        2.11375784555457        1.48734609509431
O            4.22636706621834        4.58559225790636       -5.10933495470572
H            4.14363639442781        3.66534558848652       -4.81561763812281
H            4.82817049059843        5.00340605374635       -4.48962022324238
22
 energy: -34.384766626915 gnorm: 0.074010749220 xtb: 6.7.1 (edcfbbe)
N            1.55910028751278       -0.10539061012109        0.48167127812071
C            2.98921311377914        0.10757350284665        0.13716250815232
C            3.12849025838701        0.74393400791114       -1.24143942536442
C            4.59664581236325        0.94504809499710       -1.59463289371674
C            4.84434647214474        1.63554219377102       -2.96292166573886
O            3.85292552049346        2.05191074114487       -3.62145902752316
O            6.03195050661883        1.79936637637994       -3.26903771876175
H            1.06068193616715        0.78675383317898        0.44751958761243
H            1.12024830883565       -0.72910312018785       -0.20217797955913
H            3.50567683894105       -0.84861277049659        0.14718273979377
H            3.44450421344407        0.75870358207783        0.87918753632099
H            2.64301716596324        1.71743102954860       -1.28647323023624
H            2.68627148425971        0.12107716255242       -2.01683712489407
H            5.13354953916407       -0.00264756733325       -1.64089096216921
H            5.10655020957896        1.57128046469074       -0.86075106381100
H            1.46186654274492       -0.51596546282170        1.41512336654925
O           -1.66813025946594        1.39164125018436        2.06632609133200
H           -0.73067711346839        1.75555850164176        2.29676051414216
H           -2.03016618031023        2.11369316329320        1.51684091975794
O            4.21194420705001        4.53699527939368       -5.09919797882112
H            4.09638386419549        3.63584114504385       -4.73441526450057
H            4.83263121890190        4.98857433740443       -4.51656299818536
22
 energy: -34.387361857113 gnorm: 0.027725154234 xtb: 6.7.1 (edcfbbe)
N            1.56284619826643       -0.10830722173656        0.47903409815192
C            2.99242425470096        0.10824877718958        0.13376106839473
C            3.12945878578259        0.74693557678445       -1.24466908900536
C            4.59645716523535        0.94629156395377       -1.59949196703077
C            4.85280310193094        1.63812844436953       -2.97084805149153
O            3.86212894895705        2.09278266238943       -3.61068739901389
O            6.05276063802637        1.80901259595556       -3.26670135989234
H            1.06167368346633        0.78474171688063        0.44330175060237
H            1.12582176975527       -0.73495405951440       -0.20626665044792
H            3.51172387462100       -0.84901886271272        0.14272103764285
H            3.44730647893979        0.76054179720713        0.87824278563633
H            2.64426036116025        1.72249243204463       -1.28785634336704
H            2.68624193253761        0.12268712617857       -2.02079247714619
H            5.13111919691338       -0.00363067926822       -1.65213803087854
H            5.10908587481191        1.56928316289777       -0.86214226872828
H            1.46605936710594       -0.51878749000504        1.41445170835978
O           -1.66343966227169        1.46856060108422        2.13136748021904
H           -0.74053623145337        1.70172861748967        2.24512111030713
H           -2.04425213241669        2.09405367179437        1.50673511535156
O            4.18928248466565        4.51030068664989       -5.08774644476816
H            4.07139931061562        3.61778119111526       -4.69042859525516
H            4.83239854594985        4.98033282435311       -4.53399026914097
22
 energy: -34.386574163892 gnorm: 0.037348306320 xtb: 6.7.1 (edcfbbe)
N            1.56427244783267       -0.10937370346686        0.46997805061517
C            2.99186992826710        0.10800011573751        0.12696889350630
C            3.13267833176355        0.75038712387030       -1.25022831329107
C            4.60181793229668        0.96123491733617       -1.59432591115025
C            4.85124365878281        1.71834670545738       -2.92930440127179
O            3.86935307834862        2.06615040104040       -3.61584395096633
O            6.05666873026394        1.76464288643597       -3.30066553591595
H            1.06070764846021        0.78398737910432        0.43724326176625
H            1.12826067741994       -0.73943858741851       -0.21467505364101
H            3.51399744224653       -0.84897038341987        0.13716003416199
H            3.44623258841200        0.75892799405623        0.87483998028252
H            2.64071452496584        1.72378261991502       -1.28566498403693
H            2.68660545006251        0.12790040207125       -2.02811548872421
H            5.14077342615834        0.01124781385501       -1.66199936522708
H            5.10286127403387        1.56982377735814       -0.83838888346014
H            1.46973420950027       -0.51971220663695        1.40706475110802
O           -1.66064198616980        1.46364727985177        2.13106648248914
H           -0.74158636996377        1.71793224767807        2.25046500179408
H           -2.05200397070227        2.08757350283957        1.51108762112331
O            4.16442684315644        4.50370166475527       -5.06341143718539
H            4.08650149620890        3.60526833731469       -4.70441981603703
H            4.82253658595608        4.95414484736575       -4.51785372744010
22
 energy: -34.389012266309 gnorm: 0.014039347721 xtb: 6.7.1 (edcfbbe)
N            1.56624672852975       -0.11122837948383        0.46393210636891
C            2.99493687776606        0.10980601538499        0.12183604361109
C            3.13683923263277        0.75233181666780       -1.25460538432511
C            4.60680811863581        0.95570335776026       -1.59857735662979
C            4.85997343897379        1.68896945896927       -2.94835978227731
O            3.87075599967277        2.10643917565633       -3.59564505807701
O            6.05390194335860        1.81079156118115       -3.27935533455968
H            1.06058817830327        0.77997080491016        0.42861323011460
H            1.13287287228100       -0.74180294315352       -0.22084080680366
H            3.51727925239617       -0.84615739533021        0.13107366526916
H            3.44672362343907        0.76046126547900        0.87023911905727
H            2.64744285220584        1.72654278301448       -1.29161868704364
H            2.69034830271015        0.13022604535545       -2.03137680481027
H            5.14296671071026        0.00656733929954       -1.66570507267464
H            5.11121548115558        1.56679679698761       -0.84698705144300
H            1.47044879757760       -0.52075628045543        1.40040424408221
O           -1.65673983863645        1.44793057945982        2.12210616807582
H           -0.74553018007693        1.74850310898838        2.26706817711655
H           -2.06772739558401        2.07502723170456        1.51715720848463
O            4.15713600429819        4.48230154840639       -5.05586929797942
H            4.06137175563754        3.59193113933740       -4.66958814763267
H            4.81916519131374        4.93885010496123       -4.52292396942457
22
 energy: -34.389384325807 gnorm: 0.023213873724 xtb: 6.7.1 (edcfbbe)
N            1.56953911948522       -0.11533581537320        0.45132605093072
C            2.99876277784069        0.11050262102383        0.11374324582194
C            3.14408036001149        0.75654121690174       -1.26053033593692
C            4.61481719689182        0.95704931430288       -1.60032023603066
C            4.86966727697809        1.70248957453840       -2.94527093886552
O            3.87573488025788        2.15124119347596       -3.56985569926724
O            6.06301943085745        1.82242148614360       -3.27882536744765
H            1.05985602157551        0.77365184489999        0.41371248286286
H            1.14090389243435       -0.74857780868068       -0.23410088365374
H            3.52358780829242       -0.84426390073745        0.12175418884255
H            3.44685003517569        0.76074299830816        0.86483821001741
H            2.65722552201763        1.73237280764840       -1.29726083301442
H            2.69830100904898        0.13727027962364       -2.04024536240302
H            5.14701517098242        0.00692441729348       -1.67862760392166
H            5.12155093649968        1.55940266949051       -0.84262779190713
H            1.47209965995497       -0.52380478725468        1.38814112929513
O           -1.64938635778542        1.42739482812622        2.11203896304000
H           -0.75607018021675        1.77892081723599        2.27724135607131
H           -2.09084652826882        2.07025225941864        1.53858732943629
O            4.15195724473991        4.44611183609361       -5.05804491369838
H            4.00459182855370        3.57638148735127       -4.59266535233841
H            4.81376684197383        4.92151579527083       -4.54203042933403
22
 energy: -34.389702326773 gnorm: 0.035594867187 xtb: 6.7.1 (edcfbbe)
N            1.57035685136936       -0.12067109983778        0.42633559099211
C            3.00083800971898        0.11078621266785        0.10083198503994
C            3.15661078290263        0.76205161279982       -1.26943753846192
C            4.63003068764462        0.95714213512433       -1.59912391720726
C            4.88015796096724        1.72063992721421       -2.93367618759544
O            3.87621490510700        2.20937644640737       -3.52017836197462
O            6.06894775151015        1.84896937878709       -3.27913187008872
H            1.05494283188560        0.76529028772793        0.38520746428703
H            1.15030131452544       -0.75814800001745       -0.26092427070427
H            3.52874251138539       -0.84259047408258        0.10799174418982
H            3.44214866551933        0.75972830386064        0.85743570038828
H            2.67388489132032        1.74073368129662       -1.30656972200243
H            2.71235880440953        0.14780791837623       -2.05468761670201
H            5.15634311150638        0.00571576211420       -1.69327553065062
H            5.13801161026097        1.54647942327851       -0.83101331782659
H            1.46812100464874       -0.52759111332925        1.36361300470284
O           -1.64043733860054        1.40669258593804        2.09772829483767
H           -0.77718585849687        1.82374920365905        2.30648181357056
H           -2.11291258625325        2.06397896569693        1.56163412781292
O            4.07925200608238        4.41834094046893       -4.99903560231076
H            4.00343005801467        3.54505303737386       -4.56735792848772
H            4.81686597187247        4.87566999957684       -4.55187065330952
22
 energy: -34.390131104177 gnorm: 0.033365125092 xtb: 6.7.1 (edcfbbe)
N            1.56944000182471       -0.12392981876329        0.40539783738678
C            3.00116794128727        0.10856353323858        0.09598433740707
C            3.17162285544524        0.76120227808691       -1.27121267979055
C            4.64910200777905        0.95391648668121       -1.58786533343542
C            4.87994189928529        1.72180753237959       -2.91251951527953
O            3.86496833743921        2.18731671433723       -3.48228491113821
O            6.05711688987993        1.87664701221001       -3.28392576289887
H            1.05115292475741        0.76047525463282        0.36193911532090
H            1.15693201758756       -0.76435224460474       -0.28390624457269
H            3.53048979550273       -0.84395950769221        0.10514514208987
H            3.43621195364406        0.75641565383280        0.85728490173876
H            2.69057413850910        1.74127260417181       -1.31195338857869
H            2.72999810049474        0.15045863455524       -2.06098092061272
H            5.17662454235599        0.00469552740465       -1.68530114514581
H            5.14996465830319        1.54078289047304       -0.81397722216854
H            1.46073954845704       -0.52980323738887        1.34274410215479
O           -1.64619362218452        1.41484698915920        2.09113987159606
H           -0.80629390870444        1.83774138885279        2.34374781426442
H           -2.10784218132085        2.05058320907402        1.54687079517554
O            4.09155812622841        4.43701235343841       -5.01019570357036
H            3.99879072853936        3.56370764872312       -4.59937734830448
H            4.77095719218995        4.85380423229934       -4.50577653313874
22
 energy: -34.390983345723 gnorm: 0.016618518289 xtb: 6.7.1 (edcfbbe)
N            1.56568368155301       -0.12805554426367        0.39485332174979
C            2.99986928216744        0.10327923001809        0.09706545056211
C            3.17925577507386        0.75654400591102       -1.26813476780924
C            4.65700832313244        0.95229574317571       -1.58208026609852
C            4.87958816211329        1.73052657336427       -2.90005094226918
O            3.86291408485401        2.16390544474261       -3.47763857830930
O            6.05352684501001        1.87949939745373       -3.28426982838419
H            1.04866128968194        0.75665378902298        0.34754616137120
H            1.15776925002181       -0.76712574527858       -0.29795302260883
H            3.52858655873046       -0.84907925444828        0.10922941240626
H            3.42956732164044        0.75048507614153        0.86155462044232
H            2.69988168306396        1.73672143768974       -1.31096655004745
H            2.74156506037947        0.14891552713049       -2.06187750664147
H            5.18868267528565        0.00543226688671       -1.68080974836857
H            5.15414215604927        1.53653557710385       -0.80493278323463
H            1.44874275834039       -0.53418161141031        1.33102240236622
O           -1.63975007857307        1.42303791666446        2.09859147516404
H           -0.81276134725036        1.84481242959627        2.34374603081949
H           -2.12532005162332        2.04195613946649        1.55146177039615
O            4.07044364728825        4.44655828275840       -5.00815820372343
H            3.97193641911376        3.58178663082498       -4.55061750885694
H            4.81703045124748        4.87870182255135       -4.56660373042638
22
 energy: -34.391453180015 gnorm: 0.027163709736 xtb: 6.7.1 (edcfbbe)
N            1.56468307118502       -0.13785663221498        0.37287158167810
C            3.00290909968753        0.09606774503903        0.09272925381169
C            3.19393395744415        0.75453499765516       -1.26797873662327
C            4.67114367919489        0.95087047312291       -1.58194803222751
C            4.88834200638559        1.75859349439317       -2.88851487594661
O            3.86477324115691        2.22234063083727       -3.44376746013454
O            6.06245355335072        1.89165046875576       -3.28313975812725
H            1.04623405915481        0.74556107278805        0.31807802643721
H            1.16657325281664       -0.77674147775298       -0.32555758717791
H            3.53232522330129       -0.85560875390110        0.10761445969267
H            3.42223361471823        0.74192700587628        0.86398890456620
H            2.71948946627516        1.73652787866033       -1.30998343086501
H            2.76020195475049        0.15333488629989       -2.06843057346382
H            5.19924814000627        0.00292470310321       -1.69742899572159
H            5.17348944687682        1.51825708261632       -0.79440030074954
H            1.43501008299612       -0.54357742542819        1.30743236737228
O           -1.61852091243378        1.39761870701825        2.08735563505187
H           -0.82573891387933        1.90554547223980        2.36139040616524
H           -2.17402190498498        2.01383958963518        1.57543754655540
O            4.05199023932911        4.43517966733313       -5.00009222007765
H            3.93064928989548        3.58283827815496       -4.50573372697041
H            4.80962230007302        4.86537727087088       -4.57894527474598
22
 energy: -34.392005282007 gnorm: 0.015397363028 xtb: 6.7.1 (edcfbbe)
N            1.56268977328103       -0.14596199462931        0.35815446476775
C            3.00386275057027        0.08839163864646        0.09180018307885
C            3.20222395552225        0.75083161457361       -1.26581339568107
C            4.67886095640861        0.94939671645639       -1.58121571902347
C            4.89324059401893        1.77175408654347       -2.88152844648000
O            3.86787226306631        2.26272695264191       -3.42263275026100
O            6.06891083470791        1.90110799495258       -3.27853974759441
H            1.04476981678778        0.73752405989489        0.29777641408049
H            1.17148132307087       -0.78428149427971       -0.34478652331396
H            3.53311095310882       -0.86346537294954        0.10974027589363
H            3.41547188075178        0.73307564252833        0.86833097878897
H            2.72945767026439        1.73349152580750       -1.30570056456509
H            2.77113488351004        0.15253162305817       -2.06976006793388
H            5.20464470330031        0.00085511359421       -1.70759376735547
H            5.18601997977775        1.50614789127799       -0.78800629530222
H            1.42278425494022       -0.55130015444044        1.29140975813222
O           -1.62610491892044        1.40331402523400        2.07587572568685
H           -0.85421259921008        1.89959967791212        2.39396303670042
H           -2.15840953168431        2.02370409069284        1.57004353024005
O            4.03471374028622        4.44145745710388       -4.98891540344143
H            3.92102697402778        3.59012219130870       -4.50188324209992
H            4.80347368971353        4.85818184917458       -4.57974123581768
22
 energy: -34.392498519425 gnorm: 0.016633232152 xtb: 6.7.1 (edcfbbe)
N            1.55653298253714       -0.16118958716147        0.32769516416474
C            3.00284063570590        0.07338827788054        0.08992027199685
C            3.21727257387889        0.74125635774174       -1.26223026132794
C            4.69542886432100        0.94727726490546       -1.56987995528794
C            4.90200996742635        1.78300509355431       -2.85865286327134
O            3.87561522133225        2.27044546795821       -3.39021014159689
O            6.07226732378865        1.93546626329369       -3.25945267549979
H            1.03996392382180        0.72256136525197        0.25688380350833
H            1.17889836091824       -0.79905351660174       -0.38335801207972
H            3.53210851759661       -0.87853229307501        0.11465280039899
H            3.39958691662418        0.71563707463618        0.87638854690266
H            2.74366546624367        1.72361097236095       -1.30075816604658
H            2.79294002993860        0.14548866648401       -2.07127319325682
H            5.22628046386972        0.00378521317937       -1.70949280916903
H            5.20037833076970        1.49561248691059       -0.77063765960388
H            1.39664995437459       -0.56534354308533        1.25831432639403
O           -1.60995013095320        1.39328342528513        2.05872810367775
H           -0.88684261277641        1.91516980021996        2.40701278274285
H           -2.18138477129210        2.03092698529893        1.60140889329151
O            4.00521659824703        4.47485820070092       -4.97590755806321
H            3.91754445446565        3.62575713863791       -4.50213411351566
H            4.80000087646133        4.86579402072687       -4.59604007585897
22
 energy: -34.392443782315 gnorm: 0.048132038295 xtb: 6.7.1 (edcfbbe)
N            1.54705457973092       -0.18675130877354        0.27843909969222
C            3.00094263289712        0.04916758780957        0.08553206197425
C            3.24017399587114        0.72616623657875       -1.25766060727899
C            4.72078044469889        0.94453440504280       -1.55182387406086
C            4.91882390950239        1.80835952797302       -2.81793525142684
O            3.89402423426898        2.28802628467179       -3.33671285956813
O            6.08136077343434        1.98888714500830       -3.22382291186215
H            1.03217880934448        0.69691904351093        0.19019517191391
H            1.19171734243024       -0.82428131712554       -0.44481614562104
H            3.53058282921029       -0.90250594590870        0.12056018715783
H            3.37394230860651        0.68665064333320        0.88777004359331
H            2.76408776011659        1.70751547197622       -1.29337666033660
H            2.82637653796119        0.13449115828089       -2.07439014029281
H            5.26012105401206        0.01034495698562       -1.71654568964896
H            5.22140500385102        1.47691228494397       -0.74137310892106
H            1.35496543260298       -0.58841103519799        1.20420559223033
O           -1.58771915799379        1.39408624562380        2.02547479576345
H           -0.95409487414251        1.98867493565103        2.51015087177866
H           -2.19814747737770        1.96737583463046        1.56983186904434
O            3.95188458872149        4.51852995339831       -4.95587715995272
H            3.89819289333099        3.68426236802635       -4.45835743760960
H            4.80837032622134        4.89025065866512       -4.65849063806817
22
 energy: -34.393543801029 gnorm: 0.020114423434 xtb: 6.7.1 (edcfbbe)
N            1.54909350467220       -0.19199898247220        0.28394427362445
C            3.00219003587464        0.04406618388870        0.08760495236256
C            3.23651782769942        0.72323328670620       -1.25521242331159
C            4.71458844304557        0.94519749419040       -1.55528884276024
C            4.92008529571010        1.82375328608524       -2.81784029581158
O            3.90160102355810        2.32500352476045       -3.34200415110162
O            6.09010638330118        1.97632744382555       -3.21482997669667
H            1.03678300861951        0.69267717866989        0.19488298539215
H            1.19318691903263       -0.82738122916384       -0.43967952425983
H            3.53093408191055       -0.90783897281093        0.12146902026339
H            3.37566556769466        0.68022250923821        0.88932926098678
H            2.75696490524051        1.70265240454661       -1.28668242692152
H            2.82236418776193        0.13123931451510       -2.07135836348630
H            5.25238720795988        0.01046132678300       -1.72729212546038
H            5.21927711677786        1.47142229736054       -0.74256104894758
H            1.35600501428546       -0.59458382331723        1.20773094989589
O           -1.57235933522744        1.40586015276856        2.03997304601957
H           -0.94436637264362        1.99083583299580        2.48648703877135
H           -2.22211060395895        1.93600097027655        1.56313829011903
O            3.98336553267509        4.50992720033674       -4.98416990144216
H            3.89939815040668        3.68810599051021       -4.43837942478402
H            4.77534605290309        4.92402174541120       -4.65828410395110
22
 energy: -34.393687600994 gnorm: 0.026978438730 xtb: 6.7.1 (edcfbbe)
N            1.54586136947439       -0.20473237911999        0.26809117428450
C            3.00002867928482        0.03441844960766        0.08215277170030
C            3.24293216909347        0.71982599887859       -1.25659170804350
C            4.72177293247958        0.94132138391101       -1.54913133563725
C            4.93047403415350        1.84210144281196       -2.80137285184154
O            3.90829187875462        2.37990852305499       -3.30695414627970
O            6.10425998427734        1.97945164341771       -3.20008648274333
H            1.03328668072159        0.67947338255001        0.17620106022777
H            1.19739988971786       -0.83927507940633       -0.45991577296713
H            3.52939669707671       -0.91701783160730        0.11415152152093
H            3.36760479022698        0.66772623585797        0.88888300692206
H            2.76360977376192        1.69968390930361       -1.28737336384991
H            2.83264837978970        0.13195651677934       -2.07891965199632
H            5.25394249354575        0.00565884744041       -1.73485756755521
H            5.22738576809036        1.45426849175398       -0.72609029468263
H            1.34465977352482       -0.60918371661310        1.18913967153467