34
 energy: -56.705539418750 gnorm: 0.000552447094 xtb: 6.7.1 (edcfbbe)
H            1.07362757821984        1.23451723398940        0.06048850724821
C            0.57222629245724        0.51824947596938       -0.59372496136992
H            0.28550062403113        1.91837541439670       -2.10876605680998
H            1.32716416027383       -0.03155620415266       -1.15530669739229
N           -0.28231847917439        1.26361774922711       -1.53517225918845
H            0.21026212513713       -1.44383473006502        0.30377081955126
C           -0.23335687459187       -0.44965220007056        0.27611274587634
O           -0.56118365647186        1.22884449807788        1.96478827865083
C           -0.37055062945120        0.01389125328501        1.74373409056842
H           -0.98908412693989        1.82433839111203       -0.98786582036262
O           -0.29525155463003       -0.87584590688896        2.62275149805456
H           -0.80596413970833        0.62197716186936       -2.15509597225823
H           -1.25550913538828       -0.54316313670219       -0.09391421996491
O           -2.11579710186821        2.43113192369693        0.07442119740607
H           -1.62401957132011        2.14872101695643        0.87227246159100
H           -2.78156085786125        1.73923436740924       -0.08042942959896
O           -1.97321479523949       -0.26920652655820       -3.24732846758849
H           -1.72963540876912       -1.14489113965067       -3.56252975394217
H           -2.20170173379221        0.25757432667687       -4.02062995871951
O           -0.72992537022243       -0.63175570658295        5.27758757670182
H           -0.57170641217933       -0.63594868212665        4.30488502447998
H           -0.64628111588517       -1.55086602288943        5.55044434513443
O            0.16542449559897        1.48360659217527        6.92298919618051
H           -0.14248687821691        0.73168639342968        6.38745145743943
H           -0.02228635056780        2.26712726850469        6.39688553307660
O            1.16499574021999        3.16839302176712       -2.96880801247949
H            1.78602997506413        3.69238607948338       -2.45526892176991
H            0.60967370819336        3.78143867610666       -3.46163456517725
O           -3.40717801808004        0.09031664320054       -0.82431596738145
H           -3.05005217697946       -0.05200837155201       -1.71946202227734
H           -4.31114935841934       -0.23271424424714       -0.83003388612992
O            1.79843185176750       -0.24229631722399       -6.34269183330567
H            2.11873520043831        0.55109290671051       -6.78183780788969
H            2.44992599443885       -0.47755120534703       -5.67462911835110
