28
 energy: -44.589867154984 gnorm: 0.015988874763 xtb: 6.7.1 (edcfbbe)
N           -0.46092924910000        1.49749506640000        0.16113773210000
C            0.53156866650000        2.37854224080000       -0.48260140270000
C            0.37894071620000        2.37513035310000       -2.00189171680000
C            0.91558013550000        1.11014203840000       -2.68478042540000
C           -0.04187080130000       -0.09557310260000       -2.74592325260000
O           -0.04532809200000       -0.76909448750000       -3.79255339300000
O           -0.74511484300000       -0.35731309780000       -1.73532775810000
H           -0.13944575710000        1.21595153400000        1.11732004170000
H           -1.37397563870000        1.94764035370000        0.22255511910000
H            0.41216613050000        3.39395527240000       -0.10463163330000
H            1.52849394780000        2.02609503100000       -0.21638712590000
H            0.93444407880000        3.22357920970000       -2.40210771190000
H           -0.66985632520000        2.51043961090000       -2.27268319820000
H            1.82015363370000        0.76092623540000       -2.17990787090000
H            1.18391629620000        1.32513619220000       -3.72079626130000
H           -0.57619396980000        0.64501958630000       -0.45413741080000
O           -3.63516755480000        4.20034924400000        1.86697854940000
H           -3.13906421990000        3.71710468790000        1.19959620850000
H           -4.51973878760000        3.82121155790000        1.88930103150000
O            0.57095445820000        0.87306255050000        2.60531333130000
H            0.63163443610000       -0.08478844060000        2.77174872550000
H            0.26254095420000        1.27695200620000        3.42166945220000
O           -2.54467611850000       -2.35308231020000       -0.92617812140000
H           -1.88234383640000       -1.71559537080000       -1.25072953010000
H           -3.21355407870000       -2.41255277560000       -1.61380022580000
O           -1.59090249340000       -1.38381574190000       -6.05280291200000
H           -1.05806595460000       -1.13298285900000       -5.28011570700000
H           -1.35227176020000       -2.29705111950000       -6.24281671870000
28
 energy: -44.590258941867 gnorm: 0.006627780334 xtb: 6.7.1 (edcfbbe)
N           -0.45338514420911        1.49397085328374        0.15717339041838
C            0.53666066789269        2.37906133228100       -0.48494378140781
C            0.38200843971954        2.37508029244453       -2.00378877084238
C            0.91797643444586        1.10934545531552       -2.68590396140227
C           -0.03863603018493       -0.09722974527654       -2.74505525372975
O           -0.04593242082175       -0.76927526657578       -3.79231229098943
O           -0.74572616699786       -0.35413959123060       -1.73553900409581
H           -0.13594583397102        1.21632109718919        1.11465866439410
H           -1.36750451805661        1.93948856932459        0.21392104172445
H            0.41485458189217        3.39389138949352       -0.10608225203205
H            1.53396363623115        2.02825506477814       -0.21891435908322
H            0.93650041896936        3.22384917868050       -2.40438791404173
H           -0.66700464435785        2.50978222878223       -2.27409807608272
H            1.82273334506346        0.76011030458440       -2.18152292130180
H            1.18556448773035        1.32354016313099       -3.72216078477074
H           -0.56465389059085        0.63988404855359       -0.45751660338020
O           -3.64763602120798        4.21111504207569        1.86994842926918
H           -3.17798292576636        3.74290344631382        1.17249318608046
H           -4.52945742260126        3.82840143060223        1.91947664266684
O            0.56427646289737        0.85336869241813        2.60753136378301
H            0.63560288125524       -0.09295520891531        2.78601725026470
H            0.26214107221264        1.27343343395223        3.41928409791057
O           -2.54955837792455       -2.34035925015384       -0.91521130433074
H           -1.87733184625704       -1.71794479513770       -1.24948347345803
H           -3.20700096839979       -2.41805961783805       -1.61281317588154
O           -1.59163339143294       -1.38407343811167       -6.05201180466222
H           -1.05788316035125       -1.13389961722483       -5.27978716966229
H           -1.35311569177905       -2.29698202744004       -6.24352334995667
28
 energy: -44.590669484943 gnorm: 0.021999440125 xtb: 6.7.1 (edcfbbe)
N           -0.43155303685778        1.48369387742119        0.14923358712060
C            0.55159765650024        2.37830618350609       -0.49074176932839
C            0.39182749749212        2.37523702562637       -2.00862568160073
C            0.92468198612601        1.10863976777472       -2.69149847878367
C           -0.03855136300176       -0.09288057207307       -2.75084860789621
O           -0.04112211241905       -0.77222049066453       -3.79268325654599
O           -0.73409232638295       -0.35501905088783       -1.73400759117653
H           -0.12252387245557        1.21088925683716        1.10763203183371
H           -1.34901700760192        1.91880669861211        0.19783996717615
H            0.42428253320781        3.39129882997107       -0.10851050257264
H            1.55102310394863        2.03198324610155       -0.22826168417309
H            0.94463821985282        3.22402013357770       -2.41109312711486
H           -0.65795017077817        2.50951648406141       -2.27627929558173
H            1.82937504801904        0.75657878942010       -2.18888460183262
H            1.19074108456987        1.32211458153162       -3.72803620033504
H           -0.53717955330161        0.62733338768924       -0.46702239429935
O           -3.68118022184133        4.24184263339307        1.87354710031172
H           -3.29872379178068        3.81763758626332        1.08255531160792
H           -4.55582194704823        3.85120770919701        2.01261934374810
O            0.55224476984984        0.80502848711208        2.61752726643718
H            0.63898469768001       -0.12076670268384        2.82219730571675
H            0.25747743872426        1.26352134679041        3.41418532817547
O           -2.55680978534142       -2.31401991341171       -0.88898180690168
H           -1.87352953584671       -1.71178157718129       -1.23942698761732
H           -3.19179789981991       -2.43133662024642       -1.60489830813393
O           -1.59216437697674       -1.38586142059456       -6.04993430299949
H           -1.05718293344240       -1.13824743853544       -5.27783136340267
H           -1.35578012767595       -2.29863877330896       -6.24432346643035
28
 energy: -44.590984538602 gnorm: 0.012905101090 xtb: 6.7.1 (edcfbbe)
N           -0.42493054359203        1.48042108995511        0.14728527528728
C            0.55665831604081        2.37656464354034       -0.49281738386448
C            0.39478104787853        2.37439317266799       -2.01058791252132
C            0.92788634518745        1.10804840565489       -2.69428578324593
C           -0.02765886501488       -0.09974664487075       -2.74991619927436
O           -0.04057586973623       -0.77116995068860       -3.79674688119777
O           -0.73155939645444       -0.35559514013517       -1.73723337992557
H           -0.11655880635136        1.20426992074447        1.10412022698982
H           -1.34343219250131        1.91458263413116        0.19689573787425
H            0.42859384390545        3.38899385742080       -0.10935034391317
H            1.55721327386928        2.03139805038277       -0.23273031938135
H            0.94658105061714        3.22359587323847       -2.41381952207102
H           -0.65548927679604        2.50834720259145       -2.27636066800894
H            1.83386112698341        0.75810783478161       -2.19280471200460
H            1.19229840655426        1.32179148873075       -3.73128452805536
H           -0.53139069211450        0.62505963300734       -0.47148511160008
O           -3.70198644967381        4.25109739061874        1.87845955278137
H           -3.32433680234453        3.83566711900860        1.08859247563124
H           -4.57453064063999        3.86422523898220        2.00762344868787
O            0.54693060679312        0.79583760917980        2.62153654710736
H            0.64582283821621       -0.12967525090415        2.83651278748675
H            0.25294938845744        1.26125769962008        3.41361298549977
O           -2.55462654363665       -2.31268551242926       -0.88460473593288
H           -1.87621274216011       -1.70459791122112       -1.23190797154375
H           -3.18981546861813       -2.43062517379100       -1.59837381813359
O           -1.59380487211404       -1.38634187845590       -6.05069400733596
H           -1.05828797489152       -1.13739250466784       -5.27941201742527
H           -1.35648513446526       -2.29894543179439       -6.24477592650877
28
 energy: -44.591467280730 gnorm: 0.007673076176 xtb: 6.7.1 (edcfbbe)
N           -0.40444737112850        1.46990826173133        0.14116238488140
C            0.57281731003377        2.37091673082839       -0.49824051813846
C            0.40503696343239        2.37228013563737       -2.01556794523785
C            0.93648518116988        1.10740994580097       -2.70365691144595
C           -0.01680504654900       -0.10218558801432       -2.75803968607965
O           -0.03400493068632       -0.77063406137550       -3.80649255377628
O           -0.71628115202078       -0.36214737633039       -1.74305077364758
H           -0.09888415675842        1.18502535739460        1.09408363072003
H           -1.32526954542144        1.90113035387645        0.19309635554582
H            0.44296697924754        3.38181306681329       -0.11129107024212
H            1.57602612876662        2.02847319845920       -0.24419041952341
H            0.95548857416784        3.22199304989794       -2.41977079068563
H           -0.64622515960523        2.50699275063075       -2.27693713995165
H            1.84431784949414        0.75753918608912       -2.20543416439820
H            1.19768976668631        1.32314918034847       -3.74113023824096
H           -0.51270338210577        0.61703330251833       -0.48409057273903
O           -3.75400117567146        4.27897980683156        1.88742186810812
H           -3.42691320799273        3.89883658754389        1.06200743422003
H           -4.62104329605655        3.89746307653404        2.03952982285964
O            0.53102572426009        0.76634636753091        2.63369474265152
H            0.66494011968800       -0.15368826538385        2.87689530724100
H            0.23936544836480        1.25082732656968        3.41335924173267
O           -2.55524512085399       -2.29664031787028       -0.86323878728655
H           -1.87640388680798       -1.69138239413761       -1.21288083521350
H           -3.17965542443104       -2.43320987502069       -1.58187419367776
O           -1.59784139346649       -1.38928877656457       -6.05111161635852
H           -1.05880349290937       -1.13853627709382       -5.28290275662884
H           -1.35973832944871       -2.30152128794758       -6.24590199928592
28
 energy: -44.591915826623 gnorm: 0.024664364939 xtb: 6.7.1 (edcfbbe)
N           -0.36987900397388        1.45218265991690        0.13359675301094
C            0.60022640433742        2.35985780857325       -0.50625149705497
C            0.42263562453848        2.36780170568015       -2.02290045485842
C            0.95165508312867        1.10634592467311       -2.71961375635203
C            0.00294048385542       -0.10664032427388       -2.77210874079586
O           -0.02277009514770       -0.76835420977197       -3.82464783421326
O           -0.68974607008776       -0.37353533618404       -1.75380351894642
H           -0.06566276561344        1.15292200613802        1.07978966684722
H           -1.29295201409457        1.88082268039896        0.19361574683709
H            0.46877311498202        3.36854270960073       -0.11405696216789
H            1.60741914965824        2.02115490565296       -0.26211618398628
H            0.97033928235794        3.21915483963673       -2.42775211005016
H           -0.63034195657532        2.50347919338195       -2.27661366266249
H            1.86330641381529        0.75687495758438       -2.22797996250670
H            1.20630942905784        1.32645886865738       -3.75794952357829
H           -0.48292057142466        0.60351610954729       -0.50138495268657
O           -3.83525017422111        4.32300140654509        1.89681421514349
H           -3.61724389104670        4.00986079675570        0.99139880979950
H           -4.69424688990781        3.94782685722694        2.12065310596392
O            0.51786927514997        0.72428086925882        2.65546435858734
H            0.67575970520648       -0.18802268389366        2.92557390746805
H            0.21982911663682        1.22756357807485        3.41717106454321
O           -2.55871396062210       -2.26429562992132       -0.82399102045353
H           -1.87344501739423       -1.67201152611617       -1.18253739484017
H           -3.16043181322432       -2.44020596638573       -1.55473193530325
O           -1.60501255812889       -1.39475953274242       -6.05312104196366
H           -1.06137270358711       -1.14038421400332       -5.28930052480923
H           -1.36517962427839       -2.30655498871414       -6.24776873556773
28
 energy: -44.592532606200 gnorm: 0.014799525576 xtb: 6.7.1 (edcfbbe)
N           -0.34800087929456        1.44000945500234        0.13242865167986
C            0.61887127689908        2.34826314037599       -0.51012530603301
C            0.43508067858694        2.36275648103434       -2.02652090936640
C            0.96120208487611        1.10591453146458       -2.73314771616162
C            0.00249646283712       -0.09825934582627       -2.79187809931633
O           -0.01174650279427       -0.76722769944133       -3.84005614904410
O           -0.66387569475517       -0.38853786160013       -1.76136790077079
H           -0.03766540619571        1.12797027380657        1.07268584382626
H           -1.26980330773134        1.87252484152676        0.20704002613378
H            0.49003260317089        3.35624600388061       -0.11547680663205
H            1.62789251012675        2.00984766536025       -0.27257261130061
H            0.98196836358885        3.21547146387260       -2.42972221885661
H           -0.61883258053726        2.50049421364006       -2.27500738070610
H            1.87527679387888        0.75301046109033       -2.24762515305876
H            1.21089412065716        1.33183129376372       -3.77154252992788
H           -0.46883751542455        0.59566109590908       -0.50814424610198
O           -3.89986418897537        4.34511180976843        1.90880907987501
H           -3.71998121282515        4.06516532105250        1.00119519231749
H           -4.76205248365929        3.98801582637154        2.12977807177741
O            0.52705750537967        0.71606717122241        2.67024381737928
H            0.66075300192709       -0.19842083371367        2.93430459408363
H            0.21121876391879        1.20935166170780        3.42549291046362
O           -2.56192881056126       -2.24048551493012       -0.79716205507659
H           -1.86631650714340       -1.66415093163627       -1.16445980829439
H           -3.14812745585364       -2.44251051947761       -1.53517722801104
O           -1.61042979185684       -1.39722443592372       -6.05777881871728
H           -1.06412380743294       -1.14134078578942       -5.29624134428632
H           -1.36926404740993       -2.30867131721482       -6.25252409046994
28
 energy: -44.592993377125 gnorm: 0.015155425954 xtb: 6.7.1 (edcfbbe)
N           -0.32399951767866        1.42416911422086        0.13007140006356
C            0.63867825555721        2.33571066048158       -0.51408930390349
C            0.44779277631393        2.35613671026410       -2.02984828056441
C            0.97282136143099        1.10379721009225       -2.74524991669779
C            0.01989637429151       -0.10463112644103       -2.80163979842567
O           -0.00636872153487       -0.76372445658356       -3.85648037940189
O           -0.64611942294656       -0.39580559173371       -1.77194305343987
H           -0.00673257859865        1.10533657619913        1.06582794350680
H           -1.24438416641753        1.85757619467754        0.21847893473502
H            0.51053889876682        3.34261754395459       -0.11620680780182
H            1.64933724413959        1.99827158478383       -0.28231033499097
H            0.99119754661618        3.21213255631840       -2.43093863365868
H           -0.60746932366417        2.49311817904411       -2.27267895661491
H            1.89135990498236        0.75203228219398       -2.26740592028229
H            1.21482207520215        1.33515269331072       -3.78442489663959
H           -0.44864484875847        0.58328356828538       -0.51348421979496
O           -3.96394435711343        4.36980108313549        1.91735879057900
H           -3.84604958538228        4.13495935331890        0.98158141538252
H           -4.82884985648021        4.02784597133425        2.17038208405511
O            0.54002275394078        0.70217639803212        2.67892933413593
H            0.63885828390130       -0.21333234565695        2.94883381193263
H            0.20625180334653        1.20212895239596        3.42527166009746
O           -2.55547848574418       -2.22324711831940       -0.77538077534248
H           -1.85905643496321       -1.65357356909091       -1.14973255504356
H           -3.14249747409776       -2.43331838201104       -1.50405422232311
O           -1.61891140689764       -1.40052806574015       -6.06226665714872
H           -1.06823090835994       -1.14068235547146       -5.30505255788826
H           -1.37294621645523       -2.31052015569858       -6.25810028912017
28
 energy: -44.593424808921 gnorm: 0.016549418237 xtb: 6.7.1 (edcfbbe)
N           -0.29897886879964        1.40249275735490        0.13036787428435
C            0.66143298638774        2.31602926173339       -0.51574646147223
C            0.46293091776941        2.34462045486364       -2.03036878967196
C            0.98790363413403        1.09964327879019       -2.75822550655039
C            0.04939226475425       -0.12013868310904       -2.80865101513396
O           -0.00398318650071       -0.75693855130850       -3.87842153199182
O           -0.63008975885454       -0.40021386044443       -1.78790547397367
H            0.03323147750416        1.08471731190449        1.06351442211357
H           -1.21365547688455        1.83989868585017        0.23963414849747
H            0.53561246156882        3.32191494460687       -0.11409402282117
H            1.67193816573594        1.97696423388470       -0.28800667209867
H            0.99987003748002        3.20724971532648       -2.42602228612532
H           -0.59410522443711        2.47807722190779       -2.26669258305715
H            1.91369374456318        0.75117894117689       -2.29281198241991
H            1.21734923765164        1.33980400235751       -3.79840629106559
H           -0.42596643028299        0.56545438631589       -0.51034554211865
O           -4.04879000010820        4.38936017708551        1.92922874196747
H           -3.97956063662293        4.21926079440300        0.98498567961964
H           -4.91949234570968        4.06331888015325        2.20366528092924
O            0.57642626632050        0.70396038573411        2.67504908754980
H            0.59043492772147       -0.22149268622984        2.94446091533078
H            0.20814805923889        1.20692570810312        3.41540449493127
O           -2.55485007579157       -2.17667864537698       -0.73884583468177
H           -1.84597608564882       -1.64106304733504       -1.14606646949514
H           -3.12290259559692       -2.44608498261792       -1.47388656689658
O           -1.63391013228936       -1.40334801906396       -6.06880620451265
H           -1.07755608588926       -1.13880670648517       -5.31719891272902
H           -1.37665330401672       -2.30922249428415       -6.27036068300189
28
 energy: -44.593767928579 gnorm: 0.022809717521 xtb: 6.7.1 (edcfbbe)
N           -0.27214826931104        1.38410317091483        0.12921578794924
C            0.68592549228215        2.29990098916266       -0.51806398721856
C            0.48041954805077        2.33581218947038       -2.03164714585378
C            1.00215754720647        1.09621971286807       -2.77080238298671
C            0.06034124705239       -0.12107240601579       -2.82270369622234
O            0.00566833516778       -0.75631835806412       -3.89291252734502
O           -0.60597650720659       -0.41111003276761       -1.79582493030452
H            0.06453279036638        1.06801085622674        1.06158049654110
H           -1.18452636257485        1.82210425559981        0.24692046843895
H            0.56094410625788        3.30410325049174       -0.11185810003542
H            1.69723931147110        1.95993343789861       -0.29559004363608
H            1.01390688448899        3.20167424910118       -2.42480096010017
H           -0.57808122593394        2.46873768228266       -2.26186573226760
H            1.93182619252349        0.74533449549607       -2.31483452097090
H            1.22338310418149        1.34316730610142       -3.81121035414621
H           -0.40040589812803        0.54908066994765       -0.51108359177254
O           -4.14477888822306        4.42230969227500        1.94352522332611
H           -4.12266231389352        4.33455257023709        0.96896833012101
H           -5.00429421128527        4.09162152220468        2.23230002433933
O            0.58726309696856        0.68860187749278        2.67748708156084
H            0.57428876818298       -0.23922703446235        2.94381677749917
H            0.21126094372070        1.18898218922786        3.41562107985963
O           -2.53545709686892       -2.16594177750774       -0.72488580472984
H           -1.83730544615520       -1.62555690819735       -1.13336162456040
H           -3.12114102061596       -2.42537470448485       -1.43412176755438
O           -1.64592471379820       -1.40872168911117       -6.06840758993299
H           -1.08403536582072       -1.14358646745504       -5.32104989538543
H           -1.38052607470968       -2.31045727363713       -6.27896279920531
28
 energy: -44.593840932350 gnorm: 0.020761071359 xtb: 6.7.1 (edcfbbe)
N           -0.27526321776875        1.38473537309073        0.13164749547936
C            0.68577110988499        2.29846065475906       -0.51531879347979
C            0.48181003727028        2.33522087585249       -2.02863312097083
C            1.00197092771320        1.09611647661871       -2.76927968653487
C            0.05248764122846       -0.11583138255328       -2.82528744287596
O            0.00839877328253       -0.75854012114201       -3.88959766462890
O           -0.60392227958812       -0.41312762860912       -1.79297715773594
H            0.05682518938541        1.08044400650074        1.07013933173046
H           -1.18799501082286        1.82147021138525        0.23880797053793
H            0.56121951565212        3.30207522522201       -0.10772339061974
H            1.69600725444773        1.95566519511327       -0.29184924700013
H            1.01580104994162        3.20050057569005       -2.42186996160057
H           -0.57666608458463        2.46837812784041       -2.25907612199851
H            1.93051621045223        0.74196055589355       -2.31413227049205
H            1.22360156994685        1.34388740683470       -3.80892692399318
H           -0.39914681560260        0.54711259267989       -0.50411691622194
O           -4.15328356929385        4.41937414457773        1.94691368555668
H           -4.10998783322389        4.33014974106774        0.99387776558351
H           -5.01653372512251        4.09656831882235        2.21177371308020
O            0.58045741124047        0.69427529185492        2.66761324919364
H            0.58474818663244       -0.23498227553668        2.90910855637776
H            0.23101295602122        1.17619365618848        3.42310227398564
O           -2.51929357936929       -2.17733950768046       -0.73911679644416
H           -1.83746411388404       -1.62208466522578       -1.14532470473808
H           -3.13129875593265       -2.41203460280616       -1.42282277575050
O           -1.64989398323810       -1.40833329837936       -6.06331153180216
H           -1.08795429504868       -1.14684836311509       -5.31505376468739
H           -1.38003059622382       -2.30658311964807       -6.28311795454343
28
 energy: -44.593830809973 gnorm: 0.029254863569 xtb: 6.7.1 (edcfbbe)
N           -0.25684531562530        1.37462050162160        0.13008161248061
C            0.70265108701250        2.29007729362493       -0.51719504911788
C            0.49380091301434        2.33301736543504       -2.02978307032864
C            1.01151820634996        1.09711382238532       -2.77798556652256
C            0.05631088630621       -0.11086945151038       -2.83961540269233
O            0.02093446246689       -0.75816807060952       -3.89976842158715
O           -0.58246373812071       -0.42385734391260       -1.79850156890008
H            0.06844843166805        1.07293522757077        1.07133223050900
H           -1.17310316105220        1.80798268355933        0.22864825920948
H            0.57883125795696        3.29132271137113       -0.10371728494690
H            1.71446327883230        1.94576576312240       -0.30042904408805
H            1.02698781831890        3.19844593788862       -2.42364477810470
H           -0.56576182080098        2.46757277857699       -2.25537099216001
H            1.94091333640770        0.73927324071415       -2.32733987787000
H            1.23002825957697        1.34919273906489       -3.81710980737624
H           -0.37948289098309        0.53693826290506       -0.50847890252776
O           -4.21333107502931        4.44193534197397        1.95685441637363
H           -4.21098309675715        4.38963671142555        0.98837465530247
H           -5.07835286899626        4.13647898169816        2.23195906726607
O            0.56601232901701        0.67166964892830        2.67055164170876
H            0.59639139219687       -0.25525724098422        2.89895407894293
H            0.24509881707245        1.14986625673835        3.43281018371671
O           -2.53485456400081       -2.11370117478345       -0.69198120923246
H           -1.83511109967235       -1.60662011831608       -1.15294474870388
H           -3.10238813174234       -2.46370296033172       -1.41063159416103
O           -1.66079572978097       -1.41075785684483       -6.05742077739175
H           -1.09479107029783       -1.15074686038389       -5.31178814950629
H           -1.38223193994316       -2.30328072563243       -6.29041208488426
28
 energy: -44.594492180524 gnorm: 0.008999795399 xtb: 6.7.1 (edcfbbe)
N           -0.25064421411737        1.36894953417966        0.13044919108276
C            0.70889220604891        2.28362547922430       -0.51774122287631
C            0.49684322368711        2.32893757429710       -2.02979842500211
C            1.01471808498641        1.09485705447494       -2.78070212828773
C            0.06707529328274       -0.11914813808815       -2.83855688130894
O            0.01784810081685       -0.75552535863285       -3.90671860100893
O           -0.58365017660622       -0.42229758404379       -1.80466496086439
H            0.08088446057916        1.06750146346749        1.07131169970356
H           -1.16495467217095        1.80500367789418        0.23567988980010
H            0.58836778070462        3.28501119707701       -0.10370714938318
H            1.71979749373220        1.93722637512494       -0.30194306813167
H            1.02829744450458        3.19655617726340       -2.42140646932410
H           -0.56311033060891        2.46272384792090       -2.25359593959494
H            1.94672319347704        0.73925743397618       -2.33366477773011
H            1.22921163040721        1.34954607189388       -3.82033712862014
H           -0.37423640596092        0.53230118975463       -0.50598298578792
O           -4.23768268751123        4.44286518559462        1.96121915286856
H           -4.24628509223558        4.41457559932580        0.99361648601048
H           -5.10587750332870        4.13948734671373        2.24697550988441
O            0.59054255769445        0.67531907425092        2.66471374082416
H            0.57181441148838       -0.25851934610384        2.89696905540238
H            0.24852707169987        1.16128908225171        3.42156186489174
O           -2.51830863538069       -2.13222634236982       -0.70147036218748
H           -1.82168158160692       -1.61324903722216       -1.14288922284085
H           -3.11429633807732       -2.42288509277106       -1.39376933771989
O           -1.66617296226095       -1.41225178149973       -6.05966470612018
H           -1.09971435599635       -1.14979159550848       -5.31518760091552
H           -1.38103402385228       -2.30225562314947       -6.29524780735602
28
 energy: -44.594752363452 gnorm: 0.013418434211 xtb: 6.7.1 (edcfbbe)
N           -0.23037119396057        1.35512041454166        0.12923612060095
C            0.72843889202794        2.27021962667135       -0.51969383191634
C            0.50962078288056        2.32276361327327       -2.03056450979677
C            1.02503078759913        1.09312253329342       -2.79058418596893
C            0.07921303381548       -0.12271341297573       -2.84861013764854
O            0.02373024030389       -0.75293655455900       -3.92054172245226
O           -0.56712731933495       -0.42948743823839       -1.81347464396519