28
 energy: -44.608434622317 gnorm: 0.002487900528 xtb: 6.7.1 (edcfbbe)
N           -0.23109044503934        1.43110643124485        0.19360472070535
C            0.72906236278011        2.34337391590029       -0.44819432922375
C            0.36596526583670        2.56268222033535       -1.91479213858188
C            0.73909923108268        1.39508866895298       -2.83854649244870
C           -0.27989727617172        0.24484467468783       -2.94313445560268
O           -0.40668221279054       -0.29864255573526       -4.05856353065220
O           -0.90695185052165       -0.10556238909224       -1.91294434506844
H            0.14380846170360        1.03118743547617        1.07196706968559
H           -1.13086096342877        1.92414795017810        0.38249728721684
H            0.71367476280082        3.29965308981713        0.07520785714655
H            1.73160527718386        1.91935050099906       -0.37631137950221
H            0.89556351930218        3.44582130515101       -2.27236984509009
H           -0.70392991985238        2.76290257238568       -1.99440844179346
H            1.68066204227591        0.94113611527360       -2.51687706725404
H            0.88566297700303        1.75077568063276       -3.86029276358001
H           -0.45942305541134        0.67137983113433       -0.49317442451858
O           -2.72892869478501        2.55695516182049        0.44980908976445
H           -3.13647898786316        1.83446923019064       -0.06293922711560
H           -3.23682269393930        2.64135150325405        1.26153426895342
O            0.85141548473816        0.38029839000397        2.54452944369122
H            0.95109470431066       -0.57263835408954        2.63227896330444
H            0.57221457437981        0.72588865320115        3.39798289894964
O           -3.44012241244794        0.24372237610668       -0.85396551397280
H           -2.63080415453684        0.05277875417973       -1.35818304477390
H           -3.69551591589524       -0.58612615794498       -0.44156862712528
O           -1.89876493683692       -2.54284160338572       -4.62214175832847
H           -1.38596641767461       -1.74843526331886       -4.36830962431221
H           -1.80569475266166       -2.60778467224366       -5.57724677515849
