79
 energy: -131.054954479020 gnorm: 0.104594865092 xtb: 6.7.1 (edcfbbe)
N           -0.40793540140000        0.46579463310000        1.63240154150000
C           -0.39060471760000       -0.05786450480000        0.26126116950000
C            0.16368982890000        1.00326808480000       -0.67791098360000
C            0.28872236460000        0.49462908460000       -2.10090437670000
C            0.49972980620000        1.56509598390000       -3.13633443230000
O            0.63379591740000        2.77626327180000       -2.81929139840000
O            0.47435939320000        1.19223410150000       -4.35091653350000
H            0.51960188850000        0.86594199990000        1.85095862290000
H           -1.08515629480000        1.23067445340000        1.76673162750000
H           -1.39350683840000       -0.34408531410000       -0.04574830610000
H            0.25829556480000       -0.92819227320000        0.23237157650000
H            1.15429189980000        1.29939857210000       -0.35041482020000
H           -0.47461590950000        1.88037986210000       -0.68074888910000
H           -0.60724990990000       -0.04014491320000       -2.41031689350000
H            1.13674855480000       -0.18330633830000       -2.18983662490000
H           -0.61271044230000       -0.30906401310000        2.29265867770000
O           -3.21987575440000        4.40005450850000       -2.19860727820000
H           -3.93089973310000        4.56265446040000       -1.55171071540000
H           -3.36523503980000        3.47410075910000       -2.50310392460000
O           -3.20264944480000        1.46065721230000       -0.15810474470000
H           -2.48857528940000        2.12186093270000       -0.11938684640000
H           -3.96011946960000        1.89906972110000        0.25554421800000
O           -2.21803716810000       -0.51190872820000       -3.60719935380000
H           -2.60176666760000       -0.78301904550000       -4.44852810700000
H           -2.61660657020000        0.35536812800000       -3.38642939950000
O           -0.53586446140000       -1.77465941620000        3.13585456120000
H           -0.62103225720000       -2.66102047120000        2.77987948470000
H           -1.04525840130000       -1.74701123400000        3.96676962970000
O            2.17788107280000        2.37912216470000       -6.04177077850000
H            2.47395250420000        3.13040979490000       -5.49403403060000
H            1.50081972530000        1.92749040770000       -5.47947608080000
O            2.47151565500000        4.32345827180000       -4.10537728130000
H            1.97828741490000        5.13543374910000       -4.31980976450000
H            1.82517669270000        3.76871880200000       -3.61296195070000
O            2.04712238850000       -1.43183542950000        3.40132344480000
H            1.07606733780000       -1.51944884980000        3.22013246120000
H            2.54243184360000       -1.72603154000000        2.61566737440000
O            0.60543144120000       -1.49711934790000       -4.62823885470000
H            0.44121594190000       -0.53959413520000       -4.49004738720000
H            0.43502832230000       -1.94413717780000       -3.75010787470000
O            1.88526083330000        2.08423699750000        1.95498311750000
H            1.61735753420000        2.76253613430000        1.32043928320000
H            2.53465212380000        1.52845410880000        1.48719491580000
O           -3.21364105210000       -0.07221788000000        2.15780658520000
H           -3.08107883790000        0.46093598300000        1.35518082190000
H           -4.15332449300000       -0.28546274940000        2.18146483890000
O           -1.45173785500000        3.75203129880000       -0.23043752080000
H           -1.97282813050000        4.17841989630000       -0.93077879040000
H           -0.53597724340000        4.03582453380000       -0.32424213120000
O            1.46383905180000        3.78367880190000       -0.34035927600000
H            2.42680943620000        3.70612787870000       -0.16306977580000
H            1.32215579730000        3.43354418620000       -1.23353377240000
O            3.31453454660000        1.01263401560000       -2.46038019470000
H            2.35022839000000        1.02615501890000       -2.56182670310000
H            3.68684009430000        0.82330228760000       -3.36164709080000
O           -0.35479176780000        1.37253966180000       -7.82631482510000
H           -0.44300329580000        1.21451757570000       -6.86384416220000
H           -1.24597314170000        1.22733633530000       -8.19148346130000
O           -1.19167221440000        4.33639706510000       -4.14462524140000
H           -1.88564975130000        4.56143615990000       -3.50395039120000
H           -0.53551770610000        3.80415298110000       -3.64452242970000
O            0.32126519110000        1.22453303740000        4.49005085880000
H            1.23639823810000        1.12452892010000        4.79431011430000
H           -0.20009286380000        1.46052504240000        5.28296041520000
O           -2.49218009260000        1.22031523620000        4.31045541280000
H           -3.43770719790000        0.96373780920000        4.44804111200000
H           -2.11561271020000        1.28921357010000        5.21539920950000
O           -1.86635582280000        1.94201591660000       -5.47939791210000
H           -1.83890082040000        2.88322755370000       -5.24397539760000
H           -1.07842749050000        1.56372441400000       -5.03591255290000
O           -3.45868463400000        1.77106467990000       -2.78412025160000
H           -3.34546034190000        1.58895757770000       -1.81399857450000
H           -4.33158611460000        1.40752682860000       -3.00240178490000
O            3.23438289610000        0.33066215650000        0.30427125550000
H            2.78440886600000       -0.52332455820000        0.10849682890000
H            4.15306528840000        0.09865500610000        0.48477918260000
O           -1.99673708860000        2.80264260050000        2.20563936170000
H           -2.05205702090000        3.35762559990000        2.99960035250000
H           -1.75961899460000        3.37779452500000        1.46280512690000
79
 energy: -131.072100614753 gnorm: 0.045531514419 xtb: 6.7.1 (edcfbbe)
N           -0.40774797022373        0.47701420570363        1.64118025793655
C           -0.38693162823595       -0.05011982935182        0.26994857579471
C            0.16548998553983        1.00228100353295       -0.67646344696896
C            0.26921533489032        0.47951538760365       -2.09751532492852
C            0.46817528279589        1.55910711545181       -3.13611524039711
O            0.63546458299097        2.76241940478875       -2.80755163554806
O            0.46999473684373        1.18606574393231       -4.34630003679060
H            0.51269738541513        0.88779487135475        1.88143078872658
H           -1.09400414123884        1.23358482370492        1.78506562760776
H           -1.38984667098345       -0.34076470468121       -0.03792390048651
H            0.25510180966538       -0.92867586087264        0.23853015769964
H            1.15774094713034        1.29756379262529       -0.34847060302679
H           -0.47352469668661        1.87886550491082       -0.67493027533559
H           -0.63215810831300       -0.04982445105454       -2.40238355225377
H            1.09893548601970       -0.22395062156879       -2.18983943964825
H           -0.61805951917820       -0.28813960615732        2.30527181281547
O           -3.22249547350314        4.40118404889270       -2.18517916566817
H           -3.96062231769883        4.57411256248680       -1.58268636192434
H           -3.35815236499132        3.48004247476443       -2.50795739760151
O           -3.20745908272528        1.48460948634498       -0.15667104692560
H           -2.48121555941179        2.13134868681730       -0.09394754125233
H           -3.96026568213391        1.91900047034294        0.26047578707554
O           -2.25283562651668       -0.53882555446906       -3.59211780395960
H           -2.58490794728244       -0.77735629335857       -4.46302786291289
H           -2.60325428655697        0.36006512658642       -3.40784870494772
O           -0.54525534125144       -1.80093646889158        3.13879749399638
H           -0.65494298517249       -2.68769053766213        2.78445227053009
H           -1.04919154365588       -1.74623089131275        3.96014490908830
O            2.21172678903623        2.36999462346207       -6.03835648955873
H            2.47137259135010        3.14258130400414       -5.50064692610878
H            1.51416070541578        1.93299624912994       -5.49950523655469
O            2.47258170746261        4.33539546340736       -4.08929502047206
H            1.98408718056203        5.13601863989828       -4.32084042245471
H            1.81842006088731        3.77470802711606       -3.61932306245998
O            2.07999078665203       -1.43356264596384        3.41028824293172
H            1.10642231693277       -1.50370077155112        3.25324298664202
H            2.53019749089045       -1.73028802681951        2.61217252942151
O            0.62207381665162       -1.52478798684155       -4.62507217706527
H            0.45691989570148       -0.56436680463161       -4.51743716140578
H            0.41311076849835       -1.93408553687167       -3.76441560722891
O            1.89118648205319        2.08394524370018        1.97180634001481
H            1.59087260094589        2.75519598795736        1.34185677312656
H            2.52374751835853        1.52932023252318        1.48383878710226
O           -3.22869819931951       -0.13827272423757        2.12788508244596
H           -3.09059930260761        0.45058964625775        1.36342570812763
H           -4.17444255123214       -0.29959299670028        2.16647320375993
O           -1.45078998334008        3.77290025505633       -0.23120838206395
H           -1.95517079382076        4.17935425811604       -0.95819881173553
H           -0.52864784458491        4.03626824401762       -0.32537818510379
O            1.48199969110098        3.79427333940697       -0.33628421968621
H            2.44170934420730        3.74633108123527       -0.21127606419368
H            1.30912921951726        3.43415124262750       -1.22276137489353
O            3.37211803789718        0.99216438125214       -2.47712816728879
H            2.41532561183127        1.08144300017524       -2.57458801295497
H            3.71138724816380        0.83021038097702       -3.37060207962961
O           -0.35196423222872        1.33347696640232       -7.85921947387172
H           -0.43795652372405        1.24885304449067       -6.89477765634799
H           -1.25422491831605        1.23658107533380       -8.19467681192968
O           -1.19079130883880        4.34556544886548       -4.14767749657571
H           -1.88312482268254        4.56591491289503       -3.50530590881369
H           -0.53538113183171        3.81393094079906       -3.65287058247977
O            0.33685094418574        1.20767458024090        4.50120029986945
H            1.25740121591872        1.11748899101027        4.76783532158115
H           -0.14438215663196        1.48240546116444        5.29152810157227
O           -2.51728714131174        1.24288243100349        4.35787277462966
H           -3.43995489855654        0.96031492324379        4.44986732860396
H           -2.16448430950632        1.28228745430360        5.25538724499035
O           -1.89429482883400        1.94088735135520       -5.45343111916470
H           -1.82955955632767        2.89081109837571       -5.25354146910228
H           -1.08929924638903        1.56658674355655       -5.04817688278514
O           -3.47833150755417        1.76852529187962       -2.77894982868115
H           -3.35525236692814        1.56500742325882       -1.81350798569027
H           -4.34948173581774        1.42138257868683       -3.00403427328127
O            3.23787963570776        0.31528254558486        0.34355182404027
H            2.80167329228710       -0.51680299473095        0.10114771360836
H            4.16823773716674        0.09949685626026        0.46442727084452
O           -2.03447179498840        2.80647342140229        2.18897254440038
H           -2.02798903995447        3.33565040357233        2.99286184345348
H           -1.74489970658648        3.38172148797993        1.46176993992114
79
 energy: -131.082275685929 gnorm: 0.028947050730 xtb: 6.7.1 (edcfbbe)
N           -0.40918212205574        0.49254465436312        1.65597198822607
C           -0.38378755262917       -0.04095076087904        0.28730730509963
C            0.16734753190959        0.99901804039403       -0.67258930670473
C            0.25346675317154        0.46613569022867       -2.09211682501645
C            0.47413504840652        1.54343124929213       -3.13680971535428
O            0.63193482676067        2.74261920294397       -2.79364665442251
O            0.45300865202575        1.17902867275594       -4.34432488132247
H            0.50333371727791        0.91648703936214        1.91866026210785
H           -1.10916773833575        1.23862356932768        1.80590884819733
H           -1.38746682440540       -0.33601614415988       -0.01836456073001
H            0.25052702016981       -0.92764260426517        0.25951813616593
H            1.16361774711912        1.29322378457377       -0.35214488153247
H           -0.47043049637606        1.87710023773173       -0.67018388344800
H           -0.65910395158192       -0.05329820742752       -2.38901324588272
H            1.06813917258323       -0.25607484357286       -2.19247750098371
H           -0.62540090574132       -0.26186359123526        2.32464744393420
O           -3.22156345655984        4.39899266216652       -2.18058532116653
H           -3.98922364364077        4.60005888332909       -1.62957197120907
H           -3.35255081604307        3.47946429370692       -2.50583294656004
O           -3.21395184431331        1.51502342261320       -0.14433890608087
H           -2.47738871922231        2.14832698936351       -0.06952774891923
H           -3.96214282091606        1.95163752562975        0.27194443806385
O           -2.29515840327684       -0.56598457016844       -3.58130710562030
H           -2.56330476315051       -0.77520813930466       -4.48482712863394
H           -2.60471793976112        0.35839145298336       -3.43772564802136
O           -0.55227779549015       -1.83607095115726        3.14315991384790
H           -0.70152445455195       -2.71967462021362        2.79023816253964
H           -1.05577401212235       -1.74564882211813        3.95437459518462
O            2.23952783113875        2.37456463859373       -6.04387269656741
H            2.48383195081299        3.14614244556441       -5.49954432256153
H            1.54607850501239        1.92495655231848       -5.52273642375487
O            2.46471001683327        4.34629042066416       -4.07814466878861
H            1.98941052513634        5.14612087077704       -4.31757803956398
H            1.80558927466114        3.78705115608400       -3.61907719092126
O            2.11503409334989       -1.42869572121114        3.42600887980218
H            1.14434525165268       -1.49755065818849        3.29226290643799
H            2.52318653872863       -1.73127429131740        2.61373703505411
O            0.63484667562818       -1.55601178608902       -4.62979368442078
H            0.48276147321204       -0.59290192768764       -4.54592175801856
H            0.38508066897939       -1.93620211495521       -3.78490288090592
O            1.88384195619457        2.08591409544069        1.98351232309250
H            1.58543775075081        2.76119392322957        1.35650516041018
H            2.50702510462685        1.52593731748632        1.49220387212134
O           -3.25035588860283       -0.20760398043029        2.10283502236085
H           -3.10083736687652        0.42151008677089        1.37094366879507
H           -4.20021140349133       -0.32872785194437        2.14704982687013
O           -1.44247814092771        3.79957151615413       -0.23252640259970
H           -1.93972916171129        4.17879008009444       -0.98350634129695
H           -0.51764035764116        4.05044372081825       -0.33286279676595
O            1.49535826314029        3.80702891960074       -0.33606216562238
H            2.45348432572547        3.79266953980217       -0.25724313036997
H            1.29554584018673        3.43313588724381       -1.21405178799203
O            3.43324568125544        0.95937060916572       -2.49015306156007
H            2.48610107468554        1.13923404269650       -2.59038744952159
H            3.75492886228610        0.83456223559613       -3.38064301183916
O           -0.35868456915932        1.31235956375496       -7.89676294583172
H           -0.42969093339712        1.27155866640111       -6.93450835083921
H           -1.26761891531315        1.23988210654042       -8.20740595536240
O           -1.18639033968088        4.35652541345593       -4.15573078579297
H           -1.87959849325046        4.57817234965740       -3.51606197680758
H           -0.53866458453421        3.82309497669973       -3.66043521942535
O            0.35120112206324        1.17936667153531        4.51084457884619
H            1.28555648425580        1.10518022356519        4.72444864154830
H           -0.08192373409921        1.51217361168738        5.30230753151788
O           -2.54737234910773        1.27428724508958        4.41459410486459
H           -3.45147141438349        0.95919386923351        4.45485812005285
H           -2.21128131178807        1.27187123967817        5.30924182401215
O           -1.90556991821982        1.95024192564325       -5.45938192242073
H           -1.83917915589128        2.89745524560780       -5.25067556671164
H           -1.11378940956321        1.57232254332148       -5.04567790919907
O           -3.50097900333275        1.76512607000835       -2.76936803279803
H           -3.37165123854901        1.54286265882604       -1.80793222261728
H           -4.37262633294638        1.43791104953190       -3.00512033753045
O            3.24856691283248        0.29986042342096        0.38644597191195
H            2.82443492154149       -0.51135486827184        0.09195118201736
H            4.19297000083395        0.10709395925577        0.43734005402349
O           -2.07478048649279        2.80206551685436        2.16404329315513
H           -2.00025657075565        3.29236674679078        2.98873702222410
H           -1.74166484205926        3.38683138327499        1.45914846973004
79
 energy: -131.089919394451 gnorm: 0.037777396332 xtb: 6.7.1 (edcfbbe)
N           -0.41229779373501        0.51034046867629        1.67364310641753
C           -0.38068317508348       -0.03367297617833        0.30988927439344
C            0.17030043273756        0.99357590905762       -0.66497670705252
C            0.23820016688273        0.45144299275762       -2.08291769810278
C            0.45255651650133        1.52741751658686       -3.13626807773720
O            0.63791507021080        2.72107584923791       -2.78225639802280
O            0.44803196607702        1.16419376310094       -4.34177458425000
H            0.49312621906329        0.94778207321582        1.95017977965536
H           -1.12668579526760        1.24701878448796        1.82138485108706
H           -1.38526972681053       -0.33131563546073        0.00712173133826
H            0.24844571362035       -0.92519395955750        0.29168951627107
H            1.17114841529285        1.28792744130960       -0.35686007182416
H           -0.46579068386074        1.87392361237634       -0.66433419107354
H           -0.68594080711223       -0.05811150720564       -2.36659296622927
H            1.04379153949223       -0.28005370394682       -2.19559580207241
H           -0.63068066377613       -0.23561761054629        2.34757916377931
O           -3.21653909596601        4.39541158393223       -2.18460871237937
H           -4.01392872419572        4.63488685318595       -1.68930764241296
H           -3.34806700179891        3.47398040759261       -2.49983430267481
O           -3.22279253152017        1.54284178178715       -0.12681165953242
H           -2.47809325468763        2.16458683834132       -0.05194213939170
H           -3.96368334290232        1.98759388631791        0.29191069040848
O           -2.31538754362777       -0.57399992209480       -3.59587820035301
H           -2.55572183101682       -0.78513675644652       -4.49986287817911
H           -2.62583049263784        0.34341390163275       -3.46177713006813
O           -0.55465584651242       -1.87184427766752        3.14821605455814
H           -0.75168172427954       -2.74881676325098        2.79769133695054
H           -1.06748163269488       -1.74219676220604        3.94797086832583
O            2.28677172269829        2.36889019158805       -6.03958016398134
H            2.49660511815349        3.15817227029657       -5.50358244309400
H            1.57522900246000        1.92567970980174       -5.54484961841422
O            2.45738345536782        4.35515217540169       -4.06668430091382
H            1.99605771627566        5.15939588283639       -4.31470449970378
H            1.79119296885158        3.79862759415933       -3.61875826021647
O            2.15141863305980       -1.42325059064209        3.44497622835534
H            1.18251939812531       -1.49232489512275        3.33940127947091
H            2.51842618355878       -1.73110063769937        2.61361025090000
O            0.67705925844001       -1.58725188637127       -4.62983782353579
H            0.51409705131799       -0.62366976402180       -4.58543315986272
H            0.31936408949369       -1.94442687254141       -3.80286601634992
O            1.86950669449847        2.08890076335690        1.99628548457321
H            1.58768692573754        2.77051505461323        1.36882347931918
H            2.48973421885233        1.52124596696185        1.51181313954436
O           -3.27611370462932       -0.26587432559579        2.08346936473472
H           -3.11471067368162        0.38075157826247        1.37323581987868
H           -4.22594782927956       -0.36909796259517        2.12581145005119
O           -1.42907987118194        3.82525034658814       -0.23514278500144
H           -1.92919355051823        4.18071222986911       -0.99761627519937
H           -0.50536602643677        4.07436805334879       -0.34354660791540
O            1.50568616744516        3.81030655480804       -0.33593187360160
H            2.47080907265350        3.85950260606105       -0.31421229439333
H            1.28083084059455        3.42834611271691       -1.20566301237193
O            3.48620591646815        0.93524946373975       -2.50315735815390
H            2.55384488520584        1.18342142918047       -2.60327691823612
H            3.80677226540962        0.84434330566461       -3.39770227507462
O           -0.36661433590837        1.27236814883491       -7.94149081135006
H           -0.42317487937057        1.31444973776410       -6.97199353056759
H           -1.29104868098863        1.24937154816287       -8.22285232233567
O           -1.18003413100066        4.36604415491691       -4.16382500057674
H           -1.87482755017507        4.59281615597872       -3.52774770643258
H           -0.53966060227860        3.83034737623582       -3.66555004224057
O            0.36087535858203        1.13875783152162        4.51990426640914
H            1.31553112064750        1.08692710251991        4.66335569189905
H           -0.00891163637294        1.55138742541929        5.31652295177553
O           -2.57741491087115        1.34483097822411        4.48041032384864
H           -3.46109551476817        0.94534766365378        4.43839374133324
H           -2.26967105164018        1.24022809817806        5.38942430937465
O           -1.92622829470190        1.95770211155119       -5.45505568670027
H           -1.84151092661078        2.90636987861513       -5.25297216961958
H           -1.12449622483301        1.57411392232568       -5.06619849074350
O           -3.52420534823561        1.76026771819147       -2.75807958904234
H           -3.39414836822569        1.52866809253987       -1.79973198790805
H           -4.39997604308832        1.45386919748875       -3.00288833962142
O            3.26704543904081        0.28661683829994        0.43212305584110
H            2.85272396364266       -0.50268298194542        0.06162001072117
H            4.21910427738181        0.11628277940494        0.41877123030398
O           -2.09492076081037        2.78973089238654        2.14161947779229
H           -1.97997575484177        3.23489866188403        2.98655230943723
H           -1.75741205290498        3.39164095825326        1.45642359796499
79
 energy: -131.095768120029 gnorm: 0.029627592463 xtb: 6.7.1 (edcfbbe)
N           -0.41795195358898        0.53226869151937        1.69333027620548
C           -0.37890986733437       -0.02742448746779        0.33644571874837
C            0.17238901210441        0.98623580874078       -0.65488509978087
C            0.22124689845352        0.43561281380229       -2.07173607779662
C            0.44285553035306        1.50724181727675       -3.13307115774594
O            0.64582723330719        2.69782627479295       -2.77245503680086
O            0.44123910262871        1.14662098856404       -4.33749756711817
H            0.48116026344691        0.98481138824067        1.97418560890299
H           -1.14676595080733        1.26129712251397        1.83122995900186
H           -1.38390550644221       -0.32718059333124        0.03640381069419
H            0.24809653209711       -0.92061831602750        0.33328348392302
H            1.17830113189922        1.27871881694257       -0.36043075677963
H           -0.45884400372488        1.87124703167623       -0.65588280974429
H           -0.71518487076678       -0.06074782207009       -2.34187708918181
H            1.01773109345796       -0.30356138200767       -2.19583749494813
H           -0.63285743643007       -0.20614186505999        2.37445524215699
O           -3.21271226076047        4.39398398138328       -2.19922576582089
H           -4.02581461575625        4.67092667175738       -1.75368001644682
H           -3.34570822652420        3.46684717362995       -2.49457163126073
O           -3.23662622061371        1.56717613011970       -0.10763216239322
H           -2.48201049945917        2.17541308676238       -0.04147296476950
H           -3.96465056432334        2.02806095720063        0.31768982301546
O           -2.35814527665534       -0.59776457857876       -3.60522735082105
H           -2.53469583542183       -0.78805026582369       -4.53446094115801
H           -2.64551019850553        0.32679179574333       -3.48804727764586
O           -0.55598789572299       -1.90936408586027        3.15453772921668
H           -0.80502283605997       -2.77578637996489        2.80828035190674
H           -1.08514350007966       -1.73765461189636        3.93896266492829
O            2.33340552900916        2.36968071900991       -6.03493233617895
H            2.52061168548341        3.16286520276228       -5.49790543011641
H            1.61220232267748        1.92017563598593       -5.56576783898146
O            2.44715814562641        4.36367650693964       -4.05543929807994
H            2.00062690745951        5.17571656339238       -4.30933547378242
H            1.77361847766333        3.80965197181617       -3.61792996423565
O            2.19123908346393       -1.41515180111745        3.46863623543619
H            1.22331817674902       -1.48766036674730        3.39667668975682
H            2.51697374318091       -1.72371971425176        2.61689417938796
O            0.69642486607862       -1.61967710519812       -4.63486080080781
H            0.54986370181199       -0.65609432549175       -4.60986203929259
H            0.26631098472036       -1.96233886037184       -3.83209686200945
O            1.85121283047605        2.09671811931893        2.00285273463248
H            1.60206444612443        2.78540952267141        1.36787936552656
H            2.47294194485504        1.51533056233777        1.53744591578875
O           -3.30891424636390       -0.32477004674308        2.06593047316018
H           -3.13431611034483        0.33887492767682        1.37889855288039
H           -4.25789664072198       -0.42058412273399        2.09997023092262
O           -1.41427357410625        3.85274859245183       -0.23855405897249
H           -1.92430606032681        4.18725689457161       -1.00284920088565
H           -0.49373069335165        4.10647449075776       -0.35739716573522
O            1.51634121841934        3.82857253790758       -0.34701179122917
H            2.47514052436633        3.91761079020184       -0.35861707361438
H            1.27577328297600        3.41439421468480       -1.19825221443869
O            3.54007774345501        0.92547692255539       -2.51989114857568
H            2.62954183010222        1.21248240258309       -2.61611883894408
H            3.87286008304607        0.85486598841936       -3.41527491411616
O           -0.39114243714952        1.28324942370292       -7.98164794550524
H           -0.41672775824235        1.32567650359222       -7.02483515554431
H           -1.30865441187658        1.24405427728917       -8.25420767962307
O           -1.17212500386142        4.37580339123821       -4.17262362906853
H           -1.87084070117720        4.60958601079915       -3.54225579470618
H           -0.54224149888675        3.83433274500208       -3.66916163902222
O            0.38491989146095        1.13886480127111        4.51693915720728
H            1.33863439615494        1.05353279850348        4.61313489841344