88
 energy: -146.366377709554 gnorm: 0.088296031480 xtb: 6.7.1 (edcfbbe)
N           -0.40793540140000        0.46579463310000        1.63240154150000
C           -0.39060471760000       -0.05786450480000        0.26126116950000
C            0.16368982890000        1.00326808480000       -0.67791098360000
C            0.28872236460000        0.49462908460000       -2.10090437670000
C            0.49972980620000        1.56509598390000       -3.13633443230000
O            0.63379591740000        2.77626327180000       -2.81929139840000
O            0.47435939320000        1.19223410150000       -4.35091653350000
H            0.51960188850000        0.86594199990000        1.85095862290000
H           -1.08515629480000        1.23067445340000        1.76673162750000
H           -1.39350683840000       -0.34408531410000       -0.04574830610000
H            0.25829556480000       -0.92819227320000        0.23237157650000
H            1.15429189980000        1.29939857210000       -0.35041482020000
H           -0.47461590950000        1.88037986210000       -0.68074888910000
H           -0.60724990990000       -0.04014491320000       -2.41031689350000
H            1.13674855480000       -0.18330633830000       -2.18983662490000
H           -0.61271044230000       -0.30906401310000        2.29265867770000
O           -3.21987575440000        4.40005450850000       -2.19860727820000
H           -3.93089973310000        4.56265446040000       -1.55171071540000
H           -3.36523503980000        3.47410075910000       -2.50310392460000
O           -3.20264944480000        1.46065721230000       -0.15810474470000
H           -2.48857528940000        2.12186093270000       -0.11938684640000
H           -3.96011946960000        1.89906972110000        0.25554421800000
O           -2.21803716810000       -0.51190872820000       -3.60719935380000
H           -2.60176666760000       -0.78301904550000       -4.44852810700000
H           -2.61660657020000        0.35536812800000       -3.38642939950000
O           -0.53586446140000       -1.77465941620000        3.13585456120000
H           -0.62103225720000       -2.66102047120000        2.77987948470000
H           -1.04525840130000       -1.74701123400000        3.96676962970000
O            2.17788107280000        2.37912216470000       -6.04177077850000
H            2.47395250420000        3.13040979490000       -5.49403403060000
H            1.50081972530000        1.92749040770000       -5.47947608080000
O            2.47151565500000        4.32345827180000       -4.10537728130000
H            1.97828741490000        5.13543374910000       -4.31980976450000
H            1.82517669270000        3.76871880200000       -3.61296195070000
O            2.04712238850000       -1.43183542950000        3.40132344480000
H            1.07606733780000       -1.51944884980000        3.22013246120000
H            2.54243184360000       -1.72603154000000        2.61566737440000
O            0.60543144120000       -1.49711934790000       -4.62823885470000
H            0.44121594190000       -0.53959413520000       -4.49004738720000
H            0.43502832230000       -1.94413717780000       -3.75010787470000
O            1.88526083330000        2.08423699750000        1.95498311750000
H            1.61735753420000        2.76253613430000        1.32043928320000
H            2.53465212380000        1.52845410880000        1.48719491580000
O           -3.21364105210000       -0.07221788000000        2.15780658520000
H           -3.08107883790000        0.46093598300000        1.35518082190000
H           -4.15332449300000       -0.28546274940000        2.18146483890000
O           -1.45173785500000        3.75203129880000       -0.23043752080000
H           -1.97282813050000        4.17841989630000       -0.93077879040000
H           -0.53597724340000        4.03582453380000       -0.32424213120000
O            1.46383905180000        3.78367880190000       -0.34035927600000
H            2.42680943620000        3.70612787870000       -0.16306977580000
H            1.32215579730000        3.43354418620000       -1.23353377240000
O            3.30171275140000        1.20892168140000       -2.23819101350000
H            3.43726846880000        0.41687817560000       -2.78100986690000
H            3.29936789970000        0.90210422870000       -1.29341723390000
O           -0.71394573530000        0.89377331710000       -7.73998355920000
H           -1.14309789760000        1.32822410480000       -6.97435769440000
H           -0.18672457240000        1.59239615080000       -8.16730119500000
O           -1.19167221440000        4.33639706510000       -4.14462524140000
H           -1.88564975130000        4.56143615990000       -3.50395039120000
H           -0.53551770610000        3.80415298110000       -3.64452242970000
O            0.21232119150000        1.63727420560000        4.12749222360000
H            1.01205282460000        1.80050906880000        3.60420768710000
H            0.42934427950000        0.89233590010000        4.72262238820000
O            2.96015184840000        0.86075386250000        4.22926750920000
H            2.57628588230000        0.01710135870000        3.87288959870000
H            3.62438023720000        1.16009443370000        3.58650431060000
O           -2.37397270590000        1.07636181010000        4.36784574800000
H           -2.72070689110000        0.79234105710000        3.48586449870000
H           -1.42428580960000        1.27533230230000        4.21299488020000
O           -4.64099778360000        2.68423680290000        1.83350510950000
H           -5.07899470460000        2.81883630950000        2.68908467500000
H           -3.66650494430000        2.70914398220000        2.04917323690000
O           -1.86635582280000        1.94201591660000       -5.47939791210000
H           -1.83890082040000        2.88322755370000       -5.24397539760000
H           -1.07842749050000        1.56372441400000       -5.03591255290000
O           -3.45868463400000        1.77106467990000       -2.78412025160000
H           -3.34546034190000        1.58895757770000       -1.81399857450000
H           -4.33158611460000        1.40752682860000       -3.00240178490000
O            3.23438289610000        0.33066215650000        0.30427125550000
H            2.78440886600000       -0.52332455820000        0.10849682890000
H            4.15306528840000        0.09865500610000        0.48477918260000
O           -1.99673708860000        2.80264260050000        2.20563936170000
H           -2.05205702090000        3.35762559990000        2.99960035250000
H           -1.75961899460000        3.37779452500000        1.46280512690000
O            1.12837757470000       -1.09192831050000       -7.28119562780000
H            0.96598883880000       -1.36310463510000       -6.35725604110000
H            0.51134425840000       -0.34547233450000       -7.43216267460000
88
 energy: -146.380080822753 gnorm: 0.043519444394 xtb: 6.7.1 (edcfbbe)
N           -0.40867828544408        0.47242064244016        1.63245195280395
C           -0.38695501986244       -0.05579754098694        0.26200833695854
C            0.16845372228885        1.00215320644464       -0.67769668809414
C            0.28725836068738        0.48539674980926       -2.09851601479105
C            0.49467359074224        1.56298657526796       -3.13308564583082
O            0.63417523033766        2.76922666834725       -2.80552188261935
O            0.47368893000073        1.19116427972974       -4.34263206606274
H            0.51343987695741        0.88221494873398        1.86314643925994
H           -1.08979647344512        1.23499762400336        1.76572731650345
H           -1.38912059646049       -0.34420791905846       -0.04832112131894
H            0.25256853251774       -0.93583282886775        0.23275745022184
H            1.15634184511546        1.30687335210253       -0.34930904323010
H           -0.47450655494790        1.87568210727427       -0.68123915056537
H           -0.61250331243641       -0.04664674180888       -2.40704085053822
H            1.13016757128619       -0.19792958519560       -2.20229620050718
H           -0.62278245824985       -0.29416911870621        2.29577170028719
O           -3.22141661251649        4.39888121663649       -2.18058072118625
H           -3.96478743846336        4.57247077317761       -1.58399462425504
H           -3.35839659114543        3.47848717840509       -2.50515933609383
O           -3.19845343544675        1.47396619362807       -0.16352544666248
H           -2.48629722913136        2.13606316130400       -0.11079979847311
H           -3.95743757770670        1.89724820915521        0.26573713142916
O           -2.26017140265331       -0.54571429192197       -3.58670095533779
H           -2.57855920826573       -0.77596782854622       -4.46637504761797
H           -2.60212803177989        0.35869736295707       -3.40842404003945
O           -0.54682051645554       -1.79805480219638        3.14282501907177
H           -0.66404306232456       -2.68223586707109        2.78423022931865
H           -1.05852305687185       -1.74305332050041        3.96007255648587
O            2.17045654008431        2.39903934108100       -6.06461362059552
H            2.48382744320095        3.12390925280373       -5.49092859501311
H            1.52317558698910        1.91698848413409       -5.49939200073182
O            2.46964402669407        4.34072946516674       -4.09187367840879
H            1.97281104051354        5.13762126801472       -4.31951449500215
H            1.82302895229055        3.76976392461657       -3.62157101439671
O            2.06571183911874       -1.44442078336496        3.39082757852561
H            1.09064808514284       -1.52676934903744        3.24160318724638
H            2.52351799233466       -1.75057850546472        2.60038063395476
O            0.62319095950942       -1.51012794515249       -4.61640065590554
H            0.45473499905620       -0.55020370936075       -4.49892719746267
H            0.39793601396954       -1.93710202958028       -3.76775168299169
O            1.88488521525934        2.07844796915145        1.95591240297158
H            1.58690932944490        2.76340923486873        1.34069577520275
H            2.52125020509634        1.53400682445700        1.46272565663836
O           -3.21940097374163       -0.10610870509177        2.12464178739996
H           -3.10592674432626        0.45965528557630        1.33729401680410
H           -4.15832813131885       -0.29704954071020        2.17866566188242
O           -1.44849323116770        3.77575148933810       -0.21766415882731
H           -1.95902732161416        4.17132292821791       -0.94635102631349
H           -0.52721888314712        4.03723042660815       -0.32734346092532
O            1.48179908484626        3.77403773510853       -0.33016934895343
H            2.44986094067081        3.77228460287094       -0.23127523742791
H            1.30739101100472        3.43295053947070       -1.22441679464913
O            3.30961944307683        1.21189189994994       -2.24962059969072
H            3.46087645178369        0.42615617615650       -2.78428336233451
H            3.29964372260568        0.91248284671357       -1.30707967711936
O           -0.71848149450289        0.91513233761990       -7.76643294543636
H           -1.15937004673976        1.31889219721311       -6.98868596787901
H           -0.17808522726822        1.61720310887114       -8.15103132593680
O           -1.19328332071041        4.34111744698816       -4.14994919105818
H           -1.88350165931266        4.56366231212865       -3.50586007956997
H           -0.53485275408706        3.81190857370312       -3.65479997312032
O            0.21881424080610        1.60948711535432        4.14765223423139
H            1.00982216190395        1.83372113926270        3.62677263058697
H            0.49720645310341        0.90701824870628        4.75208230712215
O            2.97972096041873        0.87606106939939        4.24734852721620
H            2.61288247278008        0.01973821858214        3.90767853520453
H            3.62441844594024        1.17282453663756        3.59768815535093
O           -2.40400039953761        1.06817079613175        4.39360836862452
H           -2.71649761422302        0.74490531355676        3.51466773573896
H           -1.47168087680854        1.32708246672004        4.23957735372369
O           -4.65631643634180        2.70298092242991        1.83474622494169
H           -5.09218602336674        2.81799936371177        2.68361297125133
H           -3.68546715291822        2.69651827435225        2.05058960099942
O           -1.86764114488300        1.94654487336487       -5.48036812405350
H           -1.82794538159774        2.88977301388560       -5.24582626213547
H           -1.07848022742634        1.56424239454562       -5.04837982510622
O           -3.48014344058535        1.76609156089592       -2.77755347724151
H           -3.36375329628920        1.56345077628979       -1.81031917372482
H           -4.35332329429836        1.42604033206624       -3.00488816198930
O            3.25739975732386        0.30592683494908        0.31604182229225
H            2.80152889375656       -0.53140189155611        0.13205428575987
H            4.17777244613635        0.08344751783063        0.48725527920238
O           -2.01561673883460        2.80986371638093        2.20948290731955
H           -1.97825090429500        3.34346680487055        3.01451421827386
H           -1.74226892227755        3.37695927378269        1.46751487818828
O            1.13558566570073       -1.09870825583300       -7.29589953518099
H            0.98204273973757       -1.36425944204383       -6.37271355934109
H            0.50054473859325       -0.37008308629691       -7.44911044114713
88
 energy: -146.388548955504 gnorm: 0.025210578802 xtb: 6.7.1 (edcfbbe)
N           -0.41043057982873        0.48087367245771        1.63589510270298
C           -0.38301700402728       -0.05352890494244        0.26803532577889
C            0.17268598695248        0.99735372809421       -0.67689940286972
C            0.28436878493342        0.47550282301997       -2.09524184770678
C            0.49937709382978        1.55854062635672       -3.13151600773202
O            0.63257781378140        2.76027623719249       -2.78967606104513
O            0.47639107801230        1.18842458638567       -4.33648417670827
H            0.50470765397162        0.90575678417435        1.88063312303362
H           -1.10024265330244        1.23830547602461        1.76423256521625
H           -1.38513568747798       -0.34339241368439       -0.04477963589071
H            0.24628469358667       -0.94342301368360        0.24174039982027
H            1.15913585157341        1.31176790242975       -0.35166948540655
H           -0.47515843474386        1.86800966175020       -0.68463039298246
H           -0.62209110944239       -0.05100762094288       -2.39968449691500
H            1.11908213045539       -0.21689446430004       -2.21125363027848
H           -0.63475198609458       -0.27344139171455        2.30406110667927
O           -3.21790604995078        4.39112346441972       -2.16526465867616
H           -3.99538576630519        4.59672688875668       -1.62788601403916
H           -3.35443129737684        3.47403810163578       -2.49534855700981
O           -3.19707483258614        1.49073101412211       -0.16190151188569
H           -2.48909479168865        2.15629286778371       -0.10668727338531
H           -3.95992850054019        1.90708608212520        0.26784364925227
O           -2.29639858070105       -0.57222090908111       -3.57784668272026
H           -2.55399804318939       -0.77852329157640       -4.48439811949545
H           -2.60825501712724        0.35030887196555       -3.43554218619647
O           -0.56264966859790       -1.82902881532047        3.15235501174272
H           -0.72840974484768       -2.70762401473326        2.79124607801456
H           -1.07944642279509       -1.73550267935336        3.95571325982714
O            2.17981777083228        2.41023729382374       -6.08657662405506
H            2.49211975201688        3.12851752437768       -5.50699909053303
H            1.53628873667037        1.92699918490241       -5.53138492757840
O            2.46394610822110        4.35578533841560       -4.07909912654547
H            1.96950240838581        5.14382448177840       -4.31867630051962
H            1.81820559688658        3.77532233622752       -3.62425816715981
O            2.08609095916186       -1.45561954419231        3.37667464293801
H            1.10993675084590       -1.54313897469548        3.26784791290289
H            2.50055633457043       -1.79099676770281        2.58129857903279
O            0.63699688366185       -1.52373840773665       -4.60688521624693
H            0.48132583968998       -0.56029960621591       -4.50460537375814
H            0.34992683510181       -1.93670656896976       -3.78963741871751
O            1.87477937734274        2.07864510803632        1.93886949129948
H            1.58771015848867        2.78418780889252        1.33977813413615
H            2.50327174031011        1.53642791988415        1.43867594750776
O           -3.22265179339372       -0.14073441658291        2.09454999051678
H           -3.13090685709242        0.44072781984385        1.31239923573231
H           -4.15883705160335       -0.32175361011093        2.17855564439083
O           -1.43917999350431        3.79770983017968       -0.20347101927112
H           -1.95144801774524        4.16223821140114       -0.95152836243703
H           -0.51777232312627        4.05059580944997       -0.33254084055273
O            1.49894589579581        3.78797588246383       -0.33267726693713
H            2.45846788883939        3.82299605513866       -0.28216408959444
H            1.29631801882009        3.41912034537621       -1.21383068336183
O            3.31708353399799        1.21583920551812       -2.25971533081495
H            3.49870443419017        0.44131755413612       -2.79368943590537
H            3.30958001357182        0.91840697771188       -1.32390290940227
O           -0.72321060983810        0.94387468008478       -7.79638454120383
H           -1.18207248992285        1.31538284841910       -7.01172432603159
H           -0.16134939174054        1.64904877372873       -8.13122924272850
O           -1.19580556232074        4.34380700173046       -4.16121476713388
H           -1.88041605286062        4.57222962687005       -3.51450427028548
H           -0.53657761124320        3.82038421811861       -3.66742427246324
O            0.22581688691306        1.59550158554506        4.17213808785473
H            1.00248388412217        1.86730380606761        3.64714367668442
H            0.56240788354782        0.93566075497330        4.78577392347687
O            3.00926989123660        0.88769477850153        4.28349990194170
H            2.66307455939406        0.02576330755199        3.95157129142381
H            3.62261268045089        1.19977932733589        3.61824814358162
O           -2.44267870469577        1.08360499100916        4.41824464032606
H           -2.71425951196374        0.70150196380719        3.54993994330848
H           -1.50954243253332        1.32121622139506        4.28553893598046
O           -4.66656157303289        2.69276073323498        1.84342250180290
H           -5.12161374523050        2.81670869691413        2.67342929578444
H           -3.70288433875517        2.72837849400226        2.06783315361049
O           -1.86785285932671        1.94999829868791       -5.48053840146571
H           -1.81773775817285        2.89634516591133       -5.25118888055691
H           -1.07291962116907        1.57027795419378       -5.06300928762262
O           -3.50618012338238        1.76004504837970       -2.76895265603563
H           -3.38566460672262        1.53691524498189       -1.80424964076956
H           -4.38130636583892        1.44638565925050       -3.00722009579912
O            3.29044351054677        0.27473026437762        0.33265781082232
H            2.82152117331203       -0.54538318330625        0.16402093624758
H            4.21304287369230        0.06128342267784        0.49249581028712
O           -2.02013110190868        2.81049199437326        2.21646519578344
H           -1.90247631238462        3.31855390751425        3.02940895162010
H           -1.73527469201996        3.37357423198284        1.47249827631444
O            1.13946434070647       -1.11034120489395       -7.32425705581722
H            1.00614756043830       -1.36488954306402       -6.39827848583921
H            0.48915331689290       -0.39858973546953       -7.47805784318737
88
 energy: -146.393584212836 gnorm: 0.049369188684 xtb: 6.7.1 (edcfbbe)
N           -0.41424924480637        0.48848020470252        1.64139509240771
C           -0.38035761126023       -0.05339913664306        0.27744417005125
C            0.17546633472409        0.98981897849603       -0.67503596519992
C            0.27944156878644        0.46539549661921       -2.09216572705361
C            0.49574779203692        1.55310102707702       -3.13099775415577
O            0.63039825639911        2.75088528633829       -2.77766935141470
O            0.48479925655986        1.18383655400718       -4.33412937607312
H            0.49480940232648        0.92827118113864        1.89341373861043
H           -1.11465506394085        1.24035494148215        1.76235046094027
H           -1.38280273956114       -0.34338637195246       -0.03634947240391
H            0.24330925675689       -0.94831404768441        0.25750872354043
H            1.16266153265602        1.30920468573567       -0.35551149118700
H           -0.47509679349798        1.85955298820461       -0.68615279401452
H           -0.63408640040321       -0.05355987892857       -2.39121887144262
H            1.10648577143981       -0.23577149658178       -2.21549316991153
H           -0.64321776994928       -0.25632261804221        2.31418270957779
O           -3.21086831978179        4.38128043299546       -2.15772283219490
H           -4.01796688472392        4.62497007827825       -1.67830046436629
H           -3.34967939763632        3.46369911186222       -2.48176459810249
O           -3.19950325679474        1.50763763227703       -0.15539902050981
H           -2.49274119825873        2.17401942254191       -0.10455961855050
H           -3.96026249317714        1.92294975603438        0.27858470917482
O           -2.31103812147573       -0.58243977908561       -3.59126370588362
H           -2.54442512802758       -0.79258646962213       -4.49537738873499
H           -2.62899966432263        0.33032462448255       -3.45415307698713
O           -0.57921349588557       -1.85989355230456        3.16299733130886
H           -0.79217175830424       -2.73004864995937        2.80226363277867
H           -1.10812604967347       -1.72842666398780        3.95354424994081
O            2.17823789983106        2.43756064388407       -6.11858175215164
H            2.50720480072847        3.13229846707314       -5.51895264394246
H            1.55790554810431        1.92832024026907       -5.56438405949797
O            2.45540043500388        4.36845513772876       -4.06980360423304
H            1.96022946145433        5.15228415313099       -4.31830159652860
H            1.81391655759693        3.78099943324009       -3.62224516526554
O            2.10256513996680       -1.46062774029952        3.35961788235083
H            1.12727885774177       -1.56317996289597        3.29332850191922
H            2.47685207675815       -1.84275477510786        2.56200745046812
O            0.70549430849070       -1.52856366358321       -4.59167080147619
H            0.51919338923191       -0.56742706976374       -4.51866823893494
H            0.23651019810267       -1.94508830394212       -3.82323143068993
O            1.86715510950140        2.07721192816858        1.93130915598448
H            1.58562033310474        2.79555363718678        1.34383267910028
H            2.48966521265572        1.53724533635364        1.42300120669043
O           -3.22270559501293       -0.16981623992371        2.07234564644475
H           -3.15134673110899        0.41829494900329        1.29242360046416
H           -4.15658188357356       -0.34828898044651        2.18073427979885
O           -1.42833114539511        3.81312706774999       -0.19339751473556
H           -1.95193686188015        4.16001511363656       -0.94278111051867
H           -0.51068599160909        4.06967032347344       -0.33799223216585
O            1.51051189290679        3.76844512895196       -0.32855459035595
H            2.48325567645391        3.92776292654339       -0.37002628686126
H            1.27953554822778        3.40965368092759       -1.20886475927546
O            3.31592511542990        1.21851681104595       -2.26828439373693
H            3.55153338240058        0.45797929227302       -2.80637365556709
H            3.32750177419814        0.91917126091864       -1.33841068729897
O           -0.72812304257532        0.97470140723372       -7.82618283339527
H           -1.20350147236286        1.31916571639714       -7.03977472088404
H           -0.13452414211427        1.68123468612657       -8.10713056190139
O           -1.19695198373499        4.34610159554270       -4.17349008457034
H           -1.87942798928576        4.58104361764776       -3.52696441737543
H           -0.53939487907775        3.82622879290937       -3.67753775695256
O            0.23292307087637        1.57809164635539        4.19578286411970
H            0.99002218377075        1.89059481174720        3.66473174381575
H            0.63220541756901        0.97169882556941        4.83512595842850
O            3.04240372098534        0.89163595169066        4.32937262220802
H            2.71441102780111        0.03134951038259        3.99340277672887
H            3.61095423588746        1.24181468329521        3.63766653105269
O           -2.47792051719798        1.05815699691781        4.44500218592103
H           -2.72007987131058        0.67191748794558        3.57817045964891
H           -1.55236268588649        1.33495979009645        4.32980487609009
O           -4.67382576972245        2.70463146707033        1.84696710591056
H           -5.14792719571823        2.81727256142579        2.66819608889107
H           -3.71446703837838        2.72700559487824        2.08371886657556
O           -1.86298679022688        1.95202042972808       -5.48486886993222
H           -1.81224497762698        2.89885769037206       -5.25379097165567
H           -1.06279400584598        1.57641079157024       -5.07624604753619
O           -3.53353015825512        1.75237055374874       -2.76141455238106
H           -3.41287168019383        1.51981086139622       -1.79828332403195
H           -4.41511974757178        1.46528820430207       -3.00702127425902
O            3.33005483768668        0.25513777806553        0.34891308738247
H            2.84154951955476       -0.55645069179530        0.20339521510994
H            4.25319654661572        0.04180788539469        0.50017288985362
O           -2.00989451983743        2.81128175642784        2.22492716951893
H           -1.83322539019476        3.29132297460252        3.04221517759479
H           -1.73183297810729        3.37398182411237        1.47857198155494
O            1.13680100495778       -1.12428802774242       -7.36016850931581
H            1.02677967367135       -1.36641658575706       -6.42861918338590
H            0.47665031993341       -0.42477572513477       -7.51499092685479
88
 energy: -146.397008629806 gnorm: 0.040962839290 xtb: 6.7.1 (edcfbbe)
N           -0.41902212400645        0.49893298782436        1.64768817146320
C           -0.37893727654218       -0.05252457667061        0.28853002103419
C            0.17678118565536        0.98324890014741       -0.67258387513833
C            0.27244397324962        0.45651136900073       -2.08934135083380
C            0.49351477052202        1.54733209915863       -3.13015128838310
O            0.62800508181562        2.74252982089941       -2.76819154759973
O            0.49835677605703        1.17931425424246       -4.33321164070672
H            0.48452351186928        0.95400670843462        1.90083010845458
H           -1.13077351943413        1.24487942901591        1.75996070405155
H           -1.38167187873196       -0.34276289812638       -0.02509981972686
H            0.24248634783620       -0.94911977337662        0.27704749647203
H            1.16595191309296        1.30437815443772       -0.36015856447160
H           -0.47409809982071        1.85373102401777       -0.68535263572664
H           -0.64862612906844       -0.05247137301155       -2.38368579424829
H            1.09124133226241       -0.25403875489361       -2.21689135404438
H           -0.64775703665695       -0.23798049913954        2.32595882155453
O           -3.20432056546883        4.37313784983230       -2.15665774589042
H           -4.02754912057101        4.65017395573193       -1.72566785197812
H           -3.34417649688950        3.45227982164256       -2.46879250477605
O           -3.20503310482063        1.52277160886105       -0.14781476157788
H           -2.49748512400829        2.18819668284913       -0.10354123273002
H           -3.96046853538707        1.93992071401908        0.29333115398747
O           -2.33977153075821       -0.60356548312926       -3.59992159130519
H           -2.52551138735832       -0.79922460167708       -4.51970808733092
H           -2.64733194541187        0.30871401886502       -3.46953685685234
O           -0.59810627468210       -1.88793532124729        3.17564758550767
H           -0.85711092967235       -2.74790166198081        2.81950064772328