34
 energy: -56.609849802528 gnorm: 0.172296665466 xtb: 6.7.1 (edcfbbe)
H            1.51131700000000       -0.30682800000000       -0.55501400000000
C            0.42356400000000       -0.53272100000000       -0.60971700000000
H            0.15351800000000        0.48284000000000       -2.37712700000000
H            0.30622500000000       -1.51992900000000       -1.10801900000000
N           -0.26687200000000        0.47309100000000       -1.42055200000000
H            0.31243500000000       -1.51306200000000        1.31258500000000
C           -0.16516600000000       -0.64664900000000        0.80679900000000
O            0.75046400000000        1.63132300000000        1.24106600000000
C            0.05694300000000        0.56251400000000        1.67849900000000
H           -0.17036900000000        1.42768900000000       -1.01141000000000
O           -0.37805100000000        0.56237000000000        2.81853100000000
H           -1.27994500000000        0.22829700000000       -1.50380900000000
H           -1.25406300000000       -0.84893600000000        0.72816900000000
O           -2.52782600000000        2.00936200000000        4.37460500000000
H           -2.68956500000000        1.86113000000000        3.40895600000000
H           -1.57871300000000        2.28685600000000        4.42746100000000
O            2.16914000000000        4.63022800000000        1.05817600000000
H            1.84601300000000        3.77173900000000        1.43126800000000
H            2.95276400000000        4.38156200000000        0.50616900000000
O            0.08903700000000       -5.18938800000000        0.64249400000000
H           -0.72705500000000       -5.40170900000000        1.16165100000000
H            0.46702800000000       -4.39095900000000        1.08998200000000
O            0.37320900000000        3.50013800000000        4.25114800000000
H            0.36266800000000        4.48439900000000        4.14284800000000
H            1.32660100000000        3.25019300000000        4.15531200000000
O            3.93515700000000       -0.43303400000000        1.94591000000000
H            3.26860300000000       -1.13669700000000        1.74299500000000
H            3.42528400000000        0.41424600000000        1.89338300000000
O            0.00050100000000       -3.60521700000000        4.70442000000000
H            0.41022900000000       -2.75525100000000        5.00490500000000
H           -0.72818100000000       -3.32727100000000        4.09419000000000
O            2.58494200000000       -1.28676300000000        4.29559700000000
H            2.24416900000000       -2.06094200000000        3.78068800000000
H            1.94379900000000       -1.18451800000000        5.04332300000000
34
 energy: -56.630699801647 gnorm: 0.085927222930 xtb: 6.7.1 (edcfbbe)
H            1.49456159084476       -0.30171203024796       -0.55301187830460
C            0.42831716017481       -0.54879790880914       -0.62021039919177
H            0.14701255905533        0.50371780899440       -2.37039838093592
H            0.31771213268779       -1.52231363339980       -1.11304792369692
N           -0.26171784859177        0.47324829980277       -1.42272557909070
H            0.30202634332517       -1.49408567253576        1.30869751744890
C           -0.15331145506518       -0.64190738582136        0.78989851504224
O            0.73389255617561        1.57984305363462        1.19386896176141
C            0.07854745462532        0.57269575967224        1.67921068613493
H           -0.15696386764811        1.40531610052852       -0.98448150854554
O           -0.38082807926372        0.57166727283841        2.82608105702312
H           -1.26630940805417        0.24630660940903       -1.49975351318946
H           -1.23299676862251       -0.83587692991834        0.74600702452926
O           -2.52789198347372        2.03921623414757        4.37188126885054
H           -2.67609507403612        1.85390186140324        3.42993284161092
H           -1.58350771757147        2.27140135618124        4.42520704293611
O            2.18231748462171        4.61762371899610        1.08129473093511
H            1.81882113177278        3.76413812224706        1.38495545258474
H            2.93650131199381        4.38218777877580        0.51413353019941
O            0.07377035587177       -5.16967625981306        0.63049275362996
H           -0.70966433042238       -5.41140348638764        1.15292936571010
H            0.46893611977610       -4.41791523231512        1.10210539829225
O            0.37254640524681        3.51466721727131        4.26376165456917
H            0.36478532668639        4.47882368190616        4.14109793719041
H            1.30203363471146        3.25565167156569        4.16130535683283
O            3.94521394748620       -0.42177842034658        1.88379641654036
H            3.28692897396646       -1.12762468979148        1.75863206925527
H            3.41873134628669        0.39681550511336        1.91224004569596
O            0.02666715397155       -3.59489641083748        4.65497874636430
H            0.37832490097877       -2.76404640821633        5.02388543974350
H           -0.74609141789065       -3.31576764975356        4.12961140386674
O            2.56238416616711       -1.28928232223106        4.28884590537866
H            2.24155734076841       -2.07936350576087        3.82134429650578
H            1.96159255344499       -1.17267110630197        5.04291576432292
34
 energy: -56.638039259854 gnorm: 0.027013977528 xtb: 6.7.1 (edcfbbe)
H            1.48850140650069       -0.29536488860971       -0.54922252917341
C            0.43645473054247       -0.56095818365748       -0.62435288120420
H            0.14632105951103        0.53412429909241       -2.36096921571674
H            0.33045266592471       -1.52263231858506       -1.11843690692323
N           -0.25410888991178        0.47778631982310       -1.41984107745036
H            0.29661408134180       -1.48388402823178        1.30998542514444
C           -0.15188103541013       -0.64888551812389        0.77325700950108
O            0.74591297646176        1.53298427844097        1.15406366935521
C            0.07226940288145        0.60873516898698        1.64680768708311
H           -0.13513056878780        1.38316160673911       -0.93857901609515
O           -0.36986707224102        0.56892499536337        2.81019362342163
H           -1.25434731539375        0.26883658966974       -1.49000503741421
H           -1.22558343702652       -0.83541571472491        0.75049488702503
O           -2.52418277138263        2.06267578615538        4.37500395541298
H           -2.66232110471561        1.84227800885466        3.45112562294142
H           -1.58469441768134        2.26606579778855        4.43316948990772
O            2.16778112741313        4.59229476967239        1.08254769636810
H            1.78779490521915        3.74597615206949        1.34596491581767
H            2.92624563420229        4.38489961519901        0.53215736077681
O            0.05902118909260       -5.15300860631095        0.61612826578446
H           -0.70131421631372       -5.42936893394705        1.13399221719489
H            0.47630256178418       -4.44869385914214        1.11991674227867
O            0.36422401359131        3.53172441103845        4.27408560328153
H            0.35644431159584        4.48257199906594        4.14516232516360
H            1.27711466249053        3.26077502539751        4.17932281118737
O            3.95467578536784       -0.40924612777835        1.82925604012401
H            3.31107059320374       -1.12331126903984        1.76802503549827
H            3.42195699973496        0.38784940233746        1.91439486796914
O            0.03163140025138       -3.57479528788677        4.62482013203510
H            0.35377349067677       -2.76721639570550        5.03833052271077
H           -0.76160867928437       -3.30318251523889        4.15076457390622
O            2.53883557650760       -1.29200998858607        4.27099523388276
H            2.23664129696804       -2.12175230484134        3.87894219719324
H            1.99280363688486       -1.14383528528497        5.04798075301176
34
 energy: -56.639453949661 gnorm: 0.084971752448 xtb: 6.7.1 (edcfbbe)
H            1.49160048614411       -0.30547971704372       -0.54743754882021
C            0.44205089833236       -0.57635914795839       -0.62614213017453
H            0.15246665575797        0.56350989610505       -2.34823624387120
H            0.33589013440465       -1.52984279562868       -1.13334704025514
N           -0.24367427669729        0.48370076102719       -1.40812530902842
H            0.29715686217588       -1.49697892085641        1.31204740275151
C           -0.14568005753357       -0.66604650479294        0.76895117465669
O            0.71230615804870        1.54853670083442        1.07791740325386
C            0.13085455366251        0.60988860238955        1.63547821955284
H           -0.10613013348114        1.36783434560198       -0.88990682426167
O           -0.37907263042711        0.59736275675582        2.77540511059448
H           -1.24650304345300        0.29207419341761       -1.47503874190303
H           -1.22275564603541       -0.83082067410635        0.75795200506757
O           -2.52947532957733        2.12067945545307        4.38081340477960
H           -2.64533763989116        1.80721145982976        3.47089789562710
H           -1.57328231578744        2.25526366936021        4.44948969517447
O            2.16739720994438        4.57097123118040        1.11661411663558
H            1.73379655489124        3.70821322844485        1.27825479819980
H            2.91260016131745        4.39028783775028        0.53860548947133
O            0.02894110612641       -5.11324247721708        0.57075292839825
H           -0.68782132453430       -5.46650966278256        1.11859968279309
H            0.50107668268383       -4.49066439157983        1.16046548580680
O            0.34752134526954        3.55177329841665        4.29609576025210
H            0.34592065556106        4.49834194762401        4.14191843773018
H            1.25329818265173        3.26069443365775        4.19909463985565
O            3.98289550981341       -0.39161936601949        1.71874522464586
H            3.33563868747433       -1.13308326973046        1.80562715796456
H            3.41372070604361        0.38218338813440        1.94366775084077
O            0.08074856996848       -3.55711654974744        4.53652751434960
H            0.30727868571491       -2.76222440772901        5.08800114006361
H           -0.81260178506032       -3.28470960572631        4.19641960620151
O            2.50815973880512       -1.28891373908363        4.23295120898927
H            2.22273651500780       -2.18805104089323        3.95124498293355
H            2.03608212267808       -1.10876193508757        5.06117760172408
34
 energy: -56.640897146760 gnorm: 0.064109354900 xtb: 6.7.1 (edcfbbe)
H            1.49451989787149       -0.31912273518916       -0.54627581178297
C            0.44359818991374       -0.59053799245661       -0.62846414284534
H            0.15896423355999        0.58527123831475       -2.33733451841728
H            0.33842388111736       -1.53961214772695       -1.14859753981201
N           -0.23589013426465        0.48734242501348       -1.39703065931538
H            0.30094543368137       -1.50269790329007        1.31858548470064
C           -0.14326251732923       -0.67753595440252        0.76803857682822
O            0.69037125081034        1.56961967110596        1.01209710198113
C            0.15502984082275        0.61682674787386        1.62151194326118
H           -0.08267943724605        1.35612622023269       -0.85197387038463
O           -0.37214322692354        0.62460485506311        2.75373961992496
H           -1.24259744602121        0.30888756102945       -1.46333589754634
H           -1.22219439425569       -0.83291362368461        0.76106930359353
O           -2.52667267953603        2.14213540999560        4.38713215119492
H           -2.63435759143951        1.78638616770239        3.48564090732589
H           -1.56668402970321        2.25817537271422        4.46295049754450
O            2.14936106296106        4.54914399442857        1.13079799982276
H            1.70404681502614        3.67948477750910        1.24630596386272
H            2.89744950511981        4.39220046048681        0.54330105314809
O            0.02747001429419       -5.11220513676547        0.56717987954658
H           -0.69031968205733       -5.48524480046565        1.09904066416526
H            0.49734997487888       -4.50484029334732        1.16632480448676
O            0.33101699596699        3.56598627448500        4.32552408156529
H            0.33364941344602        4.51066727614343        4.13628416302730
H            1.23369862187224        3.25905606419301        4.21428031696320
O            3.97121250610862       -0.38728323349516        1.75703722852359
H            3.36349404784427       -1.12773981139594        1.77268850699295
H            3.43433091742996        0.38672280022909        1.89714825789673
O            0.00487105730244       -3.52946734146644        4.61580255237063
H            0.33299219634593       -2.75815377885080        5.04989248864702
H           -0.78027048140268       -3.28255476955659        4.15644646469202
O            2.51222119114988       -1.31320482471400        4.23062521603701
H            2.20467713921281       -2.20962203331599        3.98348111004396
H            2.06518143344231       -1.08779793639790        5.06556810195563
34
 energy: -56.642269005379 gnorm: 0.056159696679 xtb: 6.7.1 (edcfbbe)
H            1.50101721152821       -0.33577409647957       -0.54918690576171
C            0.44394973576017       -0.59815599981691       -0.63281292269254
H            0.16838105380533        0.59424109851718       -2.33078422833825
H            0.33747314753369       -1.54891170764808       -1.15880192077817
N           -0.22907965557272        0.48798953208647       -1.38979580467022
H            0.31317119093916       -1.48502046572143        1.33264930854231
C           -0.14714658525909       -0.67357857708990        0.76626063513921
O            0.72213561542930        1.56927860133746        1.00079217934485
C            0.06588197133852        0.65963580362026        1.57941913184549
H           -0.06582687225778        1.35049968007727       -0.83281582966278
O           -0.32174319116159        0.62918912449288        2.75755954909742
H           -1.23975393878191        0.31522779517721       -1.45805995150124
H           -1.22140950499405       -0.85137635647291        0.74862208151394
O           -2.50259480044783        2.08595652567366        4.39392682981486
H           -2.63357530688266        1.81080964125861        3.49095158689276
H           -1.57023180322289        2.29338918784016        4.47031158120928
O            2.09527812559945        4.52243223667754        1.08908495950889
H            1.72012244254109        3.67106030163695        1.27514503207522
H            2.88416807867995        4.38317074646983        0.54581190980207
O            0.05750966533330       -5.14802801407235        0.60450685592072
H           -0.70216824219570       -5.48121895436891        1.07995751472629
H            0.47511666762423       -4.49444895645548        1.13988930435828
O            0.31992369649383        3.57242699135160        4.35317214042623
H            0.32089844599593        4.51678171019639        4.12945381511515
H            1.22495635007848        3.26371353403398        4.21968579020983
O            3.97365380868449       -0.38147370109053        1.74423913765144
H            3.38089505764074       -1.13033516639544        1.77288828899110
H            3.43901854688819        0.39083980419023        1.89389122542067
O            0.02668746272947       -3.51635157412909        4.58269044256069
H            0.32063854812418       -2.74823081107141        5.07235295669284
H           -0.80073806786520       -3.27374400188791        4.16971422596454
O            2.53634689729608       -1.35120132762791        4.26395044247052
H            2.19379283214964       -2.18338947082185        3.97258782095934
H            2.06105541644634       -1.09730013348913        5.05822481714900
34
 energy: -56.646815826866 gnorm: 0.043732596894 xtb: 6.7.1 (edcfbbe)
H            1.50855891162178       -0.35551486570690       -0.55631324910239
C            0.44976915441122       -0.60441535162499       -0.63701170861121
H            0.17799871663478        0.60618045129357       -2.32388262037084
H            0.33007963266708       -1.55153909535034       -1.16295965892375
N           -0.21659185882697        0.49231337652876       -1.38420936229564
H            0.32102585038714       -1.47937181039964        1.33320933827869
C           -0.13867141484809       -0.67330945806314        0.76137177248596
O            0.68423287102757        1.58554027943609        0.97467153289807
C            0.07834021304443        0.66224948679913        1.56942442930312
H           -0.03941023654692        1.34473375383013       -0.81155386015732
O           -0.31792654359733        0.64412316807410        2.74245847087081
H           -1.22832793775800        0.33046564700192       -1.44998091383459
H           -1.21271490573629       -0.85288514978948        0.74796747406947
O           -2.49922000593856        2.10226131237817        4.40142325960026
H           -2.61880652392432        1.78847700888060        3.50283960937634
H           -1.56628123720159        2.31035839453150        4.48060300516148
O            2.10106819200820        4.50952692787936        1.12558052759875
H            1.67459971703289        3.63625029424654        1.21863753053937
H            2.86278855985368        4.38063310006880        0.54544470105021
O            0.03290620548151       -5.11608781445227        0.56429089189344
H           -0.69719097658788       -5.50432784082888        1.06228569400013
H            0.49782695591336       -4.52919901919682        1.18448170764894
O            0.30805039561451        3.58033830649267        4.36181677285314
H            0.30597071753381        4.51997174890972        4.13723874261948
H            1.21115319836719        3.27516026814287        4.23308797505574
O            3.99422478714392       -0.37026942504792        1.68220279020360
H            3.40071199935991       -1.13963386454645        1.79807674059665
H            3.43158815191360        0.38961693779824        1.90861719232739
O            0.03395923812803       -3.50250108273137        4.56314123364138
H            0.30270816917424       -2.73754936417680        5.08863767862310
H           -0.81844327877596       -3.26368999587382        4.18020567835022
O            2.51340415989081       -1.34183301005383        4.22304063378801
H            2.18084757211579       -2.24358351558371        4.02851354653715
H            2.09957555041484       -1.07438679886698        5.06212444392264
34
 energy: -56.641571845569 gnorm: 0.099673140423 xtb: 6.7.1 (edcfbbe)
H            1.51954530247762       -0.38930229701804       -0.56915757627119
C            0.45781949509731       -0.61584404734041       -0.64331239366404
H            0.19446277336266        0.62764553217496       -2.31347887701947
H            0.31465363497000       -1.55623380007009       -1.16942690190590
N           -0.19543978283545        0.49947064638632       -1.37689317205649
H            0.33025333707022       -1.47764007516886        1.33156927830737
C           -0.12290502808545       -0.67705692478522        0.75502891888173
O            0.59110220058070        1.62860472712218        0.90830027244829
C            0.15163940180081        0.64666090333198        1.56955360289073
H            0.00617517086248        1.33165583580708       -0.77363235556588
O           -0.33182376225049        0.68145998706866        2.70873943889868
H           -1.20829067457024        0.35694724617461       -1.43805579222635
H           -1.19984659542605       -0.84819092642623        0.75191729698571
O           -2.50532649208921        2.15457034228469        4.41229092326456
H           -2.59119215234981        1.73619596432897        3.52432260742825
H           -1.55728091949762        2.32350214342926        4.50106607813995
O            2.05814645566497        4.47236568962027        1.11476043996654
H            1.63861801198974        3.60125382624648        1.19541171270716
H            2.83215546305112        4.36219872530585        0.55576898704728
O            0.03299866740228       -5.11750200022269        0.55723390545483
H           -0.69653866052089       -5.52373505851855        1.03969925202929
H            0.49919166927976       -4.54995680753583        1.19461411400973
O            0.28634809033381        3.59434581909680        4.38632598340109
H            0.27900422040987        4.52435362077652        4.14543309679957
H            1.18372038108628        3.28865137803967        4.25357499810223
O            3.98939666901319       -0.36996826342461        1.70956751053257
H            3.42995148546639       -1.13024507157746        1.76480282495064
H            3.45983280848033        0.39376776972028        1.87735127684485
O            0.09723406641105       -3.47759359371826        4.47604246863458
H            0.25498015361693       -2.71738727345966        5.13644514031410
H           -0.86259162114891       -3.24973559110737        4.22694562467041
O            2.52905695772706       -1.37895856778447        4.24556107849559
H            2.17191256115063       -2.24707847449753        4.04173607743349
H            2.11084071146644       -1.07911838426066        5.05537616006702
34
 energy: -56.648337958290 gnorm: 0.054037192938 xtb: 6.7.1 (edcfbbe)
H            1.52460730615855       -0.40022207708318       -0.57470651890631
C            0.45977401732891       -0.61887555225203       -0.64620256774798
H            0.20323183337649        0.63467148299003       -2.31185868092291
H            0.31013901638137       -1.55947200398609       -1.17264160378638
N           -0.18727379305922        0.50168358900373       -1.37596719215017
H            0.33697712457165       -1.46956296819187        1.33709688063010
C           -0.12027486061674       -0.67444363585963        0.75388212399546
O            0.59168243515904        1.63252540653951        0.89912073585019
C            0.13197861583778        0.66007574033207        1.55617947657893
H            0.02063780789371        1.32785609877177       -0.76233235041909
O           -0.31950866337904        0.68768315647706        2.70681943109795
H           -1.20107350076804        0.36434868400670       -1.43671572975000
H           -1.19613906333907       -0.85146775771034        0.74784472501492
O           -2.49675221474504        2.13683294430932        4.41717191733161
H           -2.58681553267945        1.75033722282412        3.53080518158169
H           -1.55570398478508        2.33510068898356        4.50827781890406
O            2.03819075297567        4.45680227345644        1.10648275051165
H            1.62832975700657        3.59278849776660        1.19197057044836
H            2.82125943797923        4.35287043731798        0.55695606315069
O            0.03696534145499       -5.12357289910121        0.56336975100678
H           -0.69739901616502       -5.52846244039704        1.03434566754658
H            0.49063278079004       -4.55290357925731        1.18587771443062
O            0.27912384151057        3.59957980334708        4.40274450785151
H            0.26905999630620        4.52782315618781        4.14252907996625
H            1.17652398147699        3.29171129737124        4.25801909433706
O            4.01353042781176       -0.36000339624659        1.62056663312419
H            3.43704098333395       -1.13962262312269        1.80596787098865
H            3.44784502823578        0.39107972344050        1.91784482338796
O            0.02736025106605       -3.46048761916843        4.55572422861883
H            0.27876041656110       -2.71375087458911        5.09664834033323
H           -0.83255277440858       -3.25050400848064        4.19143612524071
O            2.52782158669044       -1.38755118328732        4.24363468800619
H            2.16969052777631       -2.25138353254387        4.05054183273439
H            2.12013413625946       -1.08338105184995        5.05404861101104
34
 energy: -56.633019990535 gnorm: 0.139085141947 xtb: 6.7.1 (edcfbbe)
H            1.53049584234590       -0.40820384527743       -0.58240672108974
C            0.45929058589244       -0.61949440246262       -0.65062042087018
H            0.21409633227533        0.63524766226743       -2.31483473185548
H            0.30698019640488       -1.56561892067048       -1.17669618870723
N           -0.18130235907604        0.50137369176176       -1.37801352016314
H            0.35120273678143       -1.44927186896254        1.35130604130625
C           -0.12344766472265       -0.66378066529741        0.75475903079365
O            0.66542838542613        1.60644586098871        0.93003408899210
C           -0.00789220518723        0.71828805330293        1.50730839325573
H            0.02420094455675        1.32898664269278       -0.76285520399476
O           -0.26232627735729        0.66948969475277        2.73074941604323
H           -1.19707700590971        0.36393434529409       -1.44158631749826
H           -1.19309991785183       -0.86677900447911        0.73480781202643
O           -2.48132099520929        2.08911018256751        4.42062778151142
H           -2.58719615508035        1.78527395805033        3.53688422285121
H           -1.55986403398102        2.35306566187294        4.51164061175619
O            2.06549631786287        4.45871468362325        1.16930042418129
H            1.57651734930182        3.56846464962323        1.12973131979183
H            2.80604382312588        4.35198881355286        0.54920518521087
O            0.00877276835456       -5.08660544060430        0.52452259320061
H           -0.68927433856596       -5.54541966142957        1.03309032624851
H            0.51030274339565       -4.58386568326612        1.22111786013768
O            0.27075372072652        3.60001687622863        4.42034333968176
H            0.25800454472193        4.53116430893095        4.13871262556025
H            1.17389745882679        3.29156422209379        4.26041513043514
O            3.99169861868021       -0.37072480771539        1.71965804384514
H            3.44639422228272       -1.13249687219672        1.76109667290268
H            3.47878501075481        0.39742283292832        1.85555877706950
O            0.01594566245306       -3.44936629098207        4.56821025581322
H            0.27605376725897       -2.70701808983710        5.09929563431071
H           -0.82511448704616       -3.24891214098726        4.18284481149407
O            2.48465829674802       -1.34806491390235        4.15835676442765
H            2.15705967322137       -2.33441543821169        4.12292606503102
H            2.18364043858717       -1.05241109425204        5.06999187629673
34
 energy: -56.651478213284 gnorm: 0.031469480708 xtb: 6.7.1 (edcfbbe)
H            1.53049785109164       -0.41566919587791       -0.58469137475789
C            0.46037171371375       -0.61949475707555       -0.65088204729723
H            0.21906010707364        0.63811348428429       -2.31355310211287
H            0.30098227826636       -1.56311127004231       -1.17327439290607
N           -0.17619984046275        0.50345141790743       -1.37980950181411
H            0.34699440747352       -1.44558802911851        1.34668693161819
C           -0.12257928838881       -0.66262181253433        0.75177312071158
O            0.61894365923341        1.62621593374706        0.90874083708464
C            0.07929104260950        0.68430526811914        1.53367791509541
H            0.03336181047427        1.32599735005749       -0.75995217953667
O           -0.29243000811713        0.69021103710851        2.71095944789582
H           -1.19013899787341        0.36929955263337       -1.44315863830996
H           -1.19428335440881       -0.86253035494965        0.73735163009280
O           -2.48294202611200        2.10182741825016        4.42702641458690
H           -2.57932676109173        1.77013263963348        3.53748967957883
H           -1.55789912149198        2.35985028260596        4.51725781769463
O            2.03242432804829        4.44231778763449        1.13170470639860
H            1.58894635650758        3.57156228197186        1.15733024059471
H            2.79855288633477        4.34191480992631        0.55579745008658
O            0.02431456437841       -5.11002263834523        0.54718010447499
H           -0.69531258889017       -5.53830963365080        1.02558209281858
H            0.49955241808988       -4.57628449429467        1.20189751086216
O            0.26682712876453        3.60335626673546        4.42035725955940
H            0.25236482517656        4.52835978650383        4.14480549289250
H            1.16518921129412        3.29554623690077        4.26553432167621
O            4.00725058372032       -0.36245737636955        1.66923461657751
H            3.45259441673995       -1.13996347473936        1.78977621585207
H            3.46877582901625        0.39812693923453        1.87292208380446
O            0.03458547969979       -3.44497532625499        4.54664700477081
H            0.26285851952769       -2.69967121436901        5.11493365798652
H           -0.83609224440740       -3.24705256162251        4.19232182109988
O            2.51979341658492       -1.39246238424477        4.21665587626679
H            2.15602018464913       -2.28690887754354        4.08568145239600
H            2.15545521277300       -1.06536209222354        5.05147753425423
34