37
 energy: -59.774338391649 gnorm: 0.180259795857 xtb: 6.7.1 (edcfbbe)
N           -0.44376700000000       -0.47181200000000        1.74520500000000
C            0.69351000000000        0.10436000000000        1.02689900000000
C            0.25232500000000        0.99958500000000       -0.14624500000000
C           -0.57382300000000        0.30680200000000       -1.24485700000000
C            0.17276200000000       -0.78812900000000       -1.95771100000000
O            0.40822200000000       -0.68794500000000       -3.15102700000000
O            0.54634400000000       -1.90328400000000       -1.30373900000000
H           -0.08747200000000       -1.00411400000000        2.57127000000000
H           -1.08118400000000        0.28586300000000        2.08138600000000
H            1.28097900000000        0.73286000000000        1.73117400000000
H            1.36804500000000       -0.70373400000000        0.67713900000000
H            1.15866700000000        1.44313000000000       -0.61117500000000
H           -0.35578800000000        1.83434200000000        0.26527400000000
H           -1.51736400000000       -0.10080200000000       -0.82923500000000
H           -0.85273400000000        1.08677100000000       -1.98587200000000
H           -0.96872000000000       -1.13389300000000        1.13151600000000
O           -1.63246000000000        0.72666400000000        4.81864900000000
H           -2.55394800000000        0.99371700000000        4.57338500000000
H           -1.45509800000000        1.20049500000000        5.66990700000000
O            0.53278600000000        3.27051400000000       -5.36806400000000
H            0.18247600000000        2.45294200000000       -5.80334500000000
H           -0.16770100000000        3.52374200000000       -4.71552500000000
O           -1.43460800000000        3.03677700000000        4.68381700000000
H           -0.88730000000000        3.49990400000000        5.36688200000000
H           -1.77122500000000        3.76334400000000        4.10123400000000
O           -2.39921400000000       -3.24273000000000        4.20529500000000
H           -1.44669300000000       -3.13783100000000        3.95567200000000
H           -2.88620900000000       -2.64773500000000        3.58125200000000
O            1.00659500000000       -3.40518400000000        5.09316700000000
H            1.35407600000000       -2.47960200000000        5.03691100000000
H            1.19183900000000       -3.79435000000000        4.20162400000000
O            1.86529500000000        2.69802300000000        4.93615200000000
H            1.30960000000000        2.99177300000000        4.17095500000000
H            1.78083500000000        1.71137900000000        4.93979800000000
O           -1.37345800000000       -3.49861300000000        0.39775900000000
H           -0.39113300000000       -3.62122100000000        0.37296600000000
H           -1.72916900000000       -4.39232000000000        0.63306700000000
37
 energy: -59.800150046903 gnorm: 0.088956737741 xtb: 6.7.1 (edcfbbe)
N           -0.44342892356916       -0.47507161910145        1.74583350986842
C            0.69967094172804        0.10989534380132        1.02732719714985
C            0.25204636692551        1.00112454421974       -0.13309120093105
C           -0.56943962224812        0.30162285693661       -1.22626925358250
C            0.16826183118726       -0.80865320849201       -1.95800668532450
O            0.41930731760053       -0.68985364335925       -3.16616430191929
O            0.54330703491797       -1.84434551573192       -1.27936694254968
H           -0.10782640798054       -1.00220360962619        2.56453615454580
H           -1.08011418423712        0.26659162414581        2.07982552022177
H            1.28103797562126        0.72672278273821        1.72397094614998
H            1.34494919351617       -0.69434852840201        0.65217290069944
H            1.14574049123619        1.43253955346838       -0.60076426387955
H           -0.34858039528717        1.83097559490374        0.26160354827827
H           -1.50346035959540       -0.10928702546567       -0.82325243683805
H           -0.84420276584394        1.05250196863145       -1.98074244333456
H           -0.95628035124281       -1.12947127647315        1.13007881471087
O           -1.66632617003354        0.62869786057536        4.83531692028702
H           -2.53857595161809        0.97606594415272        4.57557914248478
H           -1.44778309292037        1.14462124062152        5.63197862930993
O            0.52069414490538        3.27166303518295       -5.37203854991212
H            0.19110943031410        2.46197676356015       -5.79514604964793
H           -0.16245833795130        3.52059940253382       -4.72786885622865
O           -1.42093530793524        3.11085651648975        4.67276192539819
H           -0.88526262915202        3.54289249266566        5.35647684672833
H           -1.76823314452842        3.82117959067498        4.11272592609027
O           -2.40168450096815       -3.23939939427576        4.19835324876312
H           -1.46155769764213       -3.13867969334582        3.97395669079603
H           -2.87733401363142       -2.65759333094251        3.58273895992478
O            0.97460448961386       -3.39356016071618        5.06749923450626
H            1.37296429393940       -2.50524592859177        5.04852233882487
H            1.22090421797060       -3.79920678635360        4.21749304364413
O            1.85573510152993        2.70072411322986        4.93010078652390
H            1.31268204829022        2.98212866372763        4.17525869917861
H            1.78261236696965        1.73283778276829        4.94469735824020
O           -1.37342734159977       -3.48011775316446        0.48678113000836
H           -0.41492872506234       -3.61243831542971        0.30932712486338
H           -1.71849932321824       -4.38705388555682        0.60935438695052
37
 energy: -59.807021138497 gnorm: 0.041983714325 xtb: 6.7.1 (edcfbbe)
N           -0.44567612437419       -0.48320647958990        1.74558985957072
C            0.70315140191136        0.11234671546697        1.02591637261785
C            0.24999061320246        1.00740750540015       -0.12043656384224
C           -0.56202171454273        0.30088183368094       -1.21023916463378
C            0.22832691378618       -0.81186891404597       -1.93098341906979
O            0.40615328119603       -0.69698630182553       -3.16843196490730
O            0.49745847992831       -1.82439304083736       -1.26830943498492
H           -0.12995608572141       -1.00548051419508        2.56173216701964
H           -1.08677807319802        0.24392252297985        2.07353590802897
H            1.28238749225153        0.71231849457214        1.72132322861213
H            1.31909116507667       -0.69072398101893        0.62405634351456
H            1.13593050840094        1.43019322417877       -0.58902509234347
H           -0.35089089572517        1.82939725486650        0.26203571145424
H           -1.47992896568899       -0.13523617529048       -0.81676910707966
H           -0.84240182034081        1.02777618051012       -1.97376284747818
H           -0.94094266456323       -1.13431331372017        1.12420665366533
O           -1.67774323142063        0.58959809548856        4.80157840441708
H           -2.53921406555234        0.93667833601152        4.57989482293185
H           -1.43972525433664        1.07007526206305        5.59289821552105
O            0.50711242153850        3.27831330752882       -5.38132781947683
H            0.20597664354176        2.46712321974922       -5.79096432787039
H           -0.15949603780015        3.52287200438835       -4.73935893407264
O           -1.40601672255742        3.17775422981932        4.67054295622814
H           -0.87963857440482        3.58647512202562        5.35441974721310
H           -1.77009848639669        3.87284706578484        4.12782202314845
O           -2.41083068653128       -3.23811638174257        4.19547518596181
H           -1.47409608837904       -3.14638300604495        4.01174857115452
H           -2.86994438182338       -2.67015236117910        3.57661111796275
O            0.94651523630387       -3.38711669884794        5.03675196125009
H            1.39750656940344       -2.53461039719587        5.06556904046068
H            1.25614783866037       -3.81388879578432        4.22917998029631
O            1.84051913122545        2.71144781344306        4.92533631899134
H            1.31231827886168        2.97760175127508        4.17191381122536
H            1.79025625128823        1.75649214695517        4.95750226776777
O           -1.37309428055813       -3.47143981494760        0.48339867045744
H           -0.43837912085064       -3.56551758755532        0.29238018683002
H           -1.70668095180881       -4.35240032236791        0.62974914945587
37
 energy: -59.809121074958 gnorm: 0.088843414756 xtb: 6.7.1 (edcfbbe)
N           -0.45148771343687       -0.49194445774164        1.74241410630959
C            0.69928747173130        0.10770087134779        1.02230610540847
C            0.24406256280108        1.00892893477207       -0.11865693668656
C           -0.56955873278829        0.29992059943727       -1.20659490294651
C            0.19901573646214       -0.85042344072374       -1.92025759176275
O            0.43170396589853       -0.69625873195600       -3.14528191464225
O            0.54522205119499       -1.80686175764754       -1.22479749750191
H           -0.14359360553136       -1.01315045605123        2.56284483969171
H           -1.09919421298675        0.23148113172842        2.06498100824170
H            1.28497158473461        0.69612656123858        1.72174480730400
H            1.30281233946839       -0.69713730545383        0.60695710639620
H            1.13226780382700        1.42881606217033       -0.58691615137350
H           -0.35320413152929        1.83240178066274        0.26742111317390
H           -1.48044632922555       -0.14207624534954       -0.80704280511580
H           -0.84860147003052        1.02073775138333       -1.97408237781096
H           -0.93540924378923       -1.14466896435401        1.11418101289596
O           -1.69491204668132        0.55051604724228        4.75728099155292
H           -2.55595163223487        0.92695832601480        4.57328136839319
H           -1.40542742958701        1.00721497644228        5.54944643909152
O            0.49597932922110        3.29699177171179       -5.40072109639932
H            0.22552482286742        2.46125119247721       -5.78769281330362
H           -0.16150933524895        3.52771179570828       -4.74358395767532
O           -1.38346802949561        3.21768045229203        4.66253591299834
H           -0.87199301105303        3.62018161318151        5.36269800038940
H           -1.78154892704156        3.91938878670201        4.14626591027507
O           -2.42971160285683       -3.24606653188382        4.19602045385427
H           -1.47928226506474       -3.15384086271460        4.06872955739121
H           -2.86274300209177       -2.67674577786041        3.55847585874317
O            0.88692818779681       -3.37517665172258        4.99718390593221
H            1.44091061205212       -2.56487859422470        5.09102677152112
H            1.31184776250507       -3.83986218185732        4.23800080709447
O            1.82479735970045        2.73299319912533        4.92604437859989
H            1.30520308771464        2.97445393597168        4.15696887924563
H            1.80549886377624        1.77570688564596        4.97920276592106
O           -1.37565424848726       -3.41537698344954        0.62942057541322
H           -0.45842519163153       -3.52688562875106        0.17698336770861
H           -1.69862338095564       -4.34612010351574        0.59477200166730
37
 energy: -59.810407298408 gnorm: 0.057388072737 xtb: 6.7.1 (edcfbbe)
N           -0.45699436777690       -0.49992650494834        1.73935036910965
C            0.69378694474322        0.10198315213227        1.02040315216408
C            0.23791047658853        1.00892045498451       -0.11829577196470
C           -0.57706446392193        0.29758062149349       -1.20637425067930
C            0.15325611990095       -0.88845634789349       -1.91958978753671
O            0.45816083766203       -0.70153408726359       -3.12507968665634
O            0.60182352751807       -1.80029248714102       -1.17822213720362
H           -0.15183584447285       -1.02075879723208        2.56555741046817
H           -1.11176337790665        0.22299136267047        2.05777277089970
H            1.28755587906631        0.68332380032888        1.72383315174604
H            1.29325776145783       -0.70367756737760        0.59730982105789
H            1.12995320046576        1.43020436766144       -0.58524491818967
H           -0.35599230184477        1.83620380928286        0.27464050364476
H           -1.48601570308933       -0.14269126709487       -0.79850833964646
H           -0.85364296993572        1.01516687154767       -1.97790804622402
H           -0.93290455972942       -1.15752899553791        1.10673877677545
O           -1.71893670999991        0.49619885505089        4.72579034320245
H           -2.57300821787144        0.93066424749948        4.56206360654452
H           -1.36704790794791        0.95584993431612        5.50779880863201
O            0.48709556395972        3.31772088267183       -5.42216723766442
H            0.24368480327187        2.45342574918350       -5.78385225928461
H           -0.16327995277397        3.53120070547733       -4.74413717661170
O           -1.36063352912961        3.24948918340781        4.65133258692449
H           -0.86576867262031        3.65096636347769        5.37281599850630
H           -1.79258734126299        3.96432043727823        4.16318512306898
O           -2.44650463089515       -3.25421371067949        4.19962160389189
H           -1.48138403447986       -3.16220833854928        4.12198966541978
H           -2.85200492394150       -2.68118347526702        3.53800825500521
O            0.93314917515607       -3.39433001882674        4.99400746345106
H            1.43147834559691       -2.57498275233054        5.09020011831549
H            1.30526081650260       -3.84645118442388        4.23075957906196
O            1.81079926765407        2.75390133530783        4.92891758773642
H            1.29581460179209        2.96980478852082        4.14184297809938
H            1.82100285353587        1.79072254104894        4.99910757446806
O           -1.37618418628137       -3.41466426549765        0.51393983930514
H           -0.46367535180910       -3.46505141092695        0.25696881677649
H           -1.70147312717627       -4.30300025235385        0.62698370738071
37
 energy: -59.815050972528 gnorm: 0.032702889964 xtb: 6.7.1 (edcfbbe)
N           -0.46057604290517       -0.50341056377404        1.73844365511224
C            0.68994053872652        0.09966790580599        1.02491292843478
C            0.23456800728063        1.01019556362138       -0.11232880480354
C           -0.56944186676133        0.29105216723547       -1.20112642237932
C            0.24492590188597       -0.84439385477180       -1.89401537183870
O            0.42471426092279       -0.73280666519508       -3.12553733165958
O            0.54253212815747       -1.83949825424935       -1.18801664473740
H           -0.15321877013006       -1.02375212877509        2.56627703032681
H           -1.11873449826186        0.21977993673541        2.05534434298404
H            1.28501701097944        0.68138293726894        1.72927863677041
H            1.29537893544682       -0.70374833360236        0.60260584685750
H            1.12528507527835        1.43896846671201       -0.57865057911996
H           -0.36789522373182        1.83376919703708        0.27910567233259
H           -1.48097365582398       -0.15831170901191       -0.79860820463368
H           -0.85479691420339        1.00184630954195       -1.97854340822519
H           -0.93523488553780       -1.16486906159849        1.10664107101834
O           -1.71415467851054        0.49536995239999        4.69640382785305
H           -2.57462440755913        0.91385936819074        4.54547792762340
H           -1.37012026380727        0.93867199922450        5.48605527140418
O            0.48524655896499        3.32725760388978       -5.43368273664173
H            0.24817155852081        2.45562380408119       -5.78402778147065
H           -0.16254317879301        3.53190978725279       -4.74678528621185
O           -1.35891360107268        3.26035240232234        4.65446547823217
H           -0.86336650073867        3.66248389419764        5.37768636856945
H           -1.78714931317577        3.97866805448355        4.17051798329301
O           -2.45240878789828       -3.25977662066238        4.20897715500838
H           -1.48658322943705       -3.16844685684125        4.14638701518176
H           -2.84076582289480       -2.68463455949126        3.53445095758342
O            0.94072946115549       -3.39965281158630        4.98603443708472
H            1.43640359363225       -2.58376840865288        5.08948067544523
H            1.31397598302116       -3.85459351688425        4.22851498779637
O            1.80469624872777        2.76639500580963        4.93273468066895
H            1.28843749447040        2.96683980988772        4.13944800309376
H            1.82938083514641        1.80219546620079        5.00569965126697
O           -1.38052052044309       -3.38786803668996        0.52941438666139
H           -0.46862727607606       -3.42736475578966        0.23899054549182
H           -1.69346615454976       -4.28970549432551        0.61953403562067
37
 energy: -59.818027126253 gnorm: 0.052323412649 xtb: 6.7.1 (edcfbbe)
N           -0.46804808633384       -0.51503718686244        1.73900778187387
C            0.68409125825043        0.09215159647181        1.02921709567161
C            0.22721188630364        1.00292210340387       -0.10527488027473
C           -0.57419965659715        0.27626528715208       -1.18999564890004
C            0.23633995937871       -0.87038958637288       -1.87949499267431
O            0.43979828684096       -0.74634958924048       -3.10578315399398
O            0.57035598818030       -1.83254463823404       -1.16316042654265
H           -0.16624485109170       -1.03018015875070        2.56967716652053
H           -1.13245269558981        0.20326776087007        2.04893051163436
H            1.27854413928979        0.66928249651382        1.73422412467124
H            1.28557271898442       -0.70947195816954        0.60202461099189
H            1.11495701847790        1.43459687768542       -0.57115965763096
H           -0.37648181341266        1.82423603278691        0.28475462887261
H           -1.48557842703785       -0.16888603714213       -0.78873060771315
H           -0.85578383671442        0.97923431013375       -1.97374531724943
H           -0.93296692136060       -1.18174236603505        1.10676606813274
O           -1.70908171303662        0.49031373784655        4.62825529021063
H           -2.57998611204246        0.87441364528579        4.51632925025770
H           -1.37065688707418        0.88651650810158        5.43425776155266
O            0.48333243247217        3.33470400731985       -5.44393118536048
H            0.25570627853041        2.46679970185683       -5.79166966960543
H           -0.16202011975636        3.54039905353203       -4.76101327998687
O           -1.35515889411729        3.29799266812847        4.66641486566342
H           -0.85321908657391        3.69297350186569        5.38320694065084
H           -1.77849576791080        4.01190727114480        4.18506766454289
O           -2.46069153451231       -3.26521557899091        4.22668505980726
H           -1.49621438870617       -3.18409891234512        4.19349742048144
H           -2.82412977156093       -2.69864375259254        3.53339119923116
O            0.88445869966151       -3.38878252633171        4.94132404657145
H            1.48347707346598       -2.61631289564895        5.10792796441774
H            1.37047598361916       -3.88363891260301        4.23284988915135
O            1.79549318615961        2.78688646406814        4.93348445777759
H            1.27380478549490        2.96794947455953        4.14298878654243
H            1.84114121607969        1.82746699034667        5.01882139941772
O           -1.38873694053532       -3.33128246484294        0.56207543739055
H           -0.48553175083159       -3.33985780131585        0.18842321162970
H           -1.67379365638561       -4.24815712359858        0.61591618625769
37
 energy: -59.808397256045 gnorm: 0.131921252991 xtb: 6.7.1 (edcfbbe)
N           -0.47714768349561       -0.52948248001739        1.74161200685155
C            0.67697057569209        0.08307078952271        1.03654639603833
C            0.21813159297084        0.99212893840761       -0.09521982099097
C           -0.57955956132848        0.25634732056323       -1.17519443864783
C            0.19928036942228       -0.91944009553572       -1.86675984109874
O            0.46768740166389       -0.76069589091203       -3.07826831462628
O            0.60697523616917       -1.82275171177073       -1.13373654889871
H           -0.18343259203328       -1.03638029049350        2.57602615645282
H           -1.14966795325332        0.18137397173375        2.04181359282591
H            1.26982041572384        0.65382211856781        1.74193094045393
H            1.27263964104369       -0.71594579966513        0.60300397451542
H            1.10112207156473        1.42898089059958       -0.55951003649303
H           -0.38741266612852        1.80976712366717        0.29281103381931
H           -1.49155626924677       -0.17879621626002       -0.77671455628017
H           -0.85196516283917        0.95001091185957       -1.96668491942615
H           -0.92873776977504       -1.20437999521415        1.11047177547035
O           -1.70868284417148        0.48024035765840        4.53849551493532
H           -2.58883394184751        0.83107046395739        4.48559783223818
H           -1.36456075500746        0.81304408101757        5.36074694531282
O            0.47673552165070        3.34681585289276       -5.46132652897237
H            0.26929903946150        2.48055418636214       -5.79846297195006
H           -0.15989802607562        3.54982918614279       -4.77873389900585
O           -1.34547672997034        3.34665869474524        4.67991820673074
H           -0.83909979000869        3.73412201749328        5.38792358189410
H           -1.77037874372008        4.05137923833660        4.20546395617292
O           -2.46515765964618       -3.27179466751261        4.24941855771158
H           -1.50936869282287       -3.20270107313609        4.25201580531851
H           -2.79702564769935       -2.71818213370171        3.53743434172112
O            1.00371823664769       -3.42917031740456        4.94589548120891
H            1.44947589365064       -2.62518672816122        5.08623968888529
H            1.33194397998592       -3.89179857259528        4.21440415834092
O            1.78423954668968        2.81057071005745        4.93454282822585
H            1.25549190931723        2.96915178472996        4.15232058771879
H            1.85662465275412        1.86142041642975        5.03350208643931
O           -1.38651459089766       -3.23449406867322        0.69242635919332
H           -0.50961440746677       -3.24142228860061        0.07150238395303
H           -1.65077659696353       -4.19804872509474        0.57010768394945
37
 energy: -59.822452677018 gnorm: 0.029507093696 xtb: 6.7.1 (edcfbbe)
N           -0.47835400393117       -0.53103150064453        1.74345729413059
C            0.67413892441775        0.08082453900807        1.03997300133468
C            0.21559640360957        0.98971254894566       -0.09443366927403
C           -0.57868532153722        0.25389708386991       -1.17780217270452
C            0.22259576048969       -0.90384836066299       -1.86161488257612
O            0.45872172670524       -0.77335666799860       -3.07924723785506
O            0.58992183212333       -1.84504220844508       -1.13017306659966
H           -0.18089550423336       -1.03858385771070        2.57996947466152
H           -1.15221358038890        0.18224543342052        2.04411741206633
H            1.26779876971887        0.65554307804532        1.74679727454218
H            1.27670819755530       -0.71775942004859        0.60945212386335
H            1.10074286681542        1.42905329260127       -0.55823388062980
H           -0.39364147991906        1.80761564877459        0.29485358934618
H           -1.49193604992360       -0.18563162608135       -0.77715143093986
H           -0.85493935433925        0.94927741066692       -1.96934300091373
H           -0.93200775230260       -1.20808499490112        1.11301720079497
O           -1.71245830035336        0.47186689229835        4.52100143528527
H           -2.60193602593253        0.83937815876994        4.48272213775651
H           -1.34756028383588        0.80403587755438        5.35011103391838
O            0.47397657460452        3.36081298058491       -5.47362083535404
H            0.27659700963790        2.47334159135737       -5.79610674986001
H           -0.16139735083821        3.54961700257807       -4.77567189918977
O           -1.33775763994920        3.34376135729831        4.67441866214564
H           -0.83658935132377        3.73545333604633        5.39334027048976
H           -1.77806922699856        4.06083060821569        4.21065898875723
O           -2.47008522493773       -3.27548270601951        4.25311374020461
H           -1.50552343275796       -3.20619544613963        4.26411740090211
H           -2.79317320232116       -2.71739965053317        3.53253267252170
O            0.95151862964353       -3.41728466756703        4.92920374849805
H            1.47560727379281       -2.63148135997851        5.09678025686895
H            1.36376287467022       -3.90317132545972        4.21427523401285
O            1.78183192164078        2.81823900985505        4.93841489814731
H            1.24914462712205        2.96757530871195        4.14899962427330
H            1.86437644455226        1.86269011034502        5.03823556996086
O           -1.37792666992742       -3.23486449756090        0.58861137326729
H           -0.50021145059032       -3.23820377857391        0.14283399072421
H           -1.66239063074749       -4.15866120062638        0.59395041741012
37
 energy: -59.825205170915 gnorm: 0.048640064066 xtb: 6.7.1 (edcfbbe)
N           -0.48763895867915       -0.54598608251593        1.75482400854226
C            0.66343219471987        0.06918039962099        1.05371591916931
C            0.20357373933244        0.97455472486285       -0.08345301085740
C           -0.58022325040965        0.23091509550014       -1.16912119069623
C            0.24175961703924       -0.92130010415327       -1.83876780270295
O            0.46643575259553       -0.80755986678040       -3.05975937641908
O            0.57670917335216       -1.87830075048985       -1.10685692440895
H           -0.19050152410267       -1.04588672798245        2.59657214860686
H           -1.16843707973214        0.16431398916101        2.04895093221981
H            1.25390282345758        0.64683535983888        1.76129345132143
H            1.27131454754873       -0.72689594824474        0.62585784182509
H            1.08750534141496        1.42043974801262       -0.54483043302921
H           -0.41389028769249        1.78857173239485        0.30295328539777
H           -1.49464467739018       -0.21078629276791       -0.77112169524595
H           -0.85579486177801        0.92082815490913       -1.96645748693716
H           -0.93442273774641       -1.23329153836727        1.12875606317717
O           -1.71900971314339        0.44109531564809        4.44161985324612
H           -2.60540806811502        0.81714984534140        4.42081798923110
H           -1.34107935143869        0.76057184788653        5.26762100719577
O            0.47026525311211        3.38061187220843       -5.49674603223081
H            0.28940427685697        2.48688507864009       -5.80900209101036
H           -0.16024562313500        3.56089149623129       -4.79125163120909
O           -1.31936624947487        3.37392360677558        4.67706630918411
H           -0.82487900937514        3.76292728587876        5.40488728645896
H           -1.78008914685080        4.09670928895448        4.23440172754864
O           -2.47271930085390       -3.28453019076135        4.28113384852366
H           -1.50844429450348       -3.22851944295440        4.31828938178427
H           -2.76707194349027       -2.73613516099864        3.53888712226075
O            0.90200174700389       -3.40432224077458        4.87851452479593
H            1.52654676524029       -2.66614275638529        5.09854716654190
H            1.40565142805206       -3.93246682479236        4.21302108919447
O            1.77346541613083        2.84499752602617        4.94396474027136
H            1.22339099237612        2.96867030459595        4.16018542084415
H            1.88645848384695        1.89188594448243        5.05518576203109
O           -1.36295746727349       -3.13842663850748        0.59220709164671
H           -0.50862328090514       -3.12535035638036        0.13378925254685
H           -1.65108272597683       -4.06636969411797        0.55586445116527
37
 energy: -59.828415845833 gnorm: 0.041437336078 xtb: 6.7.1 (edcfbbe)
N           -0.49569063335549       -0.55712535834668        1.77125366626030
C            0.65326328887503        0.05829857084883        1.07014633448083
C            0.19291588217726        0.95662538724433       -0.07247288646492
C           -0.58036838657384        0.20551267389281       -1.16077852103457