37
 energy: -59.747668734623 gnorm: 0.181683254783 xtb: 6.7.1 (edcfbbe)
N           -0.44376700000000       -0.47181200000000        1.74520500000000
C            0.69351000000000        0.10436000000000        1.02689900000000
C            0.25232500000000        0.99958500000000       -0.14624500000000
C           -0.57382300000000        0.30680200000000       -1.24485700000000
C            0.17276200000000       -0.78812900000000       -1.95771100000000
O            0.40822200000000       -0.68794500000000       -3.15102700000000
O            0.54634400000000       -1.90328400000000       -1.30373900000000
H           -0.08747200000000       -1.00411400000000        2.57127000000000
H           -1.08118400000000        0.28586300000000        2.08138600000000
H            1.28097900000000        0.73286000000000        1.73117400000000
H            1.36804500000000       -0.70373400000000        0.67713900000000
H            1.15866700000000        1.44313000000000       -0.61117500000000
H           -0.35578800000000        1.83434200000000        0.26527400000000
H           -1.51736400000000       -0.10080200000000       -0.82923500000000
H           -0.85273400000000        1.08677100000000       -1.98587200000000
H           -0.96872000000000       -1.13389300000000        1.13151600000000
O           -1.55955700000000       -2.66266700000000       -1.98397800000000
H           -1.46382500000000       -3.60928000000000       -1.70944100000000
H           -0.95165900000000       -2.56664700000000       -2.75977000000000
O           -2.70682500000000       -3.48220000000000        2.84971000000000
H           -1.80758000000000       -3.87821000000000        2.72664100000000
H           -2.78192400000000       -2.80811200000000        2.12819800000000
O            3.06324600000000       -2.72790100000000       -1.22959200000000
H            3.81336500000000       -3.07624700000000       -0.68499400000000
H            2.51107100000000       -3.52509600000000       -1.43008100000000
O           -3.40922400000000       -3.34061700000000        0.04612500000000
H           -3.09712600000000       -4.19424500000000       -0.34697200000000
H           -2.64608300000000       -2.72033200000000       -0.06996800000000
O           -0.01087200000000       -4.51314700000000       -3.09761100000000
H           -0.13110300000000       -5.36337400000000       -2.60438800000000
H            0.69780700000000       -4.03466900000000       -2.59816500000000
O           -0.01971600000000       -4.61882300000000        0.43626600000000
H           -0.97876900000000       -4.38294600000000        0.50830400000000
H            0.41600200000000       -4.11194400000000        1.16690700000000
O            2.49249700000000       -3.17866300000000       -4.07657100000000
H            2.77052600000000       -2.51246500000000       -3.39871300000000
H            2.32049600000000       -2.64508800000000       -4.89286000000000
37
 energy: -59.778698008140 gnorm: 0.093534253892 xtb: 6.7.1 (edcfbbe)
N           -0.44012254675442       -0.47256049319384        1.74628519229394
C            0.70342776462792        0.11227916779724        1.02728646280506
C            0.25375539405470        1.00791993859923       -0.12993807550156
C           -0.56398291024467        0.31256860096877       -1.22604427871350
C            0.20236445856001       -0.78264926090320       -1.94711255829348
O            0.43124616941431       -0.68009562619856       -3.16270791905875
O            0.59697695911299       -1.80263748465553       -1.25937597572546
H           -0.09977216801378       -1.00332186104495        2.56345187687129
H           -1.07944888313882        0.27099370203137        2.07263535103766
H            1.28530870887262        0.72748589382947        1.72470422013742
H            1.34775550638327       -0.69271074934013        0.65017164332031
H            1.14771402653166        1.43771507463626       -0.59828657500917
H           -0.34780965533009        1.83710733258278        0.26483928480618
H           -1.49771947656003       -0.10822912921070       -0.83078148104088
H           -0.84479049713433        1.05952812548143       -1.98304600915184
H           -0.95107682525018       -1.11835866218867        1.12376680398296
O           -1.68118414965026       -2.70458334434919       -2.02887854460085
H           -1.45990612804573       -3.61061851035375       -1.72317632060542
H           -1.01816401139926       -2.55938376754286       -2.73238381579012
O           -2.67805981969743       -3.45524299942422        2.88265396008747
H           -1.82157632923790       -3.88963555990105        2.71995304791664
H           -2.81202566984977       -2.85836800179839        2.11762607753930
O            3.09778922754319       -2.73989283158963       -1.22432597479763
H            3.82540910298059       -3.09647429544069       -0.68709004753586
H            2.52071673164027       -3.49941369794293       -1.41271534735824
O           -3.37098010580188       -3.34665832194396        0.11230852501202
H           -3.13860154647082       -4.17242894195691       -0.35620894150828
H           -2.65785800680910       -2.72189478642335       -0.15692473534569
O            0.00857938817408       -4.55424964390153       -3.10635328190192
H           -0.09997341944195       -5.37346706943929       -2.59470043062162
H            0.67130943099578       -4.02783844382039       -2.61903654964753
O           -0.03602385109172       -4.62437600052196        0.44862873418583
H           -0.97233573070517       -4.37090801836498        0.51536742147119
H            0.41482524820845       -4.11630882973612        1.14343130539790
O            2.53123654011725       -3.17381933817142       -4.08914226275578
H            2.74343002561190       -2.52105739885152       -3.39473981423075
H            2.31031604779812       -2.64108776771705       -4.87109196767099
37
 energy: -59.790986126532 gnorm: 0.059055507483 xtb: 6.7.1 (edcfbbe)
N           -0.43675791005774       -0.47302994621348        1.74538143269597
C            0.71329347388815        0.12254863321539        1.02510064739856
C            0.25455257968629        1.02284516798225       -0.11573075454804
C           -0.55061814970667        0.32281583152958       -1.21251740780357
C            0.26427049870899       -0.77653728005086       -1.92200960293148
O            0.43752575820668       -0.67548248968522       -3.16422701056527
O            0.57190924273020       -1.76005997044088       -1.24457107384646
H           -0.11168200927273       -1.00343412769221        2.55614863341367
H           -1.08068568325720        0.25830586201641        2.06024176660896
H            1.29564461941877        0.71909409577205        1.72038498165585
H            1.32628939456875       -0.68115990274636        0.61629003984842
H            1.14135744282769        1.44307011570173       -0.58402558588649
H           -0.34360896866732        1.84530605714479        0.26993681969199
H           -1.47274825816922       -0.12161101279956       -0.83674234275777
H           -0.83412977597433        1.04743147701742       -1.97784856989031
H           -0.93144322825249       -1.10325102013464        1.10879187188512
O           -1.72670841228136       -2.73014423325396       -2.01797010552611
H           -1.45817998860970       -3.62707897579790       -1.77303680767611
H           -1.12271797734575       -2.53230402726650       -2.73565575030339
O           -2.63576894048535       -3.40743031221783        2.94182756648313
H           -1.83552400705398       -3.90794314593374        2.71991748608252
H           -2.86719599380265       -2.94230311609760        2.08968157535340
O            3.14111266440708       -2.75265574806262       -1.21044464039228
H            3.85758633204152       -3.11945274377545       -0.69014891667018
H            2.53714154194242       -3.47543622589779       -1.39083315608849
O           -3.33126461544422       -3.33146004163781        0.15432392336071
H           -3.18947703283184       -4.15206304765179       -0.34101590941197
H           -2.66330177622615       -2.72068177765451       -0.25121882330578
O           -0.01124335990812       -4.57010436195486       -3.07433206791667
H           -0.04912387714661       -5.39931030002214       -2.59151917700294
H            0.67267032871799       -4.03550397191365       -2.65802055906186
O           -0.06106387935743       -4.61556539065799        0.44505728168774
H           -0.98078111047326       -4.35921306230697        0.53107189326175
H            0.41807915210353       -4.12826324563857        1.11656351676278
O            2.55596179682815       -3.16497767366411       -4.09299051587070
H            2.72560689494821       -2.52998028333013       -3.38613661393384
H            2.30177223329929       -2.63765280588096       -4.85067504480107
37
 energy: -59.798310367692 gnorm: 0.061144996133 xtb: 6.7.1 (edcfbbe)
N           -0.43577328275653       -0.47241672824965        1.73650190749705
C            0.71738817239010        0.13018055775687        1.01697507649162
C            0.25317410307185        1.03829611031211       -0.11456103835564
C           -0.55056436253730        0.33751503399521       -1.21367852062645
C            0.23557289904349       -0.80903041385790       -1.91494491161300
O            0.47459310039411       -0.66891225320829       -3.14480480702592
O            0.59933274807080       -1.73711843300447       -1.19986400578395
H           -0.12023674677568       -1.00549273946974        2.54744546911132
H           -1.08664095568994        0.25373596799030        2.04411135229859
H            1.30853470004297        0.71077603584657        1.71623251318416
H            1.31289547149224       -0.67433453337334        0.58806362123873
H            1.14119934608522        1.45711486895051       -0.58046912381430
H           -0.33997139202462        1.86080652024024        0.27702953945529
H           -1.46677522038444       -0.11292597092827       -0.83860033806958
H           -0.82740840054393        1.05549945132534       -1.98364451319994
H           -0.91848067875459       -1.09604607598068        1.08605780807783
O           -1.78429273020771       -2.76459378164615       -1.99363677472465
H           -1.42271835197300       -3.66474664737878       -1.82677344175425
H           -1.23182209652086       -2.45363182609821       -2.73013942748049
O           -2.63466540295745       -3.41036175033250        2.93515159120249
H           -1.84568227361888       -3.91406828219124        2.74065666331449
H           -2.88263124889982       -2.97263604162576        2.09831136011474
O            3.19924408624151       -2.75087805527818       -1.20364700490850
H            3.90542972411208       -3.14880705129891       -0.69249098172817
H            2.53863515438215       -3.43552192612978       -1.35782221526501
O           -3.29540196329980       -3.29949270431502        0.17809553208624
H           -3.24953376301511       -4.13851997429145       -0.31359720477112
H           -2.64666088624908       -2.72967823716588       -0.31050720760350
O           -0.03866568366374       -4.60251433643905       -3.04997093593545
H            0.03227144379434       -5.44542990418149       -2.57271664640271
H            0.66676637159024       -4.02613684187743       -2.71635021636446
O           -0.09567137538950       -4.63560288795868        0.44687493467323
H           -1.00163119855310       -4.33490622177709        0.54604781275086
H            0.43354422152529       -4.14222053506952        1.08001914896354
O            2.61358724432157       -3.17235520143170       -4.10263153814098
H            2.69667619544070       -2.54021056690850       -3.36644537643182
H            2.26713203181584       -2.63800762495044       -4.83122910046074
37
 energy: -59.799267140400 gnorm: 0.097290733604 xtb: 6.7.1 (edcfbbe)
N           -0.43587448613424       -0.47216650887889        1.72361175340346
C            0.71957748022546        0.13874641104282        1.01015915868071
C            0.25243138759948        1.05915053132900       -0.11356314664798
C           -0.54485932434405        0.35334789036995       -1.21664155470028
C            0.25307237541555       -0.81871905030193       -1.89579148577446
O            0.49734092803123       -0.68233026062624       -3.12294372235832
O            0.64214518422140       -1.73013436835365       -1.14060317980512
H           -0.12826807952561       -1.00949803183164        2.53835750211566
H           -1.09783869169908        0.25021213020771        2.02517333288042
H            1.32174588176317        0.70385429261285        1.71783243638148
H            1.30672571538851       -0.66506454547861        0.56730471792244
H            1.14307512230878        1.48717442483599       -0.57465387652516
H           -0.34521748116696        1.87881736357779        0.28734629670715
H           -1.45520148858210       -0.10924627668760       -0.83553877654485
H           -0.82171805305000        1.06328533313437       -1.99439375966033
H           -0.90525576717567       -1.09508861866227        1.05817453538138
O           -1.83719709071869       -2.78432468229093       -1.99695972670118
H           -1.43079212437845       -3.67983068577687       -1.88987016821490
H           -1.33229237120368       -2.40766950572346       -2.74602267144853
O           -2.58526959694700       -3.32050221932259        3.00624074076326
H           -1.87826676644701       -3.97065451523921        2.72891394953644
H           -2.93348475794100       -3.06547635764421        2.05396759231220
O            3.26671521175520       -2.74063038301360       -1.20066681591911
H            3.96417573169560       -3.18418963943358       -0.70119637484172
H            2.53738353074622       -3.38152898811185       -1.31724453110536
O           -3.27625556790933       -3.26502923807176        0.16890235299012
H           -3.29203663343964       -4.12662390041507       -0.26515965879426
H           -2.64508460988409       -2.74291952378811       -0.32419035676577
O           -0.05398837620461       -4.64087631482541       -3.02623354569021
H            0.10406353465848       -5.48869769262819       -2.55544577811909
H            0.66631991885116       -4.03371434857184       -2.76195437074010
O           -0.13901104088050       -4.67246977565669        0.45457703144931
H           -1.02763912246801       -4.29024102996711        0.55048134113584
H            0.44896025557913       -4.15571071142870        1.03437831884823
O            2.58836522856238       -3.16109926857242       -4.08746689170481
H            2.70954439449155       -2.55236894460182       -3.35831107376606
H            2.26465854880585       -2.64045599120746       -4.82152059468121
37
 energy: -59.805905037019 gnorm: 0.073182573466 xtb: 6.7.1 (edcfbbe)
N           -0.43585642380455       -0.46973943647535        1.71299095431974
C            0.72030915683633        0.14584078209015        1.00536806988282
C            0.25160420874796        1.07461186493874       -0.11460851089924
C           -0.53898372906925        0.36204901616978       -1.21891159225382
C            0.31781630580505       -0.79853375050172       -1.87383685765215
O            0.48817422502902       -0.70532452458780       -3.11310143378482
O            0.66014082311570       -1.74324058435744       -1.10732441826432
H           -0.13335270421949       -1.01015484431817        2.53299256698178
H           -1.10806503358510        0.25087600501174        2.01005594177840
H            1.33268146136794        0.70153199649344        1.71863707903685
H            1.30575183420280       -0.65666032567403        0.55604417559746
H            1.14419711806230        1.51421262848649       -0.57314133078058
H           -0.35471253468104        1.89139844142535        0.29246075177637
H           -1.44683761098281       -0.11252617462975       -0.83149187533314
H           -0.81910768817551        1.06419783063606       -2.00466226247961
H           -0.89498558155019       -1.09660184575635        1.03804857801922
O           -1.86790464848870       -2.79320625224215       -2.01860096952176
H           -1.46639635366929       -3.66962891772467       -1.93519344017291
H           -1.39251934913044       -2.41113570082004       -2.75961973838909
O           -2.61508481883148       -3.37277510649952        2.92878204593555
H           -1.87115783257176       -3.95185772585388        2.77198604951710
H           -2.91916854075965       -3.04784995416331        2.09710810109091
O            3.30247356186922       -2.72900370988695       -1.19311725474303
H            4.00145388211753       -3.20055684036083       -0.70735768979912
H            2.54891966705904       -3.34464035621649       -1.29231566429705
O           -3.22984524467097       -3.26225720177437        0.23281251106697
H           -3.33527368445960       -4.11487445192585       -0.22397026871375
H           -2.66724950335194       -2.74815646499177       -0.37917835255875
O           -0.04793917597257       -4.66432441762521       -3.01167247923280
H            0.12966556892751       -5.50040023751313       -2.55296002596962
H            0.67090763571756       -4.05737326382407       -2.77807864105152
O           -0.16289223356327       -4.69267136496050        0.45882900627907
H           -1.04284083091302       -4.26858691706960        0.54712635948257
H            0.44798664618479       -4.16771633188481        1.01139469722133
O            2.56781457789788       -3.15251836693369       -4.07668401992876
H            2.71800254432324       -2.56523637763155       -3.35309561143609
H            2.26302330518619       -2.64984011905017       -4.81666545072535
37
 energy: -59.804329384608 gnorm: 0.100939405904 xtb: 6.7.1 (edcfbbe)
N           -0.43647431645803       -0.47017157337648        1.70708223727775
C            0.72203410626835        0.14917187643503        1.01224555203432
C            0.25577609167222        1.07439503136144       -0.10842529104612
C           -0.52903586822003        0.35020378604959       -1.20728902322280
C            0.31126324657222       -0.80394233310137       -1.87464396986995
O            0.49641937462809       -0.70366750801217       -3.10456926496006
O            0.64150192137210       -1.76125789711827       -1.13998623683330
H           -0.13660913217516       -1.00881808001981        2.52823826261918
H           -1.11363669418560        0.24653264910787        2.00122460326358
H            1.32693639081925        0.70858729699581        1.72591948162996
H            1.31680070448122       -0.64837751933426        0.56785571612907
H            1.14300747223336        1.52381012882464       -0.56597115344462
H           -0.35723740471850        1.88770957818136        0.29462059512101
H           -1.44824867954979       -0.10300548677028       -0.82741075226831
H           -0.79864788365156        1.05226508659692       -1.99728409775876
H           -0.88907800436189       -1.10278795607361        1.03389630924019
O           -1.87906573888023       -2.79873368462179       -2.04066318142708
H           -1.44949625726367       -3.67517776158483       -1.99308972297908
H           -1.40845757832042       -2.36939295068180       -2.76780038543117
O           -2.58838994660096       -3.34257631162693        2.95048531010565
H           -1.86216906191289       -3.94489393723663        2.79510539795888
H           -2.95954364819057       -3.12125628922304        2.04067350810751
O            3.30267796443922       -2.71847583033929       -1.17506657807594
H            4.01520997914217       -3.18378788788538       -0.71274400426685
H            2.58982531460295       -3.34020161230625       -1.29142448225407
O           -3.19488388485703       -3.27741980716141        0.31977016263128
H           -3.35087026909121       -4.10905534219736       -0.18857797434580
H           -2.69633287885166       -2.73407853685269       -0.44449763482535
O           -0.04440173994411       -4.66967803922678       -2.99726006762528
H            0.12602162743627       -5.49969521036804       -2.55286746901477
H            0.68835652539680       -4.08657259197831       -2.78104667804266
O           -0.16037272440219       -4.65851546402234        0.44176916593188
H           -1.04404883869705       -4.28455612371643        0.52091872385279
H            0.40423130441737       -4.16638084084902        1.02775571781242
O            2.65752624423931       -3.16849389837932       -4.10199953747142
H            2.66661978671000       -2.56517673547585       -3.31856931068200
H            2.20354149590123       -2.62920122401497       -4.79732492787084
37
 energy: -59.795298540606 gnorm: 0.185041934262 xtb: 6.7.1 (edcfbbe)
N           -0.43470147507525       -0.46745974576903        1.69863941343669
C            0.72675710151013        0.15644900203218        1.01615623685367
C            0.26068609296671        1.07519191731772       -0.10104667885956
C           -0.51456980488699        0.33315280333466       -1.18966058215047
C            0.28072222549149       -0.82377428792702       -1.87804300326255
O            0.51676663317125       -0.70286568302109       -3.09514594145713
O            0.62319117718033       -1.74969842006606       -1.18033874926625
H           -0.14016602670103       -1.00194436223880        2.51609085238626
H           -1.11401242271217        0.24022433828246        1.98879998219473
H            1.32044395554026        0.71711086664563        1.72499953786508
H            1.32351372216087       -0.63574193941510        0.57008642442352
H            1.13528303118177        1.53014508439505       -0.56020082302658
H           -0.35609237405192        1.88265152219967        0.29062408377252
H           -1.44565528725711       -0.09070648273031       -0.82625816340602
H           -0.77331156160272        1.02630984068253       -1.98932810925129
H           -0.87974662646026       -1.10274468138110        1.03206739069996
O           -1.90606873924117       -2.81415553069784       -2.06186357383729
H           -1.42866763994278       -3.68187523140057       -2.04264027333722
H           -1.43880854056663       -2.33369744402738       -2.76530798293678
O           -2.57090528846664       -3.32614682362358        2.95630446017309
H           -1.86540670731884       -3.94847141878258        2.82043163689573
H           -2.95630901312117       -3.12897447567949        2.04917391200591
O            3.32176381684105       -2.71405293398529       -1.16896749258738
H            4.02254566018418       -3.17964277245431       -0.71859052313155
H            2.61625196416403       -3.31711656827654       -1.27053093801483
O           -3.24498791172233       -3.24911534315263        0.16786619333726
H           -3.31573790460634       -4.11506621706717       -0.12351518159648
H           -2.69470605919281       -2.76946201488249       -0.33807531912557
O           -0.06187221049838       -4.67503738454614       -2.96637001770012
H            0.14567310135808       -5.50841581995351       -2.55056217740601
H            0.69415005340769       -4.10620871213517       -2.80081275698721
O           -0.17201834772799       -4.64590142299874        0.44163143350707
H           -1.04088859540827       -4.28855015442102        0.50960722993900
H            0.37470755585655       -4.16880323444211        1.02192395696340
O            2.65745916312241       -3.17578029707732       -4.10148824820598
H            2.65777470718501       -2.56636787250834       -3.30351042242780
H            2.19769157523860       -2.62613110023157       -4.79309678648039
37
 energy: -59.811880913423 gnorm: 0.070153969222 xtb: 6.7.1 (edcfbbe)
N           -0.43525056928083       -0.46928956015015        1.69873899721799
C            0.72574382855378        0.15532492757258        1.01720391637083
C            0.25990708205008        1.07477093205163       -0.10327899605049
C           -0.51577593671234        0.34141621474566       -1.19988972590853
C            0.27575763420047       -0.82341856673410       -1.88071957755954
O            0.52015724444884       -0.70488800923611       -3.09973023155077
O            0.63577720869240       -1.75747797866350       -1.15333577569241
H           -0.14134754970025       -1.00455992690717        2.51906146160989
H           -1.11682692403552        0.23985481116077        1.98773657786422
H            1.31869153593724        0.71713535677730        1.73216905480205
H            1.32701917760384       -0.63710626369849        0.57345681101401
H            1.13859886312739        1.53087912265035       -0.55858301546700
H           -0.35871204905570        1.88182375827430        0.29287736975397
H           -1.44268645352153       -0.09121300359209       -0.82673252136556
H           -0.77676698087248        1.03776391384147       -1.99630800746596
H           -0.88012750164447       -1.10577022964352        1.02951070566720
O           -1.90436117004914       -2.80944902750520       -2.06567589497374
H           -1.44262259020477       -3.67786739149343       -2.04711112540620
H           -1.44057800017377       -2.33800820482918       -2.77218674805621
O           -2.57945226794954       -3.31087328699360        2.95743037992224
H           -1.88790316028398       -3.99085989670785        2.80513114428512
H           -2.91927752413806       -3.10822235500593        2.06363179196476
O            3.35870072559591       -2.70733209798202       -1.18990025299050
H            4.03847456338888       -3.19611344261808       -0.71582730589089
H            2.57524260591369       -3.29382493365959       -1.24588662006263
O           -3.21869369349776       -3.23846680988917        0.22673265561272
H           -3.36880039133512       -4.13347227356896       -0.10356074313220
H           -2.66592122942727       -2.76728123821088       -0.42361539596249
O           -0.08930923274981       -4.67043537829553       -2.95118781945907
H            0.17154551470813       -5.52895780027913       -2.54457373494587
H            0.69474610797743       -4.09355005642188       -2.81815081325288
O           -0.19247881337333       -4.68638074576957        0.45439865053533
H           -1.05822509381209       -4.25627686435210        0.50969044282820
H            0.40492137757004       -4.16023695426819        1.00146218214621
O            2.53580135978298       -3.15069272915541       -4.05954447821663
H            2.71473150950927       -2.57096550462842       -3.33514340651294
H            2.26004979275708       -2.64865150681694       -4.79924095167316
37
 energy: -59.809051953271 gnorm: 0.103081030908 xtb: 6.7.1 (edcfbbe)
N           -0.43458404200814       -0.47457070060715        1.69570434540010
C            0.72519060025142        0.15500365994643        1.01806317443938
C            0.25897831000756        1.07659617959971       -0.10711659952115
C           -0.51740569112961        0.35251330961638       -1.21277616567740
C            0.31819865518831       -0.80605876919417       -1.86603957259099
O            0.50874029350116       -0.72270219966951       -3.09849574414883
O            0.63426772457910       -1.78279549855455       -1.11378246904351
H           -0.14289056102503       -1.01067226546840        2.52301040688754
H           -1.12478777975201        0.23549957150978        1.97991338407426
H            1.31711214641795        0.71821972478216        1.74343662540653
H            1.33609946264682       -0.63499687196482        0.57873412842664
H            1.14442986133036        1.53916486163215       -0.55663225410475
H           -0.36754848299396        1.88126975944231        0.29594315340451
H           -1.44036010618349       -0.09457568078931       -0.82688980195337
H           -0.77963890734045        1.05143909663077       -2.00877911705482
H           -0.87363068117946       -1.11593003786313        1.01937504679937
O           -1.91375381911748       -2.80213218619153       -2.09107941047665
H           -1.46848676763283       -3.66318237178178       -2.08721137817415
H           -1.46087786136135       -2.32775187153470       -2.79047048830613
O           -2.56807682622461       -3.31660261761814        2.94816206780024
H           -1.86085436462743       -3.95175337585267        2.82727731790932
H           -2.93861347803386       -3.13813924428131        2.06250549471898
O            3.36094749196670       -2.68013902802037       -1.15954741151631
H            4.06743639577913       -3.19306904337255       -0.72327567506152
H            2.60008279852099       -3.26740079246045       -1.25925716776598
O           -3.19171846888685       -3.25718247866892        0.28731181402490
H           -3.39568212736773       -4.12652874965928       -0.12672284869099
H           -2.67408098964967       -2.78708215851278       -0.43508621302660
O            0.02315094117938       -4.72557158352002       -3.01623545457385
H            0.10310915751032       -5.50157426706351       -2.53272830670180
H            0.68012681058868       -4.10844341136838       -2.76640901573955
O           -0.21657085845012       -4.71853519582380        0.46845332656120
H           -1.07693896411402       -4.22680638292911        0.49262272785997
H            0.40631881449724       -4.15209456262796        0.98232290714419
O            2.59458181683967       -3.16320073018454       -4.07065979081029
H            2.68661753346023       -2.57772967639366       -3.31432571876806
H            2.20186096281302       -2.63515741118597       -4.78026631715130
37
 energy: -59.816519094622 gnorm: 0.042588470895 xtb: 6.7.1 (edcfbbe)
N           -0.43355496118672       -0.47762335406494        1.68986810492862
C            0.72707675325802        0.15740944076722        1.01911406185886
C            0.26184846445487        1.07767781904968       -0.10544550554382
C           -0.51030714045108        0.34723197821985       -1.20851146579877