
                                 *****************
                                 * O   R   C   A *
                                 *****************

                                            #,                                       
                                            ###                                      
                                            ####                                     
                                            #####                                    
                                            ######                                   
                                           ########,                                 
                                     ,,################,,,,,                         
                               ,,#################################,,                 
                          ,,##########################################,,             
                       ,#########################################, ''#####,          
                    ,#############################################,,   '####,        
                  ,##################################################,,,,####,       
                ,###########''''           ''''###############################       
              ,#####''   ,,,,##########,,,,          '''####'''          '####       
            ,##' ,,,,###########################,,,                        '##       
           ' ,,###''''                  '''############,,,                           
         ,,##''                                '''############,,,,        ,,,,,,###''
      ,#''                                            '''#######################'''  
     '                                                          ''''####''''         
             ,#######,   #######,   ,#######,      ##                                
            ,#'     '#,  ##    ##  ,#'     '#,    #''#        ,####,   ,####,        
            ##       ##  ##   ,#'  ##            #'  '#       #'       #'  '#        
            ##       ##  #######   ##           ,######,      #####,   #    #        
            '#,     ,#'  ##    ##  '#,     ,#' ,#      #,     #,   #   #,  ,#        
             '#######'   ##     ##  '#######'  #'      '#     '####' # '####'        



                #########################################################
                #                        -***-                          #
                #          Department of theory and spectroscopy        #
                #                                                       #
                #                      Frank Neese                      #
                #                                                       #
                #     Directorship, Architecture, Infrastructure        #
                #                    SHARK, DRIVERS                     #
                #        Core code/Algorithms in most modules           #
                #                                                       #
                #        Max Planck Institute fuer Kohlenforschung      #
                #                Kaiser Wilhelm Platz 1                 #
                #                 D-45470 Muelheim/Ruhr                 #
                #                      Germany                          #
                #                                                       #
                #                  All rights reserved                  #
                #                        -***-                          #
                #########################################################


                         Program Version 6.0.1  -  RELEASE   -


 With contributions from (in alphabetic order):
[Max-Planck-Institut fuer Kohlenforschung]                               
  Daniel Aravena         : Magnetic Suceptibility                        
  Michael Atanasov       : Ab Initio Ligand Field Theory (pilot matlab implementation)
  Alexander A. Auer      : GIAO ZORA, VPT2 properties, NMR spectrum      
  Ute Becker             : All parallelization in ORCA, NUMFREQ, NUMCALC 
  Giovanni Bistoni       : ED, misc. LED, open-shell LED, HFLD           
  Martin Brehm           : Molecular dynamics                            
  Dmytro Bykov           : pre 5.0 version of the SCF Hessian            
  Marcos Casanova-Páez   : Triplet and SCS-CIS(D). UHF-(DLPNO)-IP/EA/STEOM-CCSD. UHF-CVS-IP/STEOM-CCSD   
  Vijay G. Chilkuri      : MRCI spin determinant printing, contributions to CSF-ICE 
  Pauline Colinet        : FMM embedding                                 
  Dipayan Datta          : RHF DLPNO-CCSD density                        
  Achintya Kumar Dutta   : EOM-CC, STEOM-CC                              
  Nicolas Foglia         : Exact transition moments, OPA infrastructure, MCD improvements    
  Dmitry Ganyushin       : Spin-Orbit,Spin-Spin,Magnetic field MRCI      
  Miquel Garcia-Rates    : C-PCM and meta-GGA Hessian, CCSD/C-PCM, Gaussian charge scheme 
  Tiago L. C. Gouveia    : GS-ROHF, GS-ROCIS                             
  Yang Guo               : DLPNO-NEVPT2, F12-NEVPT2, CIM, IAO-localization        
  Andreas Hansen         : Spin unrestricted coupled pair/coupled cluster methods 
  Ingolf Harden          : AUTO-CI MPn and infrastructure                
  Benjamin Helmich-Paris : MC-RPA, TRAH-(SCF,CASSCF), AVAS, COSX integrals, SCF dyn. polar. 
  Lee Huntington         : MR-EOM, pCC                                   
  Robert Izsak           : Overlap fitted RIJCOSX, COSX-SCS-MP3, EOM     
  Riya Kayal             : Wick's Theorem for AUTO-CI, AUTO-CI UHF-CCSDT 
  Emily Kempfer          : AUTO-CI, RHF CISDT and CCSDT                  
  Christian Kollmar      : KDIIS, OOCD, Brueckner-CCSD(T), CCSD density, CASPT2, CASPT2-K, improved NEVPT2 
  Axel Koslowski         : Symmetry handling                             
  Simone Kossmann        : meta-GGA functionals, TD-DFT gradient, OOMP2, (MP2 Hessian; deprecated post 5.0) 
  Lucas Lang             : DCDCAS                                        
  Marvin Lechner         : AUTO-CI (C++ implementation), FIC-MRCC        
  Spencer Leger          : CASSCF response                               
  Dagmar Lenk            : GEPOL surface, SMD, ORCA-2-JSON               
  Dimitrios Liakos       : Extrapolation schemes; Compound Job, initial MDCI parallelization 
  Dimitrios Manganas     : Further ROCIS development; embedding schemes. LFT, Crystal Embedding 
  Dimitrios Pantazis     : SARC Basis sets                               
  Anastasios Papadopoulos: AUTO-CI, single reference methods and gradients 
  Taras Petrenko         : pre 6.0 DFT Hessian and TD-DFT gradient, (ASA, deprecated), ECA, 1-Electron XAS/XES, NRVS 
  Peter Pinski           : DLPNO-MP2, DLPNO-MP2 Gradient                 
  Christoph Reimann      : Effective Core Potentials                     
  Marius Retegan         : Local ZFS, SOC                                
  Christoph Riplinger    : Optimizer, TS searches, QM/MM, DLPNO-CCSD(T), (RO)-DLPNO pert. Triples 
  Michael Roemelt        : Original ROCIS implementation                 
  Masaaki Saitow         : Open-shell DLPNO-CCSD energy and density      
  Barbara Sandhoefer     : DKH picture change effects                    
  Kantharuban Sivalingam : CASSCF convergence/infrastructure, NEVPT2 and variants, FIC-MRCI 
  Bernardo de Souza      : ESD, SOC TD-DFT                               
  Georgi L. Stoychev     : AutoAux, RI-MP2 NMR, DLPNO-MP2 response, X2C  
  Van Anh Tran           : RI-MP2 g-tensors                              
  Willem Van den Heuvel  : Paramagnetic NMR                              
  Zikuan Wang            : NOTCH, Electric field optimization            
  Frank Wennmohs         : Technical directorship and infrastructure     
  Hang Xu                : AUTO-CI-Response properties                   
                                                                         
[FACCTs GmbH]                                                            
  Markus Bursch, Miquel Garcia-Rates, Christoph Riplinger, Bernardo de Souza, Georgi L. Stoychev 
                                                                 
  APM, Basis sets (HGBS, AHGBS, def-TZVP (Ac-Lr), def2-XVPD (La-Lu)), CI-OPT, improved COSX, DLPNO-Multilevel,           
  DOCKER, DRACO, updates on ESD, GOAT, IRC, LR-CPCM, MBIS, meta-GGA TD-DFT gradient, ML-optimized integration grids, 
  MM, NACMEs, nearIR, NEB, NEB-TS, NL-DFT gradient (VV10), 2- and 3-layer-ONIOM, interface openCOSMO-RS, QMMM,   
  Crystal-QMMM, SF, symmetry and pop. for TD-DFT, r2SCAN hybrids, SOLVATOR                                   
                                                                         
[Other institutions]                                                     
  V. Asgeirsson          : NEB                                           
  Christoph Bannwarth    : sTDA-DFT, sTD-DFT, PBEh-3c, B97-3c, D3        
  Sebastian Ehlert       : rSCAN, r2SCAN, r2SCAN-3c, D4, dhf basis sets  
  Marvin Friede          : D4 for Fr, Ra, Ac-Lr                          
  Lars Goerigk           : TD-DFT with DH, B97 family of functionals     
  Stefan Grimme          : VdW corrections, initial TS optimization, DFT functionals, gCP, sTDA/sTD-DF 
  Waldemar Hujo          : DFT-NL                                        
  H. Jonsson             : NEB                                           
  Holger Kruse           : gCP                                           
  Marcel Mueller         : wB97X-3c, vDZP basis set                      
  Hagen Neugebauer       : wr2SCAN                                       
  Tobias Risthaus        : range-separated hybrid DFT                    
  Lukas Wittmann         : regularized MP2, r2SCAN double-hybrids, wr2SCAN        
                                                                         
We gratefully acknowledge several colleagues who have allowed us to      
interface, adapt or use parts of their codes:                            
  Ed Valeev, F. Pavosevic, A. Kumar             : LibInt (2-el integral package), F12 methods 
  Garnet Chan, S. Sharma, J. Yang, R. Olivares  : DMRG                   
  Ulf Ekstrom                                   : XCFun DFT Library      
  Mihaly Kallay                                 : mrcc  (arbitrary order and MRCC methods)
  Frank Weinhold                                : gennbo (NPA and NBO analysis)           
  Simon Mueller                                 : openCOSMO-RS                            
  Christopher J. Cramer and Donald G. Truhlar   : smd solvation model                     
  S Lehtola, MJT Oliveira, MAL Marques          : LibXC Library                           
  Liviu Ungur et al                             : ANISO software                          


 Your calculation uses the libint2 library for the computation of 2-el integrals
 For citations please refer to: http://libint.valeyev.net

 Your ORCA version has been built with support for libXC version: 6.2.2
 For citations please refer to: https://libxc.gitlab.io

 This ORCA versions uses:
   CBLAS   interface :  Fast vector & matrix operations
   LAPACKE interface :  Fast linear algebra routines
   SCALAPACK package :  Parallel linear algebra routines
   Shared memory     :  Shared parallel matrices
   BLAS/LAPACK       :  OpenBLAS 0.3.27  USE64BITINT DYNAMIC_ARCH NO_AFFINITY SkylakeX SINGLE_THREADED
        Core in use  :  SkylakeX
   Copyright (c) 2011-2014, The OpenBLAS Project


NOTE: MaxCore=5000 MB was set to SCF,MP2,MDCI,CIPSI,MRCI and CIS
      => If you want to overwrite this, your respective input block should be placed after the MaxCore statement
Your calculation utilizes the atom-pairwise dispersion correction
based on EEQ partial charges (D4)


Warning: RI is on but no J-basis has been assigned. Assigning Def2/J (nothing to worry about!)
================================================================================

----- Orbital basis set information -----
Your calculation utilizes the basis: def2-TZVP
   F. Weigend and R. Ahlrichs, Phys. Chem. Chem. Phys. 7, 3297 (2005).

----- AuxJ basis set information -----
Your calculation utilizes the auxiliary basis: def2/J
   F. Weigend, Phys. Chem. Chem. Phys. 8, 1057 (2006).

================================================================================
                                        WARNINGS
                       Please study these warnings very carefully!
================================================================================

WARNING: Old DensityContainer found on disk!
         Will remove this file - 
         If you want to keep old densities, please start your calculation with a different basename. 


WARNING: Geometry Optimization
  ===> : Switching off AutoStart
         For restart on a previous wavefunction, please use MOREAD

================================================================================
                                       INPUT FILE
================================================================================
NAME = 00_Alanine_zwitterion.inp
|  1> ! Opt B3LYP D4 def2-TZVP TightSCF TightOpt CPCM(water)
|  2> 
|  3> %maxcore 5000
|  4> 
|  5> %pal
|  6> nprocs 10
|  7> end
|  8> 
|  9> %geom
| 10>     MaxIter 500
| 11> end
| 12> 
| 13> * xyz 0 1
| 14>   C          -0.05354130439527      1.01531020687317     -1.29183966428368
| 15>   C          -1.01793255081412      2.12504845417734     -0.85218062485457
| 16>   O          -1.82289269929954      2.53188609107730     -1.72701068796333
| 17>   O          -0.92995454690117      2.53667277820526      0.33558145184655
| 18>   C           0.92317705945380      0.60067343432858     -0.20818907762591
| 19>   N           1.85861514197510     -0.45805742274193     -0.71521516632247
| 20>   H           0.48644925511392      1.37239731796978     -2.17307048032521
| 21>   H          -0.65408597968018      0.16184590893568     -1.61703886762333
| 22>   H           0.41379703563960      0.17880227668936      0.65467816788068
| 23>   H           1.53387867733843      1.43674632284819      0.12229279801222
| 24>   H           1.34008904824981     -1.31891347818837     -0.99499599045518
| 25>   H           2.39135738838260     -0.13115753248256     -1.52287410369166
| 26>   H           2.53324443199381     -0.72424257750555      0.00260330860595
| 27>   O          -3.84718599346913      4.25862495530698     -1.03193474557210
| 28>   H          -3.47605676615120      4.67266112865243     -0.23573518777188
| 29>   H          -3.13705852452297      3.61901591706153     -1.28221669446425
| 30>   O           0.33575806654653     -2.72403367304318     -1.39190092263118
| 31>   H           0.05247292368154     -2.72263801068146     -2.31629582716372
| 32>   H           0.80673941276529     -3.55947659878420     -1.27114186883091
| 33>   H          -1.58601219736305      4.04242060398209      0.82159986281722
| 34>   O          -1.97638734103256      4.93207955679760      1.00676746000000
| 35>   H          -1.76599540933857      5.14654814251607      1.92065553896049
| 36> *
| 37> 
| 38>                          ****END OF INPUT****
================================================================================

                       *****************************
                       * Geometry Optimization Run *
                       *****************************

Geometry optimization settings:
Update method            Update   .... BFGS
Choice of coordinates    CoordSys .... (2022) Redundant Internals
Initial Hessian          InHess   .... Almloef's Model
Max. no of cycles        MaxIter  .... 500

Convergence Tolerances:
Energy Change            TolE     ....  1.0000e-06 Eh
Max. Gradient            TolMAXG  ....  1.0000e-04 Eh/bohr
RMS Gradient             TolRMSG  ....  3.0000e-05 Eh/bohr
Max. Displacement        TolMAXD  ....  1.0000e-03 bohr
RMS Displacement         TolRMSD  ....  6.0000e-04 bohr
Strict Convergence                .... False

------------------------------------------------------------------------------
                        ORCA OPTIMIZATION COORDINATE SETUP
------------------------------------------------------------------------------

The optimization will be done in redundant internal coordinates (2022)
Making redundant internal coordinates   ...  (2022 redundants) done
Evaluating the initial hessian          ...  (Almloef) done
Evaluating the coordinates              ...  done
Calculating the B-matrix                .... done
Calculating the G-matrix                .... done
Diagonalizing the G-matrix              .... done
Small eigenvalue found = 6.900e-03
Small eigenvalue found = 1.221e-02
The first mode is                       ....   42
The number of degrees of freedom        ....   60

    -----------------------------------------------------------------
                    Redundant Internal Coordinates


    -----------------------------------------------------------------
         Definition                    Initial Value    Approx d2E/dq
    -----------------------------------------------------------------
      1. B(C   1,C   0)                  1.5346         0.367371   
      2. B(O   2,C   1)                  1.2565         0.913814   
      3. B(O   3,C   1)                  1.2601         0.901692   
      4. B(C   4,C   0)                  1.5166         0.392365   
      5. B(N   5,C   4)                  1.5010         0.372191   
      6. B(H   6,C   0)                  1.0935         0.355543   
      7. B(H   7,C   0)                  1.0931         0.356057   
      8. B(H   8,C   4)                  1.0872         0.363836   
      9. B(H   9,C   4)                  1.0868         0.364322   
     10. B(H  10,N   5)                  1.0432         0.383056   
     11. B(H  11,N   5)                  1.0213         0.415160   
     12. B(H  12,N   5)                  1.0204         0.416468   
     13. B(H  14,O  13)                  0.9711         0.499122   
     14. B(H  15,O  13)                  0.9879         0.469238   
     15. B(H  15,O   2)                  1.7626         0.027257   
     16. B(O  16,H  10)                  1.7722         0.026315   
     17. B(H  17,O  16)                  0.9668         0.507074   
     18. B(H  18,O  16)                  0.9666         0.507447   
     19. B(H  19,H  14)                  2.2555         0.000953   
     20. B(H  19,O   3)                  1.7129         0.032721   
     21. B(O  20,H  14)                  1.9647         0.012972   
     22. B(O  20,H  19)                  0.9890         0.467366   
     23. B(H  21,O  20)                  0.9620         0.516141   
     24. A(C   1,C   0,C   4)          113.4356         0.365366   
     25. A(H   6,C   0,H   7)          106.6504         0.289745   
     26. A(C   1,C   0,H   7)          107.7344         0.322830   
     27. A(C   4,C   0,H   7)          110.6666         0.326340   
     28. A(C   1,C   0,H   6)          107.7633         0.322754   
     29. A(C   4,C   0,H   6)          110.3086         0.326262   
     30. A(C   0,C   1,O   2)          115.9304         0.420895   
     31. A(C   0,C   1,O   3)          117.5418         0.419893   
     32. A(O   2,C   1,O   3)          126.5278         0.492342   
     33. A(C   1,O   2,H  15)          120.1096         0.246469   
     34. A(C   1,O   3,H  19)          121.8610         0.252621   
     35. A(N   5,C   4,H   9)          107.1657         0.322803   
     36. A(C   0,C   4,H   9)          111.6432         0.327576   
     37. A(H   8,C   4,H   9)          108.6898         0.291846   
     38. A(N   5,C   4,H   8)          106.6415         0.322732   
     39. A(C   0,C   4,N   5)          110.6603         0.363902   
     40. A(C   0,C   4,H   8)          111.8041         0.327504   
     41. A(C   4,N   5,H  12)          111.0018         0.327182   
     42. A(H  11,N   5,H  12)          107.1541         0.299429   
     43. A(H  10,N   5,H  12)          107.5793         0.295631   
     44. A(H  10,N   5,H  11)          108.1398         0.295483   
     45. A(C   4,N   5,H  11)          111.4972         0.327012   
     46. A(C   4,N   5,H  10)          111.2778         0.322716   
     47. A(N   5,H  10,O  16)          174.9202         0.199594   
     48. A(H  14,O  13,H  15)          102.0655         0.314392   
     49. A(O  13,H  14,O  20)          150.0531         0.189050   
     50. A(H  19,H  14,O  20)           25.9500         0.108621   
     51. A(O  13,H  14,H  19)          125.8340         0.133823   
     52. L(O   2,H  15,O  13,H  14, 2) 177.1005         0.205718   
     53. L(O   2,H  15,O  13,H  14, 1) 178.5606         0.205718   
     54. A(H  17,O  16,H  18)          105.2753         0.319243   
     55. A(H  10,O  16,H  18)          112.4059         0.206862   
     56. A(H  10,O  16,H  17)          112.2745         0.206842   
     57. A(O   3,H  19,O  20)          174.3050         0.210535   
     58. A(O   3,H  19,H  14)          115.6946         0.113191   
     59. A(H  14,H  19,O  20)           60.3744         0.133161   
     60. A(H  14,O  20,H  19)           93.6755         0.187572   
     61. A(H  19,O  20,H  21)          106.9823         0.315903   
     62. A(H  14,O  20,H  21)          142.8586         0.189812   
     63. D(O   2,C   1,C   0,H   7)    -59.1310         0.010117   
     64. D(O   2,C   1,C   0,C   4)    178.0164         0.010117   
     65. D(O   3,C   1,C   0,C   4)     -2.0102         0.010117   
     66. D(O   2,C   1,C   0,H   6)     55.5987         0.010117   
     67. D(O   3,C   1,C   0,H   6)   -124.4278         0.010117   
     68. D(H  15,O   2,C   1,C   0)    170.6012         0.066619   
     69. D(H  15,O   2,C   1,O   3)     -9.3695         0.066619   
     70. D(H  19,O   3,C   1,O   2)    -18.6542         0.064623   
     71. D(H  19,O   3,C   1,C   0)    161.3756         0.064623   
     72. D(H   8,C   4,C   0,H   6)   -176.1707         0.012233   
     73. D(H   8,C   4,C   0,C   1)     62.8333         0.012233   
     74. D(N   5,C   4,C   0,H   7)     60.3309         0.012233   
     75. D(N   5,C   4,C   0,H   6)    -57.4527         0.012233   
     76. D(H   8,C   4,C   0,H   7)    -58.3872         0.012233   
     77. D(N   5,C   4,C   0,C   1)   -178.4486         0.012233   
     78. D(H  11,N   5,C   4,H   9)    -62.7507         0.012702   
     79. D(H  11,N   5,C   4,H   8)   -179.0061         0.012702   
     80. D(H  11,N   5,C   4,C   0)     59.1892         0.012702   
     81. D(H  10,N   5,C   4,H   9)    176.4206         0.012702   
     82. D(H  10,N   5,C   4,H   8)     60.1651         0.012702   
     83. D(H  10,N   5,C   4,C   0)    -61.6395         0.012702   
     84. D(O  16,H  10,N   5,H  12)    106.9164         0.176555   
     85. D(O  16,H  10,N   5,H  11)   -137.6560         0.176555   
     86. D(O  16,H  10,N   5,C   4)    -14.8758         0.176555   
     87. D(H  14,O  13,O   2,C   1)     24.4185         0.001501   
     88. D(H  19,H  14,O  13,H  15)     -7.0337         0.311154   
     89. D(O  20,H  14,O  13,H  15)      7.4192         0.311154   
     90. D(H  18,O  16,H  10,N   5)   -134.9827         0.001874   
     91. D(H  17,O  16,H  10,N   5)    106.5389         0.001874   
     92. D(H  14,H  19,O   3,C   1)     33.5362         0.002089   
     93. D(O  20,H  19,O   3,C   1)    -11.7657         0.002089   
     94. D(O   3,H  19,H  14,O  20)   -175.3456         0.001509   
     95. D(O   3,H  19,H  14,O  13)    -11.8881         0.001509   
     96. D(O  20,H  19,H  14,O  13)    163.4576         0.001509   
     97. D(H  14,O  20,H  19,O   3)     47.4648         0.291525   
     98. D(H  21,O  20,H  19,H  14)    148.7407         0.291525   
     99. D(H  21,O  20,H  19,O   3)   -163.7945         0.291525   
    100. D(H  21,O  20,H  14,H  19)   -124.7188         0.001597   
    101. D(H  21,O  20,H  14,O  13)   -152.2612         0.001597   
    102. D(H  19,O  20,H  14,O  13)    -27.5424         0.001597   
    -----------------------------------------------------------------

Number of atoms                         .... 22
Number of degrees of freedom            .... 102


         *************************************************************
         *                GEOMETRY OPTIMIZATION CYCLE   1            *
         *************************************************************
---------------------------------
CARTESIAN COORDINATES (ANGSTROEM)
---------------------------------
  C     -0.053541    1.015310   -1.291840
  C     -1.017933    2.125048   -0.852181
  O     -1.822893    2.531886   -1.727011
  O     -0.929955    2.536673    0.335581
  C      0.923177    0.600673   -0.208189
  N      1.858615   -0.458057   -0.715215
  H      0.486449    1.372397   -2.173070
  H     -0.654086    0.161846   -1.617039
  H      0.413797    0.178802    0.654678
  H      1.533879    1.436746    0.122293
  H      1.340089   -1.318913   -0.994996
  H      2.391357   -0.131158   -1.522874
  H      2.533244   -0.724243    0.002603
  O     -3.847186    4.258625   -1.031935
  H     -3.476057    4.672661   -0.235735
  H     -3.137059    3.619016   -1.282217
  O      0.335758   -2.724034   -1.391901
  H      0.052473   -2.722638   -2.316296
  H      0.806739   -3.559477   -1.271142
  H     -1.586012    4.042421    0.821600
  O     -1.976387    4.932080    1.006767
  H     -1.765995    5.146548    1.920656

----------------------------
CARTESIAN COORDINATES (A.U.)
----------------------------
  NO LB      ZA    FRAG     MASS         X           Y           Z
   0 C     6.0000    0    12.011   -0.101178    1.918658   -2.441223
   1 C     6.0000    0    12.011   -1.923614    4.015760   -1.610388
   2 O     8.0000    0    15.999   -3.444768    4.784571   -3.263577
   3 O     8.0000    0    15.999   -1.757359    4.793617    0.634157
   4 C     6.0000    0    12.011    1.744552    1.135108   -0.393420
   5 N     7.0000    0    14.007    3.512274   -0.865603   -1.351561
   6 H     1.0000    0     1.008    0.919256    2.593455   -4.106508
   7 H     1.0000    0     1.008   -1.236043    0.305844   -3.055761
   8 H     1.0000    0     1.008    0.781963    0.337887    1.237162
   9 H     1.0000    0     1.008    2.898611    2.715057    0.231100
  10 H     1.0000    0     1.008    2.532401   -2.492385   -1.880270
  11 H     1.0000    0     1.008    4.519011   -0.247852   -2.877815
  12 H     1.0000    0     1.008    4.787138   -1.368620    0.004920
  13 O     8.0000    0    15.999   -7.270128    8.047635   -1.950074
  14 H     1.0000    0     1.008   -6.568795    8.830050   -0.445475
  15 H     1.0000    0     1.008   -5.928181    6.838949   -2.423038
  16 O     8.0000    0    15.999    0.634491   -5.147678   -2.630312
  17 H     1.0000    0     1.008    0.099159   -5.145040   -4.377165
  18 H     1.0000    0     1.008    1.524517   -6.726436   -2.402110
  19 H     1.0000    0     1.008   -2.997129    7.639068    1.552599
  20 O     8.0000    0    15.999   -3.734831    9.320280    1.902515
  21 H     1.0000    0     1.008   -3.337248    9.725567    3.629513

--------------------------------
INTERNAL COORDINATES (ANGSTROEM)
--------------------------------
 C      0   0   0     0.000000000000     0.00000000     0.00000000
 C      1   0   0     1.534558413567     0.00000000     0.00000000
 O      2   1   0     1.256505210004   115.93039773     0.00000000
 O      2   1   3     1.260140255747   117.54175937   179.97342853
 C      1   2   3     1.516641358196   113.43563225   178.01637698
 N      5   1   2     1.501009956184   110.66034397   181.55135553
 H      1   2   3     1.093466396563   107.76331547    55.59873969
 H      1   2   3     1.093073527591   107.73435843   300.86900015
 H      5   1   2     1.087190491900   111.80407153    62.83329858
 H      5   1   2     1.086826854255   111.64316115   300.82419966
 H      6   5   1     1.043177725810   111.27784680   298.36045438
 H      6   5   1     1.021269209597   111.49718344    59.18922445
 H      6   5   1     1.020412945094   111.00181941   178.57923388
 O      3   2   1     2.750003820316   119.92741058   171.54568221
 H     14   3   2     0.971131603877   101.16395525    24.41845451
 H     14   3   2     0.987938154896     1.49490778   257.20787574
 O     11   6   5     1.772167319410   174.92018780   345.12421796
 H     17  11   6     0.966829022923   112.27449284   106.53888593
 H     17  11   6     0.966628708311   112.40588079   225.01729056
 H      4   2   1     1.712863699003   121.86095862   161.37558187
 O     20   4   2     0.989026210050   174.30497338   348.23426874
 H     21  20   4     0.962004656978   106.98225277   196.20554534

---------------------------
INTERNAL COORDINATES (A.U.)
---------------------------
 C      0   0   0     0.000000000000     0.00000000     0.00000000
 C      1   0   0     2.899895138147     0.00000000     0.00000000
 O      2   1   0     2.374450732753   115.93039773     0.00000000
 O      2   1   3     2.381319973691   117.54175937   179.97342853
 C      1   2   3     2.866036810368   113.43563225   178.01637698
 N      5   1   2     2.836497741477   110.66034397   181.55135553
 H      1   2   3     2.066352026149   107.76331547    55.59873969
 H      1   2   3     2.065609611386   107.73435843   300.86900015
 H      5   1   2     2.054492285093   111.80407153    62.83329858
 H      5   1   2     2.053805109533   111.64316115   300.82419966
 H      6   5   1     1.971320210787   111.27784680   298.36045438
 H      6   5   1     1.929919115145   111.49718344    59.18922445
 H      6   5   1     1.928301009736   111.00181941   178.57923388
 O      3   2   1     5.196754087634   119.92741058   171.54568221
 H     14   3   2     1.835172771324   101.16395525    24.41845451
 H     14   3   2     1.866932550004     1.49490778   257.20787574
 O     11   6   5     3.348910897170   174.92018780   345.12421796
 H     17  11   6     1.827042071652   112.27449284   106.53888593
 H     17  11   6     1.826663531894   112.40588079   225.01729056
 H      4   2   1     3.236843295852   121.86095862   161.37558187
 O     20   4   2     1.868988676265   174.30497338   348.23426874
 H     21  20   4     1.817925341246   106.98225277   196.20554534

---------------------
BASIS SET INFORMATION
---------------------
There are 4 groups of distinct atoms

 Group   1 Type C   : 11s6p2d1f contracted to 5s3p2d1f pattern {62111/411/11/1}
 Group   2 Type O   : 11s6p2d1f contracted to 5s3p2d1f pattern {62111/411/11/1}
 Group   3 Type N   : 11s6p2d1f contracted to 5s3p2d1f pattern {62111/411/11/1}
 Group   4 Type H   : 5s1p contracted to 3s1p pattern {311/1}

Atom   0C    basis set group =>   1
Atom   1C    basis set group =>   1
Atom   2O    basis set group =>   2
Atom   3O    basis set group =>   2
Atom   4C    basis set group =>   1
Atom   5N    basis set group =>   3
Atom   6H    basis set group =>   4
Atom   7H    basis set group =>   4
Atom   8H    basis set group =>   4
Atom   9H    basis set group =>   4
Atom  10H    basis set group =>   4
Atom  11H    basis set group =>   4
Atom  12H    basis set group =>   4
Atom  13O    basis set group =>   2
Atom  14H    basis set group =>   4
Atom  15H    basis set group =>   4
Atom  16O    basis set group =>   2
Atom  17H    basis set group =>   4
Atom  18H    basis set group =>   4
Atom  19H    basis set group =>   4
Atom  20O    basis set group =>   2
Atom  21H    basis set group =>   4
---------------------------------
AUXILIARY/J BASIS SET INFORMATION
---------------------------------
There are 4 groups of distinct atoms

 Group   1 Type C   : 12s5p4d2f1g contracted to 6s4p3d1f1g pattern {711111/2111/211/2/1}
 Group   2 Type O   : 12s5p4d2f1g contracted to 6s4p3d1f1g pattern {711111/2111/211/2/1}
 Group   3 Type N   : 12s5p4d2f1g contracted to 6s4p3d1f1g pattern {711111/2111/211/2/1}
 Group   4 Type H   : 5s2p1d contracted to 3s1p1d pattern {311/2/1}

Atom   0C    basis set group =>   1
Atom   1C    basis set group =>   1
Atom   2O    basis set group =>   2
Atom   3O    basis set group =>   2
Atom   4C    basis set group =>   1
Atom   5N    basis set group =>   3
Atom   6H    basis set group =>   4
Atom   7H    basis set group =>   4
Atom   8H    basis set group =>   4
Atom   9H    basis set group =>   4
Atom  10H    basis set group =>   4
Atom  11H    basis set group =>   4
Atom  12H    basis set group =>   4
Atom  13O    basis set group =>   2
Atom  14H    basis set group =>   4
Atom  15H    basis set group =>   4
Atom  16O    basis set group =>   2
Atom  17H    basis set group =>   4
Atom  18H    basis set group =>   4
Atom  19H    basis set group =>   4
Atom  20O    basis set group =>   2
Atom  21H    basis set group =>   4
--------------------------------------------------------------------------
WARNING: There was an error initializing an OpenFabrics device.

  Local host:   ga03
  Local device: mlx5_0
--------------------------------------------------------------------------


           ************************************************************
           *        Program running with 10 parallel MPI-processes    *
           *              working on a common directory               *
           ************************************************************
------------------------------------------------------------------------------
                             ORCA STARTUP CALCULATIONS
                           -- RI-GTO INTEGRALS CHOSEN --
------------------------------------------------------------------------------
------------------------------------------------------------------------------
                   ___                                                        
                  /   \      - P O W E R E D   B Y -                         
                 /     \                                                     
                 |  |  |   _    _      __       _____    __    __             
                 |  |  |  | |  | |    /  \     |  _  \  |  |  /  |          
                  \  \/   | |  | |   /    \    | | | |  |  | /  /          
                 / \  \   | |__| |  /  /\  \   | |_| |  |  |/  /          
                |  |  |   |  __  | /  /__\  \  |    /   |      \           
                |  |  |   | |  | | |   __   |  |    \   |  |\   \          
                \     /   | |  | | |  |  |  |  | |\  \  |  | \   \       
                 \___/    |_|  |_| |__|  |__|  |_| \__\ |__|  \__/        
                                                                              
                      - O R C A' S   B I G   F R I E N D -                    
                                      &                                       
                       - I N T E G R A L  F E E D E R -                       
                                                                              
 v1 FN, 2020, v2 2021, v3 2022-2024                                           
------------------------------------------------------------------------------


----------------------
SHARK INTEGRAL PACKAGE
----------------------

Number of atoms                             ...     22
Number of basis functions                   ...    357
Number of shells                            ...    151
Maximum angular momentum                    ...      3
Integral batch strategy                     ... SHARK/LIBINT Hybrid
RI-J (if used) integral strategy            ... SPLIT-RIJ (Revised 2003 algorithm where possible)
Printlevel                                  ...      1
Contraction scheme used                     ... SEGMENTED contraction
Prescreening option                         ... SCHWARTZ
   Thresh                                   ... 2.500e-11
   Tcut                                     ... 2.500e-12
   Tpresel                                  ... 2.500e-12 
Coulomb Range Separation                    ... NOT USED
Exchange Range Separation                   ... NOT USED
Multipole approximations                    ... NOT USED
Finite Nucleus Model                        ... NOT USED
CABS basis                                  ... NOT available
Auxiliary Coulomb fitting basis             ... AVAILABLE
   # of basis functions in Aux-J            ...    584
   # of shells in Aux-J                     ...    200
   Maximum angular momentum in Aux-J        ...      4
Auxiliary J/K fitting basis                 ... NOT available
Auxiliary Correlation fitting basis         ... NOT available
Auxiliary 'external' fitting basis          ... NOT available

Checking pre-screening integrals            ... done (  0.0 sec) Dimension = 151
Check shell pair data                       ... done (  0.0 sec)
Shell pair information
Shell pair cut-off parameter TPreSel        ...   2.5e-12
Total number of shell pairs                 ...     11476
Shell pairs after pre-screening             ...      8701
Total number of primitive shell pairs       ...     33648
Primitive shell pairs kept                  ...     18282
          la=0 lb=0:   2714 shell pairs
          la=1 lb=0:   2589 shell pairs
          la=1 lb=1:    653 shell pairs
          la=2 lb=0:   1112 shell pairs
          la=2 lb=1:    550 shell pairs
          la=2 lb=2:    126 shell pairs
          la=3 lb=0:    541 shell pairs
          la=3 lb=1:    267 shell pairs
          la=3 lb=2:    117 shell pairs
          la=3 lb=3:     32 shell pairs

Calculating one electron integrals          ... done (  0.0 sec)
Calculating RI/J V-Matrix + Cholesky decomp.... done (  0.0 sec)
Calculating Nuclear repulsion               ... done (  0.0 sec) ENN=    481.072760146583 Eh

Diagonalization of the overlap matrix:
Smallest eigenvalue                        ... 1.394e-04
Time for diagonalization                   ...    0.011 sec
Threshold for overlap eigenvalues          ... 1.000e-07
Number of eigenvalues below threshold      ... 0
Time for construction of square roots      ...    0.006 sec
Total time needed                          ...    0.019 sec

-------------------
DFT GRID GENERATION
-------------------

General Integration Accuracy     IntAcc      ... 4.388
Radial Grid Type                 RadialGrid  ... OptM3 with GC (2021)
Angular Grid (max. ang.)         AngularGrid ... 4 (Lebedev-302)
Angular grid pruning method      GridPruning ... 4 (adaptive)
Weight generation scheme         WeightScheme... mBecke (2022)
Basis function cutoff            BFCut       ... 1.0000e-11
Integration weight cutoff        WCut        ... 1.0000e-14
Partially contracted basis set               ... off
Rotationally invariant grid construction     ... off
Angular grids for H and He will be reduced by one unit

Total number of grid points                  ...    96628
Total number of batches                      ...     1519
Average number of points per batch           ...       63
Average number of grid points per atom       ...     4392

--------------------
COSX GRID GENERATION
--------------------

GRIDX 1
-------
General Integration Accuracy     IntAcc      ... 3.816
Radial Grid Type                 RadialGrid  ... OptM3 with GC (2021)
Angular Grid (max. ang.)         AngularGrid ... 1 (Lebedev-50)
Angular grid pruning method      GridPruning ... 4 (adaptive)
Weight generation scheme         WeightScheme... mBecke (2022)
Basis function cutoff            BFCut       ... 1.0000e-11
Integration weight cutoff        WCut        ... 1.0000e-14
Partially contracted basis set               ... on
Rotationally invariant grid construction     ... off
Angular grids for H and He will be reduced by one unit

Total number of grid points                  ...    12396
Total number of batches                      ...      110
Average number of points per batch           ...      112
Average number of grid points per atom       ...      563
UseSFitting                                  ... on

GRIDX 2
-------
General Integration Accuracy     IntAcc      ... 4.020
Radial Grid Type                 RadialGrid  ... OptM3 with GC (2021)
Angular Grid (max. ang.)         AngularGrid ... 2 (Lebedev-110)
Angular grid pruning method      GridPruning ... 4 (adaptive)
Weight generation scheme         WeightScheme... mBecke (2022)
Basis function cutoff            BFCut       ... 1.0000e-11
Integration weight cutoff        WCut        ... 1.0000e-14
Partially contracted basis set               ... on
Rotationally invariant grid construction     ... off
Angular grids for H and He will be reduced by one unit

Total number of grid points                  ...    26311
Total number of batches                      ...      218
Average number of points per batch           ...      120
Average number of grid points per atom       ...     1196
UseSFitting                                  ... on

GRIDX 3
-------
General Integration Accuracy     IntAcc      ... 4.338
Radial Grid Type                 RadialGrid  ... OptM3 with GC (2021)
Angular Grid (max. ang.)         AngularGrid ... 3 (Lebedev-194)
Angular grid pruning method      GridPruning ... 4 (adaptive)
Weight generation scheme         WeightScheme... mBecke (2022)
Basis function cutoff            BFCut       ... 1.0000e-11
Integration weight cutoff        WCut        ... 1.0000e-14
Partially contracted basis set               ... on
Rotationally invariant grid construction     ... off
Angular grids for H and He will be reduced by one unit

Total number of grid points                  ...    57538
Total number of batches                      ...      459
Average number of points per batch           ...      125
Average number of grid points per atom       ...     2615
UseSFitting                                  ... on
Initializing property integral containers    ... done (  0.0 sec)

SHARK setup successfully completed in   0.9 seconds

Maximum memory used throughout the entire STARTUP-calculation: 32.6 MB
[ga03:3463083] 9 more processes have sent help message help-mpi-btl-openib.txt / error in device init
[ga03:3463083] Set MCA parameter "orte_base_help_aggregate" to 0 to see all help / error messages
--------------------------------------------------------------------------
WARNING: There was an error initializing an OpenFabrics device.

  Local host:   ga03
  Local device: mlx5_0
--------------------------------------------------------------------------


           ************************************************************
           *        Program running with 10 parallel MPI-processes    *
           *              working on a common directory               *
           ************************************************************
-------------------------------------------------------------------------------
                                 ORCA GUESS
                   Start orbitals & Density for SCF / CASSCF
-------------------------------------------------------------------------------

------------
SCF SETTINGS
------------
Hamiltonian:
 Density Functional     Method          .... DFT(GTOs)
 Exchange Functional    Exchange        .... B88
   X-Alpha parameter    XAlpha          ....  0.666667
   Becke's b parameter  XBeta           ....  0.004200
 Correlation Functional Correlation     .... LYP
 LDA part of GGA corr.  LDAOpt          .... VWN-5
 Gradients option       PostSCFGGA      .... off
 Hybrid DFT is turned on
   Fraction HF Exchange ScalHFX         ....  0.200000
   Scaling of DF-GGA-X  ScalDFX         ....  0.720000
   Scaling of DF-GGA-C  ScalDFC         ....  0.810000
   Scaling of DF-LDA-C  ScalLDAC        ....  1.000000
   Perturbative correction              ....  0.000000
   NL short-range parameter             ....  4.800000
 RI-approximation to the Coulomb term is turned on
   Number of AuxJ basis functions       .... 584
   RIJ-COSX (HFX calculated with COS-X)).... on


General Settings:
 Integral files         IntName         .... 00_Alanine_zwitterion
 Hartree-Fock type      HFTyp           .... RHF
 Total Charge           Charge          ....    0
 Multiplicity           Mult            ....    1
 Number of Electrons    NEL             ....   78
 Basis Dimension        Dim             ....  357
 Nuclear Repulsion      ENuc            ....    481.0727601466 Eh

Convergence Acceleration:
 AO-DIIS                CNVDIIS         .... on
   Start iteration      DIISMaxIt       ....    12
   Startup error        DIISStart       ....  0.200000
   # of expansion vecs  DIISMaxEq       ....     5
   Bias factor          DIISBfac        ....   1.050
   Max. coefficient     DIISMaxC        ....  10.000
 MO-DIIS                CNVKDIIS        .... off
 Trust-Rad. Augm. Hess. CNVTRAH         .... auto
   Auto Start mean grad. ratio tolernc. ....  1.125000
   Auto Start start iteration           ....    50
   Auto Start num. interpolation iter.  ....    10
   Max. Number of Micro iterations      ....    24
   Max. Number of Macro iterations      .... Maxiter - #DIIS iter
   Number of Davidson start vectors     ....     2
   Converg. threshold    (grad. norm)   ....   1.000e-05
   Grad. Scal. Fac. for Micro threshold ....   0.100
   Minimum threshold for Micro iter.    ....   1.000e-02
   NR start threshold (gradient norm)   ....   1.000e-04
   Initial trust radius                 ....   0.400
   Minimum AH scaling param. (alpha)    ....   1.000
   Maximum AH scaling param. (alpha)    .... 1000.000
   Quad. conv. algorithm                .... NR
   White noise on init. David. guess    .... on
   Maximum white noise                  ....   0.010
   Pseudo random numbers                .... off
   Inactive MOs                         .... canonical
   Orbital update algorithm             .... Taylor
   Preconditioner                       .... Diag
   Full preconditioner red. dimension   ....   250
 SOSCF                  CNVSOSCF        .... on
   Start iteration      SOSCFMaxIt      ....   150
   Startup grad/error   SOSCFStart      ....  0.003300
   Hessian update       SOSCFHessUp     .... L-BFGS
 Level Shifting         CNVShift        .... on
   Level shift para.    LevelShift      ....    0.2500
   Turn off err/grad.   ShiftErr        ....    0.0010
 Zerner damping         CNVZerner       .... off
 Static damping         CNVDamp         .... on
   Fraction old density DampFac         ....    0.7000
   Max. Damping (<1)    DampMax         ....    0.9800
   Min. Damping (>=0)   DampMin         ....    0.0000
   Turn off err/grad.   DampErr         ....    0.1000

SCF Procedure:
 Maximum # iterations   MaxIter         ....   125
 SCF integral mode      SCFMode         .... Direct
   Integral package                     .... SHARK and LIBINT hybrid scheme
 Reset frequency        DirectResetFreq ....    20
 Integral Threshold     Thresh          ....  2.500e-11 Eh
 Primitive CutOff       TCut            ....  2.500e-12 Eh

Convergence Tolerance:
 Convergence Check Mode ConvCheckMode   .... Total+1el-Energy
 Convergence forced     ConvForced      .... 0
 Energy Change          TolE            ....  1.000e-08 Eh
 1-El. energy change                    ....  1.000e-05 Eh
 Orbital Gradient       TolG            ....  1.000e-05
 Orbital Rotation angle TolX            ....  1.000e-05
 DIIS Error             TolErr          ....  5.000e-07

------------------------------
INITIAL GUESS: MODEL POTENTIAL
------------------------------
Loading Hartree-Fock densities                     ... done
Calculating cut-offs                               ... done
Initializing the effective Hamiltonian             ... done
Setting up the integral package (SHARK)            ... done
Starting the Coulomb interaction                   ... done (   0.0 sec)
Making the grid                                    ... done (   0.1 sec)
Mapping shells                                     ... done
Starting the XC term evaluation                    ... done (   0.0 sec)
  promolecular density results
     # of electrons  =     77.992194943
     EX              =    -66.840546217
     EC              =     -2.664907412
     EX+EC           =    -69.505453629
Transforming the Hamiltonian                       ... done (   0.0 sec)
Diagonalizing the Hamiltonian                      ... done (   0.0 sec)
Back transforming the eigenvectors                 ... done (   0.0 sec)
Now organizing SCF variables                       ... done
                      ------------------
                      INITIAL GUESS DONE (   0.2 sec)
                      ------------------
             **** ENERGY FILE WAS UPDATED (00_Alanine_zwitterion.en.tmp) ****
Finished Guess after   0.5 sec
Maximum memory used throughout the entire GUESS-calculation: 21.4 MB
[ga03:3463129] 9 more processes have sent help message help-mpi-btl-openib.txt / error in device init
[ga03:3463129] Set MCA parameter "orte_base_help_aggregate" to 0 to see all help / error messages
--------------------------------------------------------------------------
WARNING: There was an error initializing an OpenFabrics device.

  Local host:   ga03
  Local device: mlx5_0
--------------------------------------------------------------------------


           ************************************************************
           *        Program running with 10 parallel MPI-processes    *
           *              working on a common directory               *
           ************************************************************

-------------------------------------------------------------------------------------------
                                      ORCA LEAN-SCF
                              memory conserving SCF solver
-------------------------------------------------------------------------------------------

--------------------
CPCM SOLVATION MODEL
--------------------
CPCM parameters:
  Epsilon                                         ...      80.1510
  Refrac                                          ...       1.3328
  Rsolv                                           ...       1.3000
  Surface type                                    ... GAUSSIAN VDW
  Discretization scheme                           ... Constant charge density
    Threshold for H atoms                         ...       5.0000 (charges/Ang^2)
    Threshold for non-H atoms                     ...       5.0000 (charges/Ang^2)
  Epsilon function type                           ...         CPCM
Solvent:                                          ... WATER
Radii:
  Scheme                                          ... Element-dependent radii
  Radius for C  used is    3.8550 Bohr (=   2.0400 Ang.)
  Radius for O  used is    3.4469 Bohr (=   1.8240 Ang.)
  Radius for N  used is    3.5149 Bohr (=   1.8600 Ang.)
  Radius for H  used is    2.4944 Bohr (=   1.3200 Ang.)
Calculating surface                               ...        done! (  0.0s)
Cavity surface points                             ...         1898
Cavity Volume                                     ...    1245.1773
Cavity Surface-area                               ...     781.7200
Calculating surface distance matrix               ...        done! (  0.0s)
Performing Cholesky decomposition & store         ...        done! (  0.1s)
Overall time for CPCM initialization              ...                 0.1s

----------------------------------------D-I-I-S--------------------------------------------
Iteration    Energy (Eh)           Delta-E    RMSDP     MaxDP     DIISErr   Damp  Time(sec)
-------------------------------------------------------------------------------------------
               ***  Starting incremental Fock matrix formation  ***
    1    -552.5318621174779992     0.00e+00  1.96e-03  1.32e-01  3.44e-01  0.700   1.3
    2    -552.7924202829832439    -2.61e-01  1.41e-03  1.17e-01  1.41e-01  0.700   0.8
                               ***Turning on AO-DIIS***
    3    -552.8798961314779490    -8.75e-02  4.55e-04  2.51e-02  3.13e-02  0.700   0.8
    4    -552.9351937841989866    -5.53e-02  5.13e-04  2.77e-02  1.47e-02  0.000   0.8
    5    -553.0620387888935738    -1.27e-01  3.02e-04  3.02e-02  7.75e-03  0.000   0.8
[ga03:3463173] 9 more processes have sent help message help-mpi-btl-openib.txt / error in device init
[ga03:3463173] Set MCA parameter "orte_base_help_aggregate" to 0 to see all help / error messages
                              *** Initializing SOSCF ***
---------------------------------------S-O-S-C-F--------------------------------------
Iteration    Energy (Eh)           Delta-E    RMSDP     MaxDP     MaxGrad    Time(sec)
--------------------------------------------------------------------------------------
    6    -553.0626091752532147    -5.70e-04  1.00e-04  8.91e-03  1.94e-03     0.8
               *** Restarting incremental Fock matrix formation ***
    7    -553.0626834421037756    -7.43e-05  6.05e-05  4.91e-03  2.60e-04     1.2
    8    -553.0626861110280288    -2.67e-06  1.24e-05  8.06e-04  1.37e-04     1.0
    9    -553.0626871006426200    -9.90e-07  1.12e-05  8.33e-04  7.94e-05     0.9
   10    -553.0626871766381782    -7.60e-08  3.50e-06  2.16e-04  8.12e-05     0.9
   11    -553.0626873176305480    -1.41e-07  4.49e-06  3.75e-04  1.81e-05     0.8
   12    -553.0626873256338740    -8.00e-09  8.36e-07  5.08e-05  1.48e-05     0.8
                 **** Energy Check signals convergence ****

               *****************************************************
               *                     SUCCESS                       *
               *           SCF CONVERGED AFTER  12 CYCLES          *
               *****************************************************

Recomputing exchange energy using gridx3       ... done (    1.695 sec)
Old exchange energy                            :    -13.585733559 Eh
New exchange energy                            :    -13.585761347 Eh
Exchange energy change after final integration :     -0.000027788 Eh
Total energy after final integration           :   -553.062715114 Eh
             **** ENERGY FILE WAS UPDATED (00_Alanine_zwitterion.en.tmp) ****

----------------
TOTAL SCF ENERGY
----------------

Total Energy       :       -553.06271511376735 Eh          -15049.60159 eV

Components:
Nuclear Repulsion  :        481.07276014658271 Eh           13090.65532 eV
Electronic Energy  :      -1034.01564270306517 Eh          -28136.99610 eV
One Electron Energy:      -1714.09784735402241 Eh          -46642.97371 eV
Two Electron Energy:        680.08220465095712 Eh           18505.97761 eV
CPCM Dielectric    :         -0.11980476915132 Eh              -3.26005 eV

Virial components:
Potential Energy   :      -1103.80855946109841 Eh          -30036.15791 eV
Kinetic Energy     :        550.74584434733094 Eh           14986.55633 eV
Virial Ratio       :          2.00420678755948

DFT components:
N(Alpha)           :       39.000067075725 electrons
N(Beta)            :       39.000067075725 electrons
N(Total)           :       78.000134151451 electrons
E(X)               :      -54.082611990353 Eh       
E(C)               :       -3.157458186895 Eh       
E(XC)              :      -57.240070177248 Eh       

CPCM Solvation Model Properties:
Surface-charge          :         -0.02081592257921
Corrected charge        :         -0.00000000000000
Outlying charge corr.   :          0.00002810740188 Eh               0.00076 eV
Free-energy (cav+disp)  :  This term is not implemented in the current solvation scheme

---------------
SCF CONVERGENCE
---------------

  Last Energy change         ...    8.0033e-09  Tolerance :   1.0000e-08
  Last MAX-Density change    ...    5.0759e-05  Tolerance :   1.0000e-07
  Last RMS-Density change    ...    8.3559e-07  Tolerance :   5.0000e-09
  Last DIIS Error            ...    1.9409e-03  Tolerance :   5.0000e-07
  Last Orbital Gradient      ...    1.4846e-05  Tolerance :   1.0000e-05
  Last Orbital Rotation      ...    1.3811e-05  Tolerance :   1.0000e-05


----------------
ORBITAL ENERGIES
----------------

  NO   OCC          E(Eh)            E(eV) 
   0   2.0000     -19.145215      -520.9678 
   1   2.0000     -19.103081      -519.8212 
   2   2.0000     -19.084516      -519.3161 
   3   2.0000     -19.077599      -519.1279 
   4   2.0000     -19.073988      -519.0296 
   5   2.0000     -14.408408      -392.0727 
   6   2.0000     -10.265196      -279.3302 
   7   2.0000     -10.220312      -278.1088 
   8   2.0000     -10.172536      -276.8088 
   9   2.0000      -1.037394       -28.2289 
  10   2.0000      -1.028695       -27.9922 
  11   2.0000      -0.988023       -26.8855 
  12   2.0000      -0.980256       -26.6741 
  13   2.0000      -0.968800       -26.3624 
  14   2.0000      -0.946592       -25.7581 
  15   2.0000      -0.772290       -21.0151 
  16   2.0000      -0.655928       -17.8487 
  17   2.0000      -0.568346       -15.4655 
  18   2.0000      -0.566404       -15.4126 
  19   2.0000      -0.544118       -14.8062 
  20   2.0000      -0.525681       -14.3045 
  21   2.0000      -0.506371       -13.7791 
  22   2.0000      -0.490386       -13.3441 
  23   2.0000      -0.472142       -12.8476 
  24   2.0000      -0.462515       -12.5857 
  25   2.0000      -0.437537       -11.9060 
  26   2.0000      -0.426153       -11.5962 
  27   2.0000      -0.414580       -11.2813 
  28   2.0000      -0.395881       -10.7725 
  29   2.0000      -0.385412       -10.4876 
  30   2.0000      -0.370280       -10.0758 
  31   2.0000      -0.357294        -9.7225 
  32   2.0000      -0.352226        -9.5846 
  33   2.0000      -0.335849        -9.1389 
  34   2.0000      -0.303110        -8.2480 
  35   2.0000      -0.286385        -7.7929 
  36   2.0000      -0.267074        -7.2674 
  37   2.0000      -0.255960        -6.9650 
  38   2.0000      -0.250806        -6.8248 
  39   0.0000       0.012603         0.3429 
  40   0.0000       0.036379         0.9899 
  41   0.0000       0.048112         1.3092 
  42   0.0000       0.049997         1.3605 
  43   0.0000       0.065156         1.7730 
  44   0.0000       0.077662         2.1133 
  45   0.0000       0.102057         2.7771 
  46   0.0000       0.105905         2.8818 
  47   0.0000       0.112062         3.0494 
  48   0.0000       0.119520         3.2523 
  49   0.0000       0.143686         3.9099 
*Only the first 10 virtual orbitals were printed.

                    ********************************
                    * MULLIKEN POPULATION ANALYSIS *
                    ********************************

-----------------------
MULLIKEN ATOMIC CHARGES
-----------------------
   0 C :   -0.217094
   1 C :    0.341040
   2 O :   -0.586028
   3 O :   -0.587320
   4 C :   -0.093952
   5 N :   -0.255676
   6 H :    0.127102
   7 H :    0.130918
   8 H :    0.145490
   9 H :    0.145608
  10 H :    0.300827
  11 H :    0.315584
  12 H :    0.319993
  13 O :   -0.764970
  14 H :    0.334968
  15 H :    0.334087
  16 O :   -0.690766
  17 H :    0.378369
  18 H :    0.376437
  19 H :    0.349382
  20 O :   -0.747116
  21 H :    0.343118
Sum of atomic charges:    0.0000000

--------------------------------
MULLIKEN REDUCED ORBITAL CHARGES
--------------------------------
  0 C s       :     3.207600  s :     3.207600
      pz      :     0.977718  p :     2.932021
      px      :     0.960457
      py      :     0.993846
      dz2     :     0.014542  d :     0.071708
      dxz     :     0.014783
      dyz     :     0.014698
      dx2y2   :     0.011505
      dxy     :     0.016180
      f0      :     0.000481  f :     0.005765
      f+1     :     0.001135
      f-1     :     0.000573
      f+2     :     0.000643
      f-2     :     0.001598
      f+3     :     0.000782
      f-3     :     0.000553

  1 C s       :     3.055156  s :     3.055156
      pz      :     0.736748  p :     2.326833
      px      :     0.791883
      py      :     0.798202
      dz2     :     0.077121  d :     0.251594
      dxz     :     0.066270
      dyz     :     0.053594
      dx2y2   :     0.028162
      dxy     :     0.026448
      f0      :     0.005570  f :     0.025377
      f+1     :     0.006593
      f-1     :     0.003674
      f+2     :     0.003355
      f-2     :     0.003350
      f+3     :     0.001356
      f-3     :     0.001478

  2 O s       :     3.825278  s :     3.825278
      pz      :     1.612680  p :     4.734171
      px      :     1.484791
      py      :     1.636701
      dz2     :     0.005897  d :     0.024994
      dxz     :     0.006992
      dyz     :     0.005016
      dx2y2   :     0.003731
      dxy     :     0.003358
      f0      :     0.000217  f :     0.001585
      f+1     :     0.000345
      f-1     :     0.000161
      f+2     :     0.000328
      f-2     :     0.000300
      f+3     :     0.000131
      f-3     :     0.000102

  3 O s       :     3.834880  s :     3.834880
      pz      :     1.390005  p :     4.726137
      px      :     1.715099
      py      :     1.621033
      dz2     :     0.009425  d :     0.024727
      dxz     :     0.006388
      dyz     :     0.006825
      dx2y2   :     0.000896
      dxy     :     0.001194
      f0      :     0.000515  f :     0.001576
      f+1     :     0.000362
      f-1     :     0.000407
      f+2     :     0.000132
      f-2     :     0.000128
      f+3     :     0.000019
      f-3     :     0.000014

  4 C s       :     3.226375  s :     3.226375
      pz      :     0.964141  p :     2.761869
      px      :     0.901450
      py      :     0.896277
      dz2     :     0.020322  d :     0.097726
      dxz     :     0.018500
      dyz     :     0.020415
      dx2y2   :     0.014120
      dxy     :     0.024369
      f0      :     0.000848  f :     0.007982
      f+1     :     0.001294
      f-1     :     0.000704
      f+2     :     0.000762
      f-2     :     0.002118
      f+3     :     0.001224
      f-3     :     0.001030

  5 N s       :     3.429640  s :     3.429640
      pz      :     1.259979  p :     3.780488
      px      :     1.254132
      py      :     1.266377
      dz2     :     0.004999  d :     0.043390
      dxz     :     0.012887
      dyz     :     0.006869
      dx2y2   :     0.010452
      dxy     :     0.008182
      f0      :     0.000058  f :     0.002158
      f+1     :     0.000504
      f-1     :     0.000214
      f+2     :     0.000158
      f-2     :     0.000608
      f+3     :     0.000374
      f-3     :     0.000243

  6 H s       :     0.850976  s :     0.850976
      pz      :     0.010541  p :     0.021922
      px      :     0.006002
      py      :     0.005379

  7 H s       :     0.846987  s :     0.846987
      pz      :     0.005446  p :     0.022096
      px      :     0.007039
      py      :     0.009611

  8 H s       :     0.832838  s :     0.832838
      pz      :     0.010784  p :     0.021672
      px      :     0.006200
      py      :     0.004689

  9 H s       :     0.832673  s :     0.832673
      pz      :     0.005368  p :     0.021719
      px      :     0.006341
      py      :     0.010010

 10 H s       :     0.653436  s :     0.653436
      pz      :     0.007770  p :     0.045736
      px      :     0.012757
      py      :     0.025210

 11 H s       :     0.650880  s :     0.650880
      pz      :     0.015460  p :     0.033537
      px      :     0.010516
      py      :     0.007561

 12 H s       :     0.646561  s :     0.646561
      pz      :     0.012956  p :     0.033447
      px      :     0.012891
      py      :     0.007600

 13 O s       :     3.785583  s :     3.785583
      pz      :     1.588654  p :     4.959931
      px      :     1.702872
      py      :     1.668404
      dz2     :     0.003936  d :     0.018335
      dxz     :     0.004751
      dyz     :     0.001739
      dx2y2   :     0.001354
      dxy     :     0.006554
      f0      :     0.000073  f :     0.001122
      f+1     :     0.000169
      f-1     :     0.000327
      f+2     :     0.000035
      f-2     :     0.000256
      f+3     :     0.000089
      f-3     :     0.000172

 14 H s       :     0.614812  s :     0.614812
      pz      :     0.021027  p :     0.050220
      px      :     0.014387
      py      :     0.014806

 15 H s       :     0.610487  s :     0.610487
      pz      :     0.011969  p :     0.055426
      px      :     0.022683
      py      :     0.020774

 16 O s       :     3.798736  s :     3.798736
      pz      :     1.512026  p :     4.872408
      px      :     1.788602
      py      :     1.571780
      dz2     :     0.009199  d :     0.018369
      dxz     :     0.001415
      dyz     :     0.000701
      dx2y2   :     0.002189
      dxy     :     0.004864
      f0      :     0.000285  f :     0.001253
      f+1     :     0.000333
      f-1     :     0.000056
      f+2     :     0.000030
      f-2     :     0.000081
      f+3     :     0.000415
      f-3     :     0.000053

 17 H s       :     0.576941  s :     0.576941
      pz      :     0.019815  p :     0.044690
      px      :     0.014089
      py      :     0.010786

 18 H s       :     0.578828  s :     0.578828
      pz      :     0.010557  p :     0.044735
      px      :     0.015470
      py      :     0.018708

 19 H s       :     0.594088  s :     0.594088
      pz      :     0.010897  p :     0.056530
      px      :     0.015488
      py      :     0.030145

 20 O s       :     3.800008  s :     3.800008
      pz      :     1.483713  p :     4.928853
      px      :     1.852961
      py      :     1.592180
      dz2     :     0.007800  d :     0.017035
      dxz     :     0.002179
      dyz     :     0.000504
      dx2y2   :     0.002749
      dxy     :     0.003803
      f0      :     0.000299  f :     0.001219
      f+1     :     0.000180
      f-1     :     0.000216
      f+2     :     0.000084
      f-2     :     0.000056
      f+3     :     0.000310
      f-3     :     0.000073

 21 H s       :     0.610252  s :     0.610252
      pz      :     0.019371  p :     0.046630
      px      :     0.014821
      py      :     0.012438



                     *******************************
                     * LOEWDIN POPULATION ANALYSIS *
                     *******************************

----------------------
LOEWDIN ATOMIC CHARGES
----------------------
   0 C :   -0.240726
   1 C :   -0.620906
   2 O :   -0.089638
   3 O :   -0.079639
   4 C :   -0.245424
   5 N :    0.170428
   6 H :    0.151630
   7 H :    0.150679
   8 H :    0.144684
   9 H :    0.143599
  10 H :    0.187783
  11 H :    0.216650
  12 H :    0.217450
  13 O :   -0.401545
  14 H :    0.133808
  15 H :    0.129454
  16 O :   -0.275748
  17 H :    0.184214
  18 H :    0.184364
  19 H :    0.135045
  20 O :   -0.355333
  21 H :    0.159170

-------------------------------
LOEWDIN REDUCED ORBITAL CHARGES
-------------------------------
  0 C s       :     2.786383  s :     2.786383
      pz      :     1.024048  p :     3.063329
      px      :     1.013684
      py      :     1.025597
      dz2     :     0.064184  d :     0.354570
      dxz     :     0.089230
      dyz     :     0.064827
      dx2y2   :     0.046921
      dxy     :     0.089409
      f0      :     0.004363  f :     0.036444
      f+1     :     0.005992
      f-1     :     0.005063
      f+2     :     0.005242
      f-2     :     0.005802
      f+3     :     0.005934
      f-3     :     0.004048

  1 C s       :     2.765907  s :     2.765907
      pz      :     0.960635  p :     2.690344
      px      :     0.869116
      py      :     0.860594
      dz2     :     0.296791  d :     1.006180
      dxz     :     0.258399
      dyz     :     0.228412
      dx2y2   :     0.103247
      dxy     :     0.119331
      f0      :     0.031368  f :     0.158475
      f+1     :     0.039851
      f-1     :     0.023877
      f+2     :     0.023621
      f-2     :     0.021505
      f+3     :     0.008431
      f-3     :     0.009821

  2 O s       :     3.420431  s :     3.420431
      pz      :     1.578946  p :     4.603648
      px      :     1.483701
      py      :     1.541000
      dz2     :     0.014499  d :     0.060304
      dxz     :     0.018968
      dyz     :     0.009856
      dx2y2   :     0.006533
      dxy     :     0.010449
      f0      :     0.000799  f :     0.005255
      f+1     :     0.001387
      f-1     :     0.000453
      f+2     :     0.000844
      f-2     :     0.001133
      f+3     :     0.000244
      f-3     :     0.000394

  3 O s       :     3.417434  s :     3.417434
      pz      :     1.492081  p :     4.596439
      px      :     1.580626
      py      :     1.523732
      dz2     :     0.024117  d :     0.060542
      dxz     :     0.013681
      dyz     :     0.017999
      dx2y2   :     0.002414
      dxy     :     0.002330
      f0      :     0.001720  f :     0.005225
      f+1     :     0.001091
      f-1     :     0.001608
      f+2     :     0.000388
      f-2     :     0.000337
      f+3     :     0.000053
      f-3     :     0.000029

  4 C s       :     2.798978  s :     2.798978
      pz      :     1.040940  p :     2.969182
      px      :     0.975178
      py      :     0.953064
      dz2     :     0.076605  d :     0.427407
      dxz     :     0.093171
      dyz     :     0.082345
      dx2y2   :     0.059915
      dxy     :     0.115372
      f0      :     0.006842  f :     0.049857
      f+1     :     0.006724
      f-1     :     0.006323
      f+2     :     0.005590
      f-2     :     0.008793
      f+3     :     0.008650
      f-3     :     0.006936

  5 N s       :     2.983505  s :     2.983505
      pz      :     1.224198  p :     3.688021
      px      :     1.223107
      py      :     1.240716
      dz2     :     0.017662  d :     0.148533
      dxz     :     0.043833
      dyz     :     0.023878
      dx2y2   :     0.030565
      dxy     :     0.032595
      f0      :     0.000752  f :     0.009513
      f+1     :     0.001501
      f-1     :     0.001631
      f+2     :     0.001215
      f-2     :     0.001236
      f+3     :     0.001737
      f-3     :     0.001441

  6 H s       :     0.788260  s :     0.788260
      pz      :     0.026767  p :     0.060110
      px      :     0.017371
      py      :     0.015972

  7 H s       :     0.788995  s :     0.788995
      pz      :     0.014811  p :     0.060325
      px      :     0.019783
      py      :     0.025732

  8 H s       :     0.794282  s :     0.794282
      pz      :     0.028526  p :     0.061034
      px      :     0.018177
      py      :     0.014331

  9 H s       :     0.795169  s :     0.795169
      pz      :     0.015209  p :     0.061232
      px      :     0.018355
      py      :     0.027668

 10 H s       :     0.680971  s :     0.680971
      pz      :     0.022018  p :     0.131246
      px      :     0.038266
      py      :     0.070962

 11 H s       :     0.682251  s :     0.682251
      pz      :     0.046593  p :     0.101100
      px      :     0.030323
      py      :     0.024184

 12 H s       :     0.681230  s :     0.681230
      pz      :     0.041072  p :     0.101319
      px      :     0.037967
      py      :     0.022281

 13 O s       :     3.464874  s :     3.464874
      pz      :     1.584605  p :     4.907906
      px      :     1.684832
      py      :     1.638469
      dz2     :     0.006129  d :     0.026664
      dxz     :     0.006276
      dyz     :     0.003811
      dx2y2   :     0.000564
      dxy     :     0.009884
      f0      :     0.000123  f :     0.002100
      f+1     :     0.000509
      f-1     :     0.000473
      f+2     :     0.000004
      f-2     :     0.000439
      f+3     :     0.000178
      f-3     :     0.000376

 14 H s       :     0.693220  s :     0.693220
      pz      :     0.077737  p :     0.172973
      px      :     0.048794
      py      :     0.046442

 15 H s       :     0.681391  s :     0.681391
      pz      :     0.036664  p :     0.189154
      px      :     0.082035
      py      :     0.070455

 16 O s       :     3.445955  s :     3.445955
      pz      :     1.507604  p :     4.799101
      px      :     1.739723
      py      :     1.551774
      dz2     :     0.014952  d :     0.028390
      dxz     :     0.002321
      dyz     :     0.000440
      dx2y2   :     0.002931
      dxy     :     0.007745
      f0      :     0.000647  f :     0.002302
      f+1     :     0.000526
      f-1     :     0.000280
      f+2     :     0.000031
      f-2     :     0.000061
      f+3     :     0.000753
      f-3     :     0.000003

 17 H s       :     0.657094  s :     0.657094
      pz      :     0.082837  p :     0.158691
      px      :     0.043927
      py      :     0.031928

 18 H s       :     0.656898  s :     0.656898
      pz      :     0.029864  p :     0.158738
      px      :     0.052668
      py      :     0.076206

 19 H s       :     0.669569  s :     0.669569
      pz      :     0.031989  p :     0.195386
      px      :     0.052985
      py      :     0.110411

 20 O s       :     3.454881  s :     3.454881
      pz      :     1.493332  p :     4.871006
      px      :     1.809805
      py      :     1.567869
      dz2     :     0.013690  d :     0.027298
      dxz     :     0.003139
      dyz     :     0.001482
      dx2y2   :     0.003950
      dxy     :     0.005036
      f0      :     0.000655  f :     0.002148
      f+1     :     0.000376
      f-1     :     0.000407
      f+2     :     0.000069
      f-2     :     0.000079
      f+3     :     0.000505
      f-3     :     0.000056

 21 H s       :     0.677695  s :     0.677695
      pz      :     0.081110  p :     0.163136
      px      :     0.045830
      py      :     0.036196



                      *****************************
                      * MAYER POPULATION ANALYSIS *
                      *****************************

  NA   - Mulliken gross atomic population
  ZA   - Total nuclear charge
  QA   - Mulliken gross atomic charge
  VA   - Mayer's total valence
  BVA  - Mayer's bonded valence
  FA   - Mayer's free valence

  ATOM       NA         ZA         QA         VA         BVA        FA
  0 C      6.2171     6.0000    -0.2171     3.8236     3.8236     0.0000
  1 C      5.6590     6.0000     0.3410     4.3104     4.3104     0.0000
  2 O      8.5860     8.0000    -0.5860     1.8591     1.8591     0.0000
  3 O      8.5873     8.0000    -0.5873     1.8333     1.8333     0.0000
  4 C      6.0940     6.0000    -0.0940     3.7907     3.7907     0.0000
  5 N      7.2557     7.0000    -0.2557     3.4758     3.4758    -0.0000
  6 H      0.8729     1.0000     0.1271     0.9790     0.9790     0.0000
  7 H      0.8691     1.0000     0.1309     0.9846     0.9846     0.0000
  8 H      0.8545     1.0000     0.1455     0.9792     0.9792     0.0000
  9 H      0.8544     1.0000     0.1456     0.9787     0.9787     0.0000
 10 H      0.6992     1.0000     0.3008     0.9681     0.9681     0.0000
 11 H      0.6844     1.0000     0.3156     0.9015     0.9015    -0.0000
 12 H      0.6800     1.0000     0.3200     0.8956     0.8956    -0.0000
 13 O      8.7650     8.0000    -0.7650     1.6902     1.6902     0.0000
 14 H      0.6650     1.0000     0.3350     0.9427     0.9427    -0.0000
 15 H      0.6659     1.0000     0.3341     0.9775     0.9775    -0.0000
 16 O      8.6908     8.0000    -0.6908     1.8395     1.8395     0.0000
 17 H      0.6216     1.0000     0.3784     0.8713     0.8713    -0.0000
 18 H      0.6236     1.0000     0.3764     0.8726     0.8726    -0.0000
 19 H      0.6506     1.0000     0.3494     0.9465     0.9465    -0.0000
 20 O      8.7471     8.0000    -0.7471     1.7194     1.7194    -0.0000
 21 H      0.6569     1.0000     0.3431     0.9006     0.9006     0.0000

  Mayer bond orders larger than 0.100000
B(  0-C ,  1-C ) :   0.9772 B(  0-C ,  4-C ) :   0.9675 B(  0-C ,  6-H ) :   0.9497 
B(  0-C ,  7-H ) :   0.9513 B(  1-C ,  2-O ) :   1.6749 B(  1-C ,  3-O ) :   1.6219 
B(  2-O , 15-H ) :   0.1404 B(  3-O , 19-H ) :   0.1449 B(  4-C ,  5-N ) :   0.8934 
B(  4-C ,  8-H ) :   0.9608 B(  4-C ,  9-H ) :   0.9606 B(  5-N , 10-H ) :   0.8267 
B(  5-N , 11-H ) :   0.8830 B(  5-N , 12-H ) :   0.8835 B( 10-H , 16-O ) :   0.1321 
B( 13-O , 14-H ) :   0.8663 B( 13-O , 15-H ) :   0.8184 B( 16-O , 17-H ) :   0.8631 
B( 16-O , 18-H ) :   0.8642 B( 19-H , 20-O ) :   0.7783 B( 20-O , 21-H ) :   0.8850 


-------
TIMINGS
-------

Total SCF time: 0 days 0 hours 0 min 12 sec 

Total time                  ....      12.951 sec
Sum of individual times     ....      12.896 sec  ( 99.6%)

SCF preparation             ....       0.461 sec  (  3.6%)
Fock matrix formation       ....      11.764 sec  ( 90.8%)
  Startup                   ....       0.035 sec  (  0.3% of F)
  Split-RI-J                ....       0.905 sec  (  7.7% of F)
  Chain of spheres X        ....       7.809 sec  ( 66.4% of F)
  XC integration            ....       1.457 sec  ( 12.4% of F)
    XC Preparation          ....       0.000 sec  (  0.0% of XC)
    Basis function eval.    ....       0.397 sec  ( 27.3% of XC)
    Density eval.           ....       0.305 sec  ( 20.9% of XC)
    XC-Functional eval.     ....       0.067 sec  (  4.6% of XC)
    XC-Potential eval.      ....       0.444 sec  ( 30.5% of XC)
  CPCM terms                ....       1.453 sec  ( 12.4% of F)
Diagonalization             ....       0.000 sec  (  0.0%)
Density matrix formation    ....       0.075 sec  (  0.6%)
Total Energy calculation    ....       0.056 sec  (  0.4%)
Population analysis         ....       0.028 sec  (  0.2%)
Orbital Transformation      ....       0.057 sec  (  0.4%)
Orbital Orthonormalization  ....       0.000 sec  (  0.0%)
DIIS solution               ....       0.286 sec  (  2.2%)
SOSCF solution              ....       0.168 sec  (  1.3%)
Finished LeanSCF after  13.0 sec

Maximum memory used throughout the entire LEANSCF-calculation: 36.6 MB


-------------------------------------------------------------------------------
                          DFT DISPERSION CORRECTION                            
                                                                               
                                DFTD4 V3.4.0                                   
-------------------------------------------------------------------------------
The B3LYP functional is recognized
Active option DFTDOPT                   ...         5   

-------------------------   ----------------
Dispersion correction           -0.021132184
-------------------------   ----------------


-------------------------   --------------------
FINAL SINGLE POINT ENERGY      -553.083847297924
-------------------------   --------------------

--------------------------------------------------------------------------
WARNING: There was an error initializing an OpenFabrics device.

  Local host:   ga03
  Local device: mlx5_0
--------------------------------------------------------------------------


           ************************************************************
           *        Program running with 10 parallel MPI-processes    *
           *              working on a common directory               *
           ************************************************************
------------------------------------------------------------------------------
                         ORCA SCF GRADIENT CALCULATION
------------------------------------------------------------------------------

Nuc. rep. gradient        (SHARK) ... done (  0.0 sec)
HCore & Overlap gradient  (SHARK) ... done (  0.1 sec)
Split-RIJ-J gradient      (SHARK) ... done (  0.3 sec)
COSX-gradient                     ... done (  4.1 sec)
XC gradient                       ... [ga03:3463225] 9 more processes have sent help message help-mpi-btl-openib.txt / error in device init
[ga03:3463225] Set MCA parameter "orte_base_help_aggregate" to 0 to see all help / error messages
done (  0.7 sec)
CPCM gradient                     ... done (  0.5 sec)
Dispersion correction             ... done (  0.0 sec)

-------------------
DISPERSION GRADIENT
-------------------

   1   C   :   -0.000032505    0.000118085   -0.000159290
[...]
      dxy     :     0.121151
      f0      :     0.005540  f :     0.049922
      f+1     :     0.007072
      f-1     :     0.006525
      f+2     :     0.005999
      f-2     :     0.008732
      f+3     :     0.008773
      f-3     :     0.007281

  5 N s       :     2.983190  s :     2.983190
      pz      :     1.222152  p :     3.687821
      px      :     1.224013
      py      :     1.241656
      dz2     :     0.023844  d :     0.148598
      dxz     :     0.039920
      dyz     :     0.019644
      dx2y2   :     0.031721
      dxy     :     0.033469
      f0      :     0.000742  f :     0.009525
      f+1     :     0.001363
      f-1     :     0.001717
      f+2     :     0.001510
      f-2     :     0.001054
      f+3     :     0.001654
      f-3     :     0.001486

  6 H s       :     0.787456  s :     0.787456
      pz      :     0.029357  p :     0.060130
      px      :     0.015743
      py      :     0.015030

  7 H s       :     0.789917  s :     0.789917
      pz      :     0.013616  p :     0.060304
      px      :     0.020191
      py      :     0.026496

  8 H s       :     0.794063  s :     0.794063
      pz      :     0.031780  p :     0.060946
      px      :     0.016360
      py      :     0.012806

  9 H s       :     0.795405  s :     0.795405
      pz      :     0.013623  p :     0.061307
      px      :     0.019423
      py      :     0.028261

 10 H s       :     0.680920  s :     0.680920
      pz      :     0.018127  p :     0.130996
      px      :     0.041292
      py      :     0.071577

 11 H s       :     0.682177  s :     0.682177
      pz      :     0.051787  p :     0.101159
      px      :     0.027158
      py      :     0.022214

 12 H s       :     0.681301  s :     0.681301
      pz      :     0.038139  p :     0.101398
      px      :     0.041913
      py      :     0.021346

 13 O s       :     3.465035  s :     3.465035
      pz      :     1.529873  p :     4.912904
      px      :     1.767057
      py      :     1.615974
      dz2     :     0.010512  d :     0.026595
      dxz     :     0.005072
      dyz     :     0.001471
      dx2y2   :     0.001101
      dxy     :     0.008438
      f0      :     0.000360  f :     0.002087
      f+1     :     0.000596
      f-1     :     0.000337
      f+2     :     0.000027
      f-2     :     0.000195
      f+3     :     0.000523
      f-3     :     0.000048

 14 H s       :     0.693509  s :     0.693509
      pz      :     0.091124  p :     0.177409
      px      :     0.048597
      py      :     0.037688

 15 H s       :     0.683424  s :     0.683424
      pz      :     0.033151  p :     0.189259
      px      :     0.066707
      py      :     0.089401

 16 O s       :     3.445413  s :     3.445413
      pz      :     1.545513  p :     4.799831
      px      :     1.708978
      py      :     1.545340
      dz2     :     0.012104  d :     0.028357
      dxz     :     0.004368
      dyz     :     0.000760
      dx2y2   :     0.003899
      dxy     :     0.007227
      f0      :     0.000305  f :     0.002308
      f+1     :     0.000773
      f-1     :     0.000327
      f+2     :     0.000097
      f-2     :     0.000062
      f+3     :     0.000719
      f-3     :     0.000023

 17 H s       :     0.657243  s :     0.657243
      pz      :     0.079056  p :     0.158791
      px      :     0.047884
      py      :     0.031850

 18 H s       :     0.656922  s :     0.656922
      pz      :     0.031484  p :     0.158724
      px      :     0.049768
      py      :     0.077471

 19 H s       :     0.669615  s :     0.669615
      pz      :     0.048460  p :     0.196254
      px      :     0.059202
      py      :     0.088593

 20 O s       :     3.464006  s :     3.464006
      pz      :     1.549021  p :     4.856650
      px      :     1.651561
      py      :     1.656067
      dz2     :     0.002682  d :     0.027486
      dxz     :     0.006236
      dyz     :     0.008745
      dx2y2   :     0.001886
      dxy     :     0.007936
      f0      :     0.000206  f :     0.002096
      f+1     :     0.000439
      f-1     :     0.000266
      f+2     :     0.000076
      f-2     :     0.000697
      f+3     :     0.000358
      f-3     :     0.000053

 21 H s       :     0.676433  s :     0.676433
      pz      :     0.064802  p :     0.162325
      px      :     0.051953
      py      :     0.045570



                      *****************************
                      * MAYER POPULATION ANALYSIS *
                      *****************************

  NA   - Mulliken gross atomic population
  ZA   - Total nuclear charge
  QA   - Mulliken gross atomic charge
  VA   - Mayer's total valence
  BVA  - Mayer's bonded valence
  FA   - Mayer's free valence

  ATOM       NA         ZA         QA         VA         BVA        FA
  0 C      6.2174     6.0000    -0.2174     3.8237     3.8237     0.0000
  1 C      5.6654     6.0000     0.3346     4.3247     4.3247     0.0000
  2 O      8.5822     8.0000    -0.5822     1.8572     1.8572     0.0000
  3 O      8.5837     8.0000    -0.5837     1.8366     1.8366    -0.0000
  4 C      6.0944     6.0000    -0.0944     3.7918     3.7918    -0.0000
  5 N      7.2557     7.0000    -0.2557     3.4772     3.4772     0.0000
  6 H      0.8709     1.0000     0.1291     0.9775     0.9775     0.0000
  7 H      0.8713     1.0000     0.1287     0.9871     0.9871    -0.0000
  8 H      0.8535     1.0000     0.1465     0.9775     0.9775    -0.0000
  9 H      0.8550     1.0000     0.1450     0.9796     0.9796    -0.0000
 10 H      0.6980     1.0000     0.3020     0.9665     0.9665    -0.0000
 11 H      0.6845     1.0000     0.3155     0.9016     0.9016    -0.0000
 12 H      0.6799     1.0000     0.3201     0.8956     0.8956     0.0000
 13 O      8.7689     8.0000    -0.7689     1.6821     1.6821    -0.0000
 14 H      0.6700     1.0000     0.3300     0.9545     0.9545    -0.0000
 15 H      0.6674     1.0000     0.3326     0.9794     0.9794     0.0000
 16 O      8.6911     8.0000    -0.6911     1.8386     1.8386     0.0000
 17 H      0.6217     1.0000     0.3783     0.8713     0.8713     0.0000
 18 H      0.6238     1.0000     0.3762     0.8730     0.8730     0.0000
 19 H      0.6478     1.0000     0.3522     0.9554     0.9554    -0.0000
 20 O      8.7479     8.0000    -0.7479     1.7394     1.7394    -0.0000
 21 H      0.6494     1.0000     0.3506     0.8941     0.8941     0.0000

  Mayer bond orders larger than 0.100000
B(  0-C ,  1-C ) :   0.9787 B(  0-C ,  4-C ) :   0.9663 B(  0-C ,  6-H ) :   0.9486 
B(  0-C ,  7-H ) :   0.9528 B(  1-C ,  2-O ) :   1.6784 B(  1-C ,  3-O ) :   1.6215 
B(  2-O , 15-H ) :   0.1370 B(  3-O , 19-H ) :   0.1527 B(  4-C ,  5-N ) :   0.8938 
B(  4-C ,  8-H ) :   0.9617 B(  4-C ,  9-H ) :   0.9596 B(  5-N , 10-H ) :   0.8271 
B(  5-N , 11-H ) :   0.8833 B(  5-N , 12-H ) :   0.8834 B( 10-H , 16-O ) :   0.1299 
B( 13-O , 14-H ) :   0.8584 B( 13-O , 15-H ) :   0.8208 B( 16-O , 17-H ) :   0.8632 
B( 16-O , 18-H ) :   0.8643 B( 19-H , 20-O ) :   0.7761 B( 20-O , 21-H ) :   0.8822 


-------
TIMINGS
-------

Total SCF time: 0 days 0 hours 0 min 7 sec 

Total time                  ....       7.680 sec
Sum of individual times     ....       7.623 sec  ( 99.3%)

SCF preparation             ....       0.593 sec  (  7.7%)
Fock matrix formation       ....       6.550 sec  ( 85.3%)
  Startup                   ....       0.032 sec  (  0.5% of F)
  Split-RI-J                ....       0.377 sec  (  5.8% of F)
  Chain of spheres X        ....       4.895 sec  ( 74.7% of F)
  XC integration            ....       0.604 sec  (  9.2% of F)
    XC Preparation          ....       0.000 sec  (  0.0% of XC)
    Basis function eval.    ....       0.171 sec  ( 28.2% of XC)
    Density eval.           ....       0.143 sec  ( 23.6% of XC)
    XC-Functional eval.     ....       0.028 sec  (  4.7% of XC)
    XC-Potential eval.      ....       0.168 sec  ( 27.9% of XC)
  CPCM terms                ....       0.602 sec  (  9.2% of F)
Diagonalization             ....       0.000 sec  (  0.0%)
Density matrix formation    ....       0.040 sec  (  0.5%)
Total Energy calculation    ....       0.025 sec  (  0.3%)
Population analysis         ....       0.208 sec  (  2.7%)
Orbital Transformation      ....       0.031 sec  (  0.4%)
Orbital Orthonormalization  ....       0.000 sec  (  0.0%)
DIIS solution               ....       0.040 sec  (  0.5%)
SOSCF solution              ....       0.135 sec  (  1.8%)
Finished LeanSCF after   8.0 sec

Maximum memory used throughout the entire LEANSCF-calculation: 42.4 MB


-------------------------------------------------------------------------------
                          DFT DISPERSION CORRECTION                            
                                                                               
                                DFTD4 V3.4.0                                   
-------------------------------------------------------------------------------
The B3LYP functional is recognized
Active option DFTDOPT                   ...         5   

-------------------------   ----------------
Dispersion correction           -0.021125902
-------------------------   ----------------


-------------------------   --------------------
FINAL SINGLE POINT ENERGY      -553.085026141597
-------------------------   --------------------

                                *** OPTIMIZATION RUN DONE ***

--------------------------------------------------------------------------
WARNING: There was an error initializing an OpenFabrics device.

  Local host:   ga03
  Local device: mlx5_0
--------------------------------------------------------------------------


           ************************************************************
           *        Program running with 10 parallel MPI-processes    *
           *              working on a common directory               *
           ************************************************************

------------------------------------------------------------------------------
                              ORCA PROPERTY CALCULATIONS
------------------------------------------------------------------------------

GBWName                                 ... 00_Alanine_zwitterion.gbw
Number of atoms                         ...     22
Number of basis functions               ...    357
Max core memory                         ...   5000 MB

Electric properties:
Dipole moment                           ... YES
Quadrupole moment                       ...  NO
Static polarizability (Dipole/Dipole)   ...  NO
Static polarizability (Dipole/Quad.)    ...  NO
Static polarizability (Quad./Quad.)     ...  NO
Static polarizability (Velocity)        ...  NO

Atomic electric properties:
Dipole moment                           ...  NO
Quadrupole moment                       ...  NO
Static polarizability                   ...  NO

Choice of electric origin               ... Center of mass
Position of electric origin             ...    -1.357414     3.175586    -1.189176

General magnetic properties:
Magnetizability                         ...  NO

EPR properties:
g-Tensor (aka g-matrix)                 ...  NO
Zero-Field splitting spin-orbit         ...  NO
Zero-field splitting spin-spin          ...  NO
Hyperfine couplings                     ...  NO (   0 nuclei)
Quadrupole couplings                    ...  NO (   0 nuclei)
Contact density                         ...  NO (   0 nuclei)

NMR properties:
Chemical shifts                         ...  NO (   0 nuclei)
Spin-rotation constants                 ...  NO (   0 nuclei)
Spin-spin couplings                     ...  NO (   0 nuclei,    0 pairs)

Choice of magnetic origin               ... GIAO
Position of magnetic origin             ...     0.000000     0.000000     0.000000

Properties with geometric perturbations:
SCF Hessian                             ...  NO
IR spectrum                             ...  NO
VCD spectrum                            ...  NO
X-ray spectroscopy properties:
SCF XES/XAS/RIXS spectra                ...  NO


-------------
DIPOLE MOMENT
-------------

Method             : SCF
Type of density    : Electron Density
Multiplicity       :   1
Irrep              :   0
Energy             :  -553.0639002395715806 Eh
Relativity type    : 
Basis              : AO
                                X                 Y                 Z
Electronic contribution:     -0.111806852       0.558536977      -0.518360938
Nuclear contribution   :      7.308493232      -9.387441981       0.272601240
                        -----------------------------------------
Total Dipole Moment    :      7.196686381      -8.828905004      -0.245759699
                        -----------------------------------------
Magnitude (a.u.)       :     11.393079314
Magnitude (Debye)      :     28.958906214



--------------------
Rotational spectrum 
--------------------
 
Rotational constants in cm-1:             0.078131             0.014668             0.013401 
Rotational constants in MHz :          2342.294948           439.723387           401.743903 

Dipole components along the rotational axes: 
x,y,z [a.u.] :    11.239860     1.852463    -0.190203 
x,y,z [Debye]:    28.569455     4.708586    -0.483459 

 

Dipole moment calculation done in   0.1 sec 

Maximum memory used throughout the entire PROP-calculation: 24.4 MB
[ga03:3486890] 9 more processes have sent help message help-mpi-btl-openib.txt / error in device init
[ga03:3486890] Set MCA parameter "orte_base_help_aggregate" to 0 to see all help / error messages
--------------------------------------------------------------------------
WARNING: There was an error initializing an OpenFabrics device.

  Local host:   ga03
  Local device: mlx5_0
--------------------------------------------------------------------------
[ga03:3486934] 9 more processes have sent help message help-mpi-btl-openib.txt / error in device init
[ga03:3486934] Set MCA parameter "orte_base_help_aggregate" to 0 to see all help / error messages

--------------------------------
SUGGESTED CITATIONS FOR THIS RUN
--------------------------------

Below you find a list of papers that are relevant to this ORCA run
We neither can nor want to force you to cite these papers, but we appreciate if you do
You receive ORCA, which is the product of decades of hard work by many enthusiastic individuals, for free
The only thing we kindly ask in return is that you cite our papers,
We deeply appreciate it, if you show your appreciation for ORCA by not just citing the generic ORCA reference.

Please note that relegating all ORCA citations to the supporting information does *not* help us.
SI sections are not indexed - citations you put there will not count into any citation statistics
But we need these citations in order to attract the funding resources that allow us to do what we are doing

Therefore, if you are a happy ORCA user, please consider citing a few of the papers listed below in the main body of your paper

In addition to the list printed below, the program has created the file 00_Alanine_zwitterion.bibtex that contains the list in bibtex format
You can import this file easily into all common literature databanks and citation aid programs


List of essential papers. We consider these as the minimum necessary citations

  1. Neese,F.
     Software update: the ORCA program system, version 5.0
     WIRES Comput. Molec. Sci., 2022 12(1)e1606
     doi.org/10.1002/wcms.1606

List of papers to cite with high priority. The work reported in these papers was absolutely
necessary for this run to complete.
Our perspective: the developers of density functionals and basis sets usually get cited in chemistry papers
Good! But without the algorithms to do something with them, the functionals or basis sets would not do anything.
Hence, in our opinion, the algorithm design and method developments papers are equally worthy of getting cited

  1. Neese,F.
     An improvement of the resolution of the identity approximation for the formation of the Coulomb matrix
     J. Comp. Chem., 2003 24(14)1740-1747
     doi.org/10.1002/jcc.10318
  2. Neese,F.; Wennmohs,F.; Hansen,A.; Becker,U.
     Efficient, approximate and parallel Hartree-Fock and hybrid DFT calculations. A 'chain-of-spheres' algorithm for the Hartree-Fock exchange
     Chem. Phys., 2009 356(1-3)98-109
     doi.org/10.1016/j.chemphys.2008.10.036
  3. Garcia-Rates,M.; Neese,F.
     Effect of the Solute Cavity on the Solvation Energy and its Derivatives within the Framework of the Gaussian Charge Scheme
     J. Comput. Chem., 2020 41 922-939
     doi.org/10.1002/jcc.26139
  4. Helmich-Paris,B.; de Souza,B.; Neese,F.; Izsák,R.
     An improved chain of spheres for exchange algorithm
     J. Chem. Phys., 2021 155 104109
     doi.org/doi: 10.1063/5.0058766.
  5. Neese,F.
     The SHARK Integral Generation and Digestion System
     J. Comp. Chem., 2022  1-16
     doi.org/10.1002/jcc.26942
  6. Caldeweyher,E.; Bannwarth,C.; Grimme,S.
     Extension of the D3 dispersion coefficient model
     J. Chem. Phys., 2017 147 034112
     doi.org/10.1063/1.4993215
  7. Caldeweyher,E.; Ehlert,S.; Hansen,A.; Neugebauer,H.; Spicher,S.; Bannwarth,C.; Grimme,S.
     A generally applicable atomic-charge dependent London dispersion correction
     J. Chem. Phys., 2019 150 154122
     doi.org/10.1063/1.5090222
  8. Caldeweyher,E.; Mewes,J.; Ehlert,S.; Grimme,S.
     Extension and evaluation of the D4 London-dispersion model for periodic systems
     Phys. Chem. Chem. Phys., 2020 22(16)8499-8512
     doi.org/10.1039/D0CP00502A
  9. Wittmann,L.; Gordiy,I.; Friede,M.; Helmich-Paris,B.; Grimme,S.; Hansen,A.; Bursch,M.
     Extension of the D3 and D4 London Dispersion Corrections to the full Actinides Series
     Phys. Chem. Chem. Phys., 2024 26(32)21379-21394
     doi.org/https://doi.org/10.1039/D4CP01514B 

List of suggested additional citations. These are papers that are important in the 'surrounding' of 
of this run, or papers that preceded the highly important papers. If you like your results we are grateful for a citation.

  1. Izsak,R.; Neese,F.
     An overlap fitted chain of spheres exchange method
     J. Chem. Phys., 2011 135 144105
     doi.org/10.1063/1.3646921
  2. Izsak,R.; Hansen,A.; Neese,F.
     The resolution of identity and chain of spheres approximations for the LPNO-CCSD singles Fock term
     Molec. Phys., 2012 110 2413-2417
     doi.org/10.1080/00268976.2012.687466
  3. Neese,F.
     The ORCA program system
     WIRES Comput. Molec. Sci., 2012 2(1)73-78
     doi.org/10.1002/wcms.81
  4. Izsak,R.; Neese,F.; Klopper,W.
     Robust fitting techniques in the chain of spheres approximation to the Fock exchange: The role of the complementary space
     J. Chem. Phys., 2013 139 
     doi.org/10.1063/1.4819264
  5. Neese,F.
     Software update: the ORCA program system, version 4.0
     WIRES Comput. Molec. Sci., 2018 8(1)1-6
     doi.org/10.1002/wcms.1327
  6. Neese,F.; Wennmohs,F.; Becker,U.; Riplinger,C.
     The ORCA quantum chemistry program package
     J. Chem. Phys., 2020 152 Art. No. L224108
     doi.org/10.1063/5.0004608

List of optional additional citations

  1. Neese,F.
     Approximate second-order SCF convergence for spin unrestricted wavefunctions
     Chem. Phys. Lett., 2000 325(1-3)93-98
     doi.org/10.1016/s0009-2614(00)00662-x

Timings for individual modules:

Sum of individual times          ...      809.114 sec (=  13.485 min)
Startup calculation              ...       62.165 sec (=   1.036 min)   7.7 %
SCF iterations                   ...      464.902 sec (=   7.748 min)  57.5 %
Property calculations            ...        0.627 sec (=   0.010 min)   0.1 %
SCF Gradient evaluation          ...      281.112 sec (=   4.685 min)  34.7 %
Geometry relaxation              ...        0.308 sec (=   0.005 min)   0.0 %
                             ****ORCA TERMINATED NORMALLY****
TOTAL RUN TIME: 0 days 0 hours 13 minutes 54 seconds 548 msec
