46
 energy: -431.763207284363 gnorm: 0.000546145767 xtb: 6.7.1 (edcfbbe)
N       -0.4079354014      0.4657946331      1.6324015415                 
C       -0.3906047176     -0.0578645048      0.2612611695                 
C        0.1636898289      1.0032680848     -0.6779109836                 
C        0.2887223646      0.4946290846     -2.1009043767                 
C        0.4997298062      1.5650959839     -3.1363344323                 
O        0.6337959174      2.7762632718     -2.8192913984                 
O        0.4743593932      1.1922341015     -4.3509165335                 
H        0.5196018885      0.8659419999      1.8509586229                 
H       -1.0851562948      1.2306744534      1.7667316275                 
H       -1.3935068384     -0.3440853141     -0.0457483061                 
H        0.2582955648     -0.9281922732      0.2323715765                 
H        1.1542918998      1.2993985721     -0.3504148202                 
H       -0.4746159095      1.8803798621     -0.6807488891                 
H       -0.6072499099     -0.0401449132     -2.4103168935                 
H        1.1367485548     -0.1833063383     -2.1898366249                 
H       -0.6127104423     -0.3090640131      2.2926586777                 
O       -0.5358644614     -1.7746594162      3.1358545612                 
H       -0.6210322572     -2.6610204712      2.7798794847                 
H       -1.0452584013     -1.7470112340      3.9667696297                 
O        2.1778810728      2.3791221647     -6.0417707785                 
H        2.4739525042      3.1304097949     -5.4940340306                 
H        1.5008197253      1.9274904077     -5.4794760808                 
O        2.4715156550      4.3234582718     -4.1053772813                 
H        1.9782874149      5.1354337491     -4.3198097645                 
H        1.8251766927      3.7687188020     -3.6129619507                 
O        0.6054314412     -1.4971193479     -4.6282388547                 
H        0.4412159419     -0.5395941352     -4.4900473872                 
H        0.4350283223     -1.9441371778     -3.7501078747                 
O        1.8852608333      2.0842369975      1.9549831175                 
H        1.6173575342      2.7625361343      1.3204392832                 
H        2.5346521238      1.5284541088      1.4871949158                 
O       -1.4517378550      3.7520312988     -0.2304375208                 
H       -1.9728281305      4.1784198963     -0.9307787904                 
H       -0.5359772434      4.0358245338     -0.3242421312                 
O        1.4638390518      3.7836788019     -0.3403592760                 
H        2.4268094362      3.7061278787     -0.1630697758                 
H        1.3221557973      3.4335441862     -1.2335337724                 
O       -1.1916722144      4.3363970651     -4.1446252414                 
H       -1.8856497513      4.5614361599     -3.5039503912                 
H       -0.5355177061      3.8041529811     -3.6445224297                 
O       -1.8663558228      1.9420159166     -5.4793979121                 
H       -1.8389008204      2.8832275537     -5.2439753976                 
H       -1.0784274905      1.5637244140     -5.0359125529                 
O       -1.9967370886      2.8026426005      2.2056393617                 
H       -2.0520570209      3.3576255999      2.9996003525                 
H       -1.7596189946      3.3777945250      1.4628051269                 
