34
 energy: -56.594442532914 gnorm: 0.179885165977 xtb: 6.7.1 (edcfbbe)
H            1.51131700000000       -0.30682800000000       -0.55501400000000
C            0.42356400000000       -0.53272100000000       -0.60971700000000
H            0.15351800000000        0.48284000000000       -2.37712700000000
H            0.30622500000000       -1.51992900000000       -1.10801900000000
N           -0.26687200000000        0.47309100000000       -1.42055200000000
H            0.31243500000000       -1.51306200000000        1.31258500000000
C           -0.16516600000000       -0.64664900000000        0.80679900000000
O            0.75046400000000        1.63132300000000        1.24106600000000
C            0.05694300000000        0.56251400000000        1.67849900000000
H           -0.17036900000000        1.42768900000000       -1.01141000000000
O           -0.37805100000000        0.56237000000000        2.81853100000000
H           -1.27994500000000        0.22829700000000       -1.50380900000000
H           -1.25406300000000       -0.84893600000000        0.72816900000000
O            1.60716100000000        3.08573800000000        3.95437800000000
H            2.24119500000000        2.40690100000000        4.29758600000000
H            2.16555200000000        3.69130300000000        3.40473800000000
O            2.75192500000000        3.40214300000000       -0.22664600000000
H            2.90415100000000        2.42613700000000       -0.29629300000000
H            3.45975500000000        3.80448600000000       -0.79030400000000
O            1.06255700000000        4.13813000000000       -2.03386300000000
H            1.70862000000000        3.40332700000000       -2.18643500000000
H            1.27157700000000        4.80243600000000       -2.73786700000000
O            0.11685100000000        3.28904700000000       -4.03530600000000
H            0.78307000000000        3.22876600000000       -4.76546300000000
H           -0.75795600000000        3.31081000000000       -4.49882700000000
O           -1.66494500000000        2.92423500000000        4.19681000000000
H           -0.69010800000000        2.83728600000000        4.34762200000000
H           -1.74077300000000        3.44869600000000        3.36026700000000
O            0.53924500000000        4.62805100000000        1.38496200000000
H            1.13350300000000        3.83695600000000        1.34449200000000
H            1.10105100000000        5.37711900000000        1.06265200000000
O           -1.93274000000000        3.38328200000000       -1.88870000000000
H           -2.22232400000000        2.51772500000000       -1.50456000000000
H           -0.95854800000000        3.27776400000000       -2.03162700000000
34
 energy: -56.620463102140 gnorm: 0.090500943339 xtb: 6.7.1 (edcfbbe)
H            1.49254801587689       -0.30406004184335       -0.55104272968520
C            0.42616314830039       -0.54797841730029       -0.62293532891384
H            0.14427454782851        0.50995223378297       -2.37226959846336
H            0.31433847388445       -1.52046333091449       -1.11755994491712
N           -0.26080258217069        0.47786954442453       -1.42347715232333
H            0.30033105834592       -1.50075851516545        1.30548996132919
C           -0.15710465937694       -0.64940000405529        0.78623827008920
O            0.73798475871000        1.56080604648296        1.18767621973488
C            0.07337853761219        0.56443493872137        1.67655522126572
H           -0.15552187667676        1.41195254916197       -0.98473117777428
O           -0.36686089191088        0.55433266728881        2.83194322102685
H           -1.26417837383852        0.24786806897024       -1.49942819573359
H           -1.23711187995608       -0.84195735461195        0.74452342108885
O            1.62283017695914        3.10027241009937        3.99648901548371
H            2.24107885330420        2.40915426198939        4.28766032905251
H            2.14547790153903        3.67604238715397        3.41059610037001
O            2.81031823218861        3.39653736721376       -0.19125714481046
H            2.91206321373718        2.43424171712037       -0.27352291347857
H            3.48378196186367        3.78616939177774       -0.77500579103311
O            1.07422162798556        4.17231496458463       -2.00740225373748
H            1.68898753672705        3.43715652176485       -2.17246370888417
H            1.25578897673063        4.81116218453001       -2.71516937994198
O            0.09529209419323        3.21157704294231       -4.08919172010055
H            0.75272014175599        3.22231454877233       -4.80566685709484
H           -0.76827215859322        3.32036805695376       -4.52389395610989
O           -1.66208350957548        2.96020676887231        4.21718122733976
H           -0.70375284871292        2.81182393536317        4.32262377780307
H           -1.73372171515135        3.42749053658988        3.36699003630261
O            0.54777706052305        4.65286075899624        1.42763978353064
H            1.07221650893454        3.83194528418290        1.31332349496589
H            1.10275515034083        5.35619617970679        1.04576334807463
O           -1.93813795626756        3.37353833034403       -1.92014297761671
H           -2.20233890051325        2.54067902927258       -1.49364005352226
H           -0.96562162459748        3.32568693682753       -2.02427554331730
34
 energy: -56.631072442356 gnorm: 0.028119928232 xtb: 6.7.1 (edcfbbe)
H            1.48167235267896       -0.30389711702697       -0.54667681960326
C            0.42967397837122       -0.56235789618057       -0.63295642201879
H            0.13917335618816        0.55090260944416       -2.36586886545099
H            0.32011895144527       -1.51931495475426       -1.13492205197074
N           -0.25267522206557        0.48739935593308       -1.42158367145453
H            0.29159488257708       -1.50727133193869        1.29424165787122
C           -0.15694924843454       -0.66771540992904        0.76497876444988
O            0.72126232209079        1.51298235284473        1.13089079859670
C            0.09458180479875        0.57620262708347        1.65234436130058
H           -0.12998213294271        1.39433846825920       -0.93790643434827
O           -0.33728780991083        0.53067099308632        2.82118525982717
H           -1.25106318501234        0.27538773721414       -1.49056018683679
H           -1.23254372404217       -0.84655140516353        0.75058522766796
O            1.63313425080306        3.09969651615418        4.02879465163447
H            2.24914049734732        2.41464553370593        4.29245880474922
H            2.11277679134279        3.67256067171761        3.42223452558973
O            2.86295784133489        3.39081083173377       -0.16373642675153
H            2.93174549809801        2.43759275789799       -0.22041464150364
H            3.53017986609949        3.76710966821777       -0.74019842500548
O            1.04489562486859        4.19399904404427       -1.99988083630935
H            1.66250363861779        3.47614621924780       -2.15037126594634
H            1.22118202416928        4.83630436148641       -2.68597402412499
O            0.08826029678201        3.15212820440988       -4.14510847811882
H            0.72356835988273        3.19767838147752       -4.86091763189189
H           -0.77886032936076        3.31159283102311       -4.52888498613877
O           -1.65674112331541        2.96952298299703        4.21620348188879
H           -0.71440386890841        2.79816365369846        4.31124897915785
H           -1.72786882842047        3.42971020983893        3.37859646539527
O            0.54341505621811        4.65325481727889        1.42892495051308
H            1.02440699462925        3.82341635910902        1.30447434140235
H            1.09534517381258        5.33245829732622        1.03491936825292
O           -1.93755152781797        3.37378798737974       -1.96303844746146
H           -2.18232493805592        2.58193894024966       -1.47095242444763
H           -0.96451862386922        3.38704270213380       -2.01451259891516
34
 energy: -56.635921642481 gnorm: 0.072265298585 xtb: 6.7.1 (edcfbbe)
H            1.47850138047392       -0.31870056750392       -0.55112624269220
C            0.42754823715817       -0.57930812624795       -0.64533281814277
H            0.13972311247419        0.59676343043583       -2.35648026380069
H            0.31767485389177       -1.52421646586984       -1.17025827974439
N           -0.24554814939567        0.50030100421015       -1.41118741361451
H            0.29020958246683       -1.53244428915537        1.28212081348268
C           -0.15848336920327       -0.69515533082245        0.75137612779544
O            0.70505034497133        1.51059168157501        1.05153332011015
C            0.12767166879594        0.57376914532801        1.62549486135599
H           -0.10115054353542        1.38345944475594       -0.88473869281016
O           -0.28798033252125        0.52046644527474        2.80091342878765
H           -1.24765829228648        0.30780487246147       -1.47921369684270
H           -1.23634426074507       -0.85666190186937        0.75039285794839
O            1.64189899425533        3.11999436092439        4.10410574865061
H            2.26485015369848        2.40012942103032        4.28194769887680
H            2.06646876488442        3.66474026434733        3.41643912994623
O            2.92449089055000        3.39998674301132       -0.12374352314206
H            2.93562570979054        2.43824642356337       -0.16184223822367
H            3.59832337161177        3.73707168486417       -0.71851461504893
O            1.00052542730427        4.21799858860817       -1.98511107327860
H            1.63885967737658        3.51471313795097       -2.11768128745716
H            1.17406838976673        4.87152000459496       -2.66230371780427
O            0.08430714673058        3.03083354700298       -4.18570189510540
H            0.69282323532197        3.19005264557004       -4.93079170430559
H           -0.79769257559228        3.32048691903368       -4.51944296683103
O           -1.65694933036218        3.02227037842961        4.25209489006978
H           -0.71797543009719        2.74043808201066        4.28851380861963
H           -1.72720616790318        3.41318170204862        3.37056294882872
O            0.55021124579774        4.67245171986613        1.50469664033945
H            0.94386456771114        3.79149590068729        1.26092925035894
H            1.09246302834612        5.30183239130281        0.98484360430680
O           -1.93984875719456        3.37765508332849       -2.04562625470408
H           -2.14666707862810        2.64074467163029       -1.42103959891093
H           -0.95283649591361        3.46782398762228       -1.99821184702062
34
 energy: -56.641349463319 gnorm: 0.039027984462 xtb: 6.7.1 (edcfbbe)
H            1.47755255155485       -0.34273688464707       -0.55364069556338
C            0.42497755284138       -0.60080659117550       -0.65620205754242
H            0.14569278251200        0.64033802276691       -2.34356604841354
H            0.31474345628703       -1.53515493973233       -1.20446477930346
N           -0.23524287678687        0.50952677305650       -1.39772348240842
H            0.28849035163914       -1.55188132090288        1.27923408666709
C           -0.16047291943739       -0.71873031009063        0.74205796481216
O            0.68097257755903        1.52171204528558        0.96372428188665
C            0.14636816525698        0.57823804798655        1.59723923626145
H           -0.06620188990075        1.36741759720244       -0.82798566781127
O           -0.23300351514900        0.52377118691229        2.78402881289426
H           -1.24282941423852        0.33929356632549       -1.46778095868469
H           -1.24001920114805       -0.86551459805956        0.74994234461545
O            1.64220602206152        3.12374950517360        4.14684052234511
H            2.27752432678683        2.39998929193926        4.28447260096689
H            2.02159515404854        3.67351411259981        3.43175974379798
O            2.98200675758418        3.41025435463980       -0.08822746219360
H            2.94259853040273        2.44008005054034       -0.09422862494924
H            3.67111123590990        3.70063679164183       -0.69912899862037
O            0.94160026186992        4.22730448046700       -1.95592601400067
H            1.60201726470023        3.53825723354296       -2.08132177003968
H            1.10844904872017        4.89656313228438       -2.62524136532670
O            0.08557920653635        3.00972241413148       -4.25196892488255
H            0.67451525494525        3.15652589698148       -5.00300857167952
H           -0.80365479052034        3.25336531659324       -4.53752487050001
O           -1.64688044177292        3.03378446978362        4.24520612389634
H           -0.71762622995667        2.74722786047344        4.28952251356087
H           -1.72219449915389        3.43347858154748        3.36975581629335
O            0.52620230182706        4.64330079371306        1.44571373524233
H            0.91774049821602        3.77673316730287        1.28364271587750
H            1.08404449225264        5.27676489969165        0.98551951977945
O           -1.91631925583173        3.41737428120654       -2.00814943682105
H           -2.14016205130846        2.68292034685608       -1.43719816894458
H           -0.95256170830731        3.51331742396226       -2.00775512121395
34
 energy: -56.643354156669 gnorm: 0.073170294359 xtb: 6.7.1 (edcfbbe)
H            1.48185747519052       -0.37862565513163       -0.57911145742141
C            0.42385590967494       -0.61926544557997       -0.68069238985037
H            0.14905324252847        0.68246649702777       -2.33538780914057
H            0.30085543439242       -1.54390884465621       -1.24579750475361
N           -0.22574191212667        0.51912078839745       -1.39050555555092
H            0.29152653558559       -1.55917489058509        1.26663153425028
C           -0.15584344781171       -0.72935417115661        0.72098485638058
O            0.67719649194705        1.52423349136329        0.92463335438961
C            0.13357360889981        0.58943371785167        1.56072151497648
H           -0.02685843647518        1.34894685250613       -0.77575076077927
O           -0.17094911626947        0.51549791613653        2.76778727384595
H           -1.23899653776720        0.37259308971198       -1.45840328627676
H           -1.23458747174043       -0.87156202875543        0.73023281643426
O            1.62644649644405        3.07623353425253        4.09191287245151
H            2.27277032848802        2.42717464642082        4.32660193709853
H            2.00658888323297        3.69883308974222        3.48820914920267
O            3.00293581387522        3.41504367763097       -0.08655717870212
H            2.96254801296722        2.44974470302628       -0.03303055507157
H            3.74122971544733        3.66827933765758       -0.65912130805219
O            0.87281233266940        4.24013082528666       -1.92677236474123
H            1.56991791193874        3.57446754065303       -2.02292721658245
H            1.05280987110160        4.92408884819340       -2.58248528243191
O            0.08823278104878        2.99844341609940       -4.29568773178982
H            0.64939942518718        3.10358489153421       -5.05255456661720
H           -0.80813390054759        3.19462662396484       -4.52797450376137
O           -1.63673643856382        2.97276826302550        4.19984978386290
H           -0.72394040156309        2.77968964806210        4.31633796542456
H           -1.71910759015058        3.45830607796772        3.38131090605906
O            0.51810707071088        4.62593428563239        1.45504242736698
H            0.86553823072072        3.74552359752929        1.27056515096654
H            1.07150324998112        5.23902433421542        0.96143146284901
O           -1.90538163661755        3.42423132600817       -2.08997386389759
H           -2.10241943016072        2.75793617837482       -1.38491697460275
H           -0.93124350223840        3.59587083759318       -1.97698569553903
34
 energy: -56.645484725526 gnorm: 0.081693198783 xtb: 6.7.1 (edcfbbe)
H            1.49124978808297       -0.41304367989298       -0.60591573946114
C            0.42635171957660       -0.62737465185411       -0.69857667888756
H            0.15710700108167        0.70452168549151       -2.32753484627685
H            0.28200416959169       -1.54713118051865       -1.26569134287122
N           -0.21441959782356        0.52503008850487       -1.38662288495113
H            0.29397638234700       -1.55680651779571        1.25709201697348
C           -0.14591680217324       -0.72579343437828        0.70591129467453
O            0.65749117594173        1.53794298569356        0.92378390991953
C            0.13240346874525        0.59158000781985        1.54354827634759
H            0.00721029181008        1.33444563299996       -0.74443021388649
O           -0.14512753026425        0.51870429600935        2.74928648617724
H           -1.23043343829992        0.39558566632601       -1.45108554740043
H           -1.22486655556334       -0.86575930488351        0.71226979727357
O            1.61642093418176        3.05589367146064        4.09622901691437
H            2.29355916363772        2.44214544694465        4.33492981234156
H            1.96179698265703        3.71548008830285        3.50985968973234
O            2.99703221197466        3.41506970512228       -0.10571051160034
H            2.99099914473121        2.46242937444167        0.01148908180996
H            3.79028016248056        3.64721243128242       -0.61551773180748
O            0.80891810845468        4.22872053022876       -1.91388901421004
H            1.54273149997687        3.59093492742328       -1.97680121936361
H            1.00820285332212        4.92546914103006       -2.55176228740208
O            0.11584917959871        2.89596015001130       -4.32480257596353
H            0.62513202544203        3.10536539939991       -5.13222521886803
H           -0.80817262785438        3.19595722407397       -4.48727710156724
O           -1.63220660729387        2.99194362495143        4.18745843555382
H           -0.72155368595940        2.77549453759017        4.30844287016704
H           -1.70695763875615        3.49267588068805        3.37671726923215
O            0.52938347569238        4.62166529651485        1.50659028532666
H            0.80871641004836        3.70333389585513        1.23122464153972
H            1.07308358714116        5.19648171870734        0.91861124061530
O           -1.87183529271146        3.47185035333735       -2.02178206671946
H           -2.10354858814686        2.79184363540782       -1.41835437243398
H           -0.92604237166993        3.62250837370436       -1.98784777093103
34
 energy: -56.647700074889 gnorm: 0.084485490634 xtb: 6.7.1 (edcfbbe)
H            1.49974924347057       -0.43964428886439       -0.63921146964082
C            0.42763565581723       -0.62363898982195       -0.71421969269504
H            0.16517963273948        0.71379487728572       -2.32357037910945
H            0.25659534134169       -1.54176682872948       -1.27366172653281
N           -0.20546488158632        0.53218069002671       -1.38848588483234
H            0.29926749791828       -1.55928799687650        1.23911632822437
C           -0.13122533011616       -0.72039962361959        0.69477826250005
O            0.60684846508018        1.56181620929292        0.92041444346888
C            0.17651556643349        0.55985911492319        1.55031353534917
H            0.02511665108816        1.33069259015492       -0.73958814529691
O           -0.14032636759497        0.52659377299090        2.72955979431028
H           -1.21996747229855        0.40960932371186       -1.44918547580080
H           -1.21385493937191       -0.85656761182583        0.70228145173429
O            1.60878897279198        3.06340982072863        4.17608870262099
H            2.35116897333284        2.43767521038833        4.30421356896358
H            1.87909443848237        3.72224177815505        3.48997523978041
O            2.97970246485080        3.41655253748516       -0.14223853309770
H            3.00886391351991        2.47401525101975        0.03582953875756
H            3.82363362942083        3.62943454204550       -0.58605569185320
O            0.78529863447928        4.23881189213766       -1.89704578627767
H            1.51778889376092        3.60711882686625       -1.94090723444595
H            0.99476390121621        4.92469001399421       -2.53679612102404
O            0.12666223853871        2.86043724249898       -4.32419903535386
H            0.61302507248343        3.08781143181266       -5.15192846856999
H           -0.80358860657660        3.18824019665664       -4.47063717597657
O           -1.64492983198887        3.06356658410295        4.22783682237474
H           -0.71366389135244        2.69848349682169        4.27569315349703
H           -1.69263355379330        3.49624955222533        3.36443597667712
O            0.49940453448802        4.57764802136306        1.42751073494821
H            0.82602941903997        3.70009152457402        1.27433633609628
H            1.05623393559407        5.18284947819379        0.95381559827235
O           -1.87530531414746        3.46679697353877       -2.07634787474982
H           -2.08806959342219        2.82856109612538       -1.38027334840861
H           -0.91951829364014        3.66241029061813       -1.97423044391318
34
 energy: -56.649344371231 gnorm: 0.089212589097 xtb: 6.7.1 (edcfbbe)
H            1.50090907670264       -0.45383307355147       -0.65787138866270
C            0.42544166293653       -0.62547360216130       -0.72328198270883
H            0.17620336984995        0.73229038407757       -2.32413365927435
H            0.24018934103185       -1.54166229261954       -1.28340225228576
N           -0.19537153072448        0.54108306325461       -1.39061784334030
H            0.30593277505071       -1.55875327263880        1.23216801019971
C           -0.13128126680074       -0.72349593392299        0.68823066392442
O            0.58821468359348        1.56904110543458        0.88710928339513
C            0.17090770871840        0.56222607692747        1.53531965223859
H            0.03886710016356        1.33020880904835       -0.72944808610612
O           -0.09384151187567        0.51327808886510        2.73843721829068
H           -1.20965508873853        0.42512867322191       -1.45210784328472
H           -1.21388075481156       -0.86308253830844        0.69808535099949
O            1.59556059220908        3.08190207587139        4.19767102827791
H            2.33745189038746        2.44480982454404        4.30744951364016
H            1.86923064598118        3.71653491818647        3.49199969966538
O            2.98932911127333        3.41528566151416       -0.15684162983415
H            3.01779883133965        2.47070377338852        0.05772328638554
H            3.84228351549585        3.61942096168302       -0.58062783257371
O            0.76611453871853        4.24926874018873       -1.86774419013922
H            1.48808796469178        3.61296813462148       -1.90106669728136
H            0.97387885120281        4.92613481333304       -2.51560667000953
O            0.11067811984195        2.97350737727674       -4.34061841932364
H            0.62519860045171        3.03101255066605       -5.11417095030488
H           -0.78425974487090        3.11119243759188       -4.52253406298273
O           -1.63728427040671        3.03319956501327        4.21322713953099
H           -0.70683019271100        2.73272088404024        4.28811218136750
H           -1.68702955525216        3.49988042747307        3.36837249233410
O            0.51644023703670        4.58591941651502        1.49379596912830
H            0.77065910572851        3.65953384588858        1.24526345152980
H            1.07143238082182        5.14498528574520        0.90961244320472
O           -1.87684109194068        3.46755295492443       -2.09582656683266
H           -2.08476316151985        2.84997030460001       -1.36835797895882
H           -0.92095293357595        3.68687755930819       -1.97070233021277
34
 energy: -56.650639741585 gnorm: 0.084887933219 xtb: 6.7.1 (edcfbbe)
H            1.49989526449958       -0.46620804497250       -0.67587530618188
C            0.42254429049999       -0.63032992938871       -0.73512393728665
H            0.18824258823463        0.75886434153678       -2.32742264351839
H            0.22519627880517       -1.54376617707700       -1.29868851826948
N           -0.18496611110827        0.55150385740493       -1.39454059589665
H            0.31270264273274       -1.54991792930475        1.22959430063065
C           -0.13417862191592       -0.72257838905641        0.67916296914457
O            0.60902204298544        1.55978335596864        0.87336103532688
C            0.11815689036485        0.59527118585152        1.50242686552961
H            0.05516692376184        1.32804058086225       -0.71014576873753
O           -0.02983243630366        0.48878562301972        2.75674581370298
H           -1.20073172998221        0.44559612476071       -1.45756074662531
H           -1.21302590502914       -0.87025411048909        0.68825495192358
O            1.57533832109515        3.07793831322485        4.13829231569742
H            2.27076448836176        2.47482027524073        4.35407477329164
H            1.91056424873573        3.70689236278729        3.53197522652035
O            3.01238931980577        3.40849563919145       -0.15906953282077
H            3.02736773916625        2.46668666859423        0.05941662487648
H            3.85291225854310        3.62110759049301       -0.57486021865943
O            0.74692457342823        4.25824118803800       -1.84840427911916
H            1.47820234363380        3.62484330409248       -1.84792921731256
H            0.95523369390598        4.92585969328604       -2.50787976990144
O            0.14708149587487        2.90939146481592       -4.35289314527355
H            0.59838677048339        3.03610951670037       -5.19068592496976
H           -0.78979650021398        3.12232915740711       -4.45042992064465
O           -1.61958026599341        2.98092957587099        4.17960609992810
H           -0.70955987395361        2.79361025882294        4.30637904960517
H           -1.68087192004919        3.50811070164770        3.37674608402619
O            0.50192872276726        4.54455523474344        1.45621680398258
H            0.77342203106828        3.64132619761625        1.26363800873941
H            1.05529588602824        5.11951535276762        0.92316176771033
O           -1.87927131635295        3.47031959012173       -2.10018019954860
H           -2.08531854710976        2.87352974038819       -1.35955480556743
H           -0.93078658677055        3.71093468503435       -1.97019116030688
34
 energy: -56.655973463642 gnorm: 0.047135195170 xtb: 6.7.1 (edcfbbe)
H            1.50501852111243       -0.48686524636758       -0.69583820357026
C            0.42374166980652       -0.63033558276856       -0.74664041273820
H            0.19961027446106        0.77040299234425       -2.32596468807286
H            0.20665190708683       -1.54050027755295       -1.30899158445014
N           -0.17578534525304        0.55886989235860       -1.39709762130318
H            0.31299225966563       -1.56136718820811        1.21584630529617
C           -0.11832400277845       -0.72184177905739        0.67342225758703
O            0.57790414185847        1.58134850466766        0.87521012676779
C            0.18343969582201        0.56266388031466        1.51815446805695
H            0.07133507984329        1.32785358374320       -0.70449746752073
O           -0.06181254751468        0.50868904711823        2.72056671524462
H           -1.19231608237297        0.46205191291853       -1.46181670433970
H           -1.20184383343877       -0.85513077498991        0.68408763335014
O            1.56442353017528        3.07225268804434        4.16540748265259
H            2.29369928252132        2.48859726438476        4.35920289757352
H            1.85776012608247        3.71840121957554        3.52519585720876
O            3.00816331862543        3.40360270651366       -0.18388978084812
H            3.03701673733066        2.47117277432688        0.06272615499230
H            3.88281761162564        3.60951230658076       -0.55517862917654
O            0.72508666151519        4.27038615640672       -1.82745791268431
H            1.46453054080004        3.64144898096358       -1.79615177383270
H            0.94575084875181        4.92551904675493       -2.49481620728029
O            0.16554654706505        2.88150342195348       -4.35390749799140
H            0.58924618987799        3.03097995534117       -5.21886975895221
H           -0.78423384558223        3.11589716251624       -4.42753953689302
O           -1.61827315890567        2.98507435336849        4.16942369760758
H           -0.70113810195852        2.79204282906132        4.30635231171645
H           -1.66786703345262        3.52624636138606        3.37530978267512
O            0.50184219872075        4.52829055898725        1.47395824834225
H            0.74494739540543        3.61151476118202        1.25865592517365
H            1.05305279523394        5.08260757961655        0.90103276931369
O           -1.88219894545251        3.47574932920980       -2.09695610126660
H           -2.09104261019911        2.89046424559548       -1.35810981704085
H           -0.94092282647953        3.72323433371120       -1.97321193560189
34