34
 energy: -56.710109611940 gnorm: 0.000185070240 xtb: 6.7.1 (edcfbbe)
H            0.61660316666215       -0.91197466014716       -1.63260495089291
C           -0.15876054557594       -0.27637032666702       -1.20005997543145
H            0.43012545733632        1.19913238886505       -2.54998385433890
H           -1.12588918723211       -0.58405163268475       -1.59798911577416
N            0.10548642788088        1.12529543895631       -1.56543502204819
H           -0.37974777346811       -1.46827265077591        0.59745446474369
C           -0.14616584441640       -0.44182265448286        0.31963928971888
O            1.64758025196420        1.08516999472420        0.70836093334175
C            1.23762539210432       -0.09575623129936        0.91340483678171
H            0.83884128251840        1.47140643595388       -0.92234251365400
O            1.86125942905557       -0.95941032181533        1.54279651326206
H           -0.73596904070487        1.73888423313098       -1.45332970766322
H           -0.87821635746279        0.22531399623214        0.77735882637354
O            1.38678478333501        4.56155995225506        3.82808071461081
H            1.99696240859972        3.95705451987740        4.25868466093222
H            1.01180430011113        4.06879545163544        3.06909986401299
O            2.65896019381776        3.20272320691887       -0.78763802309099
H            2.51414466156228        2.45171976424602       -0.19034716016996
H            3.50753210663156        3.58158831417341       -0.54440574466052
O            0.29505474662408        4.57363186927237       -0.58351811777372
H            1.15102725941852        4.14069761247583       -0.78497772076070
H            0.45035163881186        5.52150661759414       -0.60314790651944
O            0.85343371386964        1.13981173214206       -4.23385985198897
H            1.70136480956453        1.47921993217690       -4.53331344617789
H            0.18007405275635        1.45385350940127       -4.84532178470992
O           -1.53589359003125        3.91750844931250        4.00868557728160
H           -0.80996181212536        4.46573608017599        4.33316851952537
H           -1.16911111376890        3.47648537996664        3.22785261767922
O            0.16727128782235        3.15011403477665        1.77209530686226
H            0.70641934509104        2.38873441656699        1.49020261747530
H            0.12412269950068        3.72622517189670        0.98011321166426
O           -1.84147246368549        3.02254080021310       -1.42415842665487
H           -2.59297910557982        3.12778499708855       -0.83633217360048
H           -1.18984358099946        3.70550117786746       -1.18061545834638
