37
 energy: -59.859495357069 gnorm: 0.000425046096 xtb: 6.7.1 (edcfbbe)
N           -0.29739552128530        0.76933273210806        0.90317907156014
C            0.86841792839297        0.77087552097670       -0.00861673313078
C            0.43937272345891        0.97976212209990       -1.45884199572941
C           -0.81904627291407        0.20235922580256       -1.87655031669117
C           -0.83757787808221       -1.26260931781593       -1.39654033726185
O           -0.52782480812526       -2.16513235434983       -2.19816105483160
O           -1.18943101382783       -1.45925422820357       -0.20258309716758
H            0.00743370767382        0.69310229482411        1.87449817483422
H           -0.85711000618586        1.61443625745916        0.77772402263657
H            1.56234017279866        1.56384405942766        0.27203880209990
H            1.37326501698955       -0.18935926250473        0.09548239610173
H            1.26831795427455        0.67617500046650       -2.09633081282407
H            0.25323315349816        2.03901009911921       -1.64116391050345
H           -1.71858701801746        0.67793229605639       -1.47951597297392
H           -0.88887754166367        0.19641406219237       -2.96476423025384
H           -0.86118606897987       -0.09613018511571        0.63653683828820
O            3.24398618683948        2.18453347748810       -5.03699727940947
H            2.51359414050199        2.23499951278700       -5.66116731238341
H            3.37935593781651        3.06728096535288       -4.67664528851702
O            3.10748234833463       -4.02526304560199        0.48365428249802
H            2.30320999836355       -4.43949417154343        0.81241243108378
H            3.21215707725014       -4.30078036557684       -0.43215761361229
O            0.92341796119615       -1.28861005744807       -4.40451306165493
H            1.72192022970098       -0.92507593765017       -3.98158335061773
H            0.40584729235751       -1.68683005273578       -3.67837498690840
O            4.24149382352892        0.65011438776225       -0.81520348444283
H            3.86242397727324        0.42869608516489       -1.68335995008476
H            3.94349177767528       -0.05553403766595       -0.21299936194977
O            3.32559003601349       -1.28390067001865        1.01029835534186
H            3.28927042421638       -2.23032398633913        0.78854430897901
H            3.76302782316104       -1.23116404799776        1.86606468275671
O            3.27302469117448        2.92750582200801        0.39331172299552
H            3.92602180015488        3.22178712033975        1.03354969863116
H            3.69250501171891        2.19148604875838       -0.09750396358641
O            3.30960789452327       -0.04191070327341       -3.39954438186491
H            4.02153359790321       -0.58757370907221       -3.75022626772729
H            3.29293144231253        0.75671304265883       -3.96373102379006
