34
 energy: -56.582576348518 gnorm: 0.193155459786 xtb: 6.7.1 (edcfbbe)
C            0.00071700000000       -0.52255800000000        0.67804400000000
C            0.00015500000000        0.09392700000000        2.05036800000000
O           -0.00019500000000       -0.63013100000000        3.03226200000000
O           -0.00079700000000        1.43155900000000        2.21643300000000
C            0.00098900000000        0.52531100000000       -0.44326000000000
N           -0.00030100000000       -0.11659100000000       -1.75665200000000
H            0.90259300000000       -1.16292800000000        0.57888800000000
H           -0.90264000000000       -1.16023800000000        0.57901700000000
H           -0.90200200000000        1.16741300000000       -0.35103700000000
H            0.90366600000000        1.16894900000000       -0.35172000000000
H           -0.85706900000000       -0.70553200000000       -1.86752300000000
H            0.85322800000000       -0.71006900000000       -1.86779500000000
H            0.00165600000000        0.62088700000000       -2.49702600000000
O            0.87463900000000        2.62189000000000        4.53301100000000
H            1.81486200000000        2.35496300000000        4.37382200000000
H            0.92866200000000        3.30792100000000        5.24509000000000
O           -0.48817600000000        2.98721600000000       -6.07011400000000
H            0.15145900000000        2.61774400000000       -6.72963500000000
H           -1.28514700000000        2.40411300000000       -6.14387700000000
O           -0.36404900000000        3.85227200000000        0.42282000000000
H           -0.72632500000000        3.28748400000000        1.15109300000000
H           -1.15871600000000        4.11381300000000       -0.10700300000000
O            2.23353800000000        3.50194800000000       -1.63338400000000
H            2.32577500000000        2.61158900000000       -1.20987000000000
H            1.73849500000000        4.04309100000000       -0.96801900000000
O           -1.37756000000000        3.02530300000000       -2.38664400000000
H           -0.79616400000000        3.82517100000000       -2.33373000000000
H           -2.25967900000000        3.33792000000000       -2.06299400000000
O           -1.85165600000000        2.73784400000000        4.13924100000000
H           -1.26254100000000        2.98069800000000        4.89725000000000
H           -1.34542700000000        3.01250600000000        3.33369400000000
O            0.34269600000000        3.02154200000000       -4.03369000000000
H            1.16093100000000        2.78344900000000       -3.52929600000000
H           -0.19425100000000        2.18954200000000       -4.04246700000000
34
 energy: -56.617419644619 gnorm: 0.097207240252 xtb: 6.7.1 (edcfbbe)
C           -0.00050075057545       -0.51135295423625        0.66482015012601
C           -0.00672247458092        0.10480551166070        2.05553291625202
O            0.00376426635002       -0.63911822726521        3.04564702456139
O           -0.02122213485511        1.39336189069328        2.15127355535675
C           -0.00041079632925        0.53129311307551       -0.44648943210004
N            0.00023144830919       -0.11194402654825       -1.76914765630008
H            0.88843089278718       -1.15387175647406        0.59518762440363
H           -0.88808003323350       -1.15448176288109        0.59350029390011
H           -0.88361502033383        1.16999019939789       -0.34768874810684
H            0.88172935588667        1.17154884820514       -0.34026682389033
H           -0.84382098857877       -0.69691678683032       -1.87798748811545
H            0.84061873751777       -0.70220391724764       -1.88030286469412
H           -0.00370114338116        0.62067638990540       -2.49736298723483
O            0.89369139642135        2.64315202715927        4.56034274375499
H            1.80357390927329        2.35922497149774        4.37617153852010
H            0.96692826523347        3.31832532377643        5.25610951081079
O           -0.54087771983146        3.00571548592720       -6.18102400307318
H            0.12976073188300        2.60160635517957       -6.75956998771199
H           -1.29794614774131        2.39337956603139       -6.18484366583530
O           -0.36622153282474        3.86623479053839        0.41936051083370
H           -0.67408438342051        3.26835008539572        1.12618039530425
H           -1.16396613007930        4.10880462392986       -0.08223487136375
O            2.21255280448856        3.48689117119775       -1.62881850188408
H            2.34185427238226        2.62863414983487       -1.19061931236533
H            1.74171381687275        4.02842003324042       -0.97252908937385
O           -1.41095571936982        3.01084371130938       -2.29822068554724
H           -0.82642917706559        3.79420871876075       -2.34851946180766
H           -2.28653307131323        3.35765755509429       -2.06181458110044
O           -1.90005948794221        2.81345595555130        4.14012545986016
H           -1.27423956839123        2.94076529821783        4.88153844122615
H           -1.32825049938991        2.95318337012277        3.35266628522344
O            0.42254505114638        3.01145746578069       -4.01214724586693
H            1.20068880799998        2.78484306412273       -3.47826578647938
H           -0.14908097731453        2.22107775587679       -4.01530625728267
34
 energy: -56.631374176959 gnorm: 0.030046503289 xtb: 6.7.1 (edcfbbe)
C           -0.00468194617700       -0.50788054565134        0.65113596532754
C           -0.02233113537140        0.13201870488456        2.05922714268883
O            0.00974724318591       -0.64772826943002        3.03714474137009
O           -0.06607917735515        1.36849586343266        2.11543321925056
C           -0.00423109395039        0.53702020292718       -0.44503683374935
N           -0.00021171426160       -0.10043307690016       -1.78040622898631
H            0.88046211852711       -1.14536184981650        0.60798685335457
H           -0.88184024238175       -1.15423509345766        0.60087245886422
H           -0.87815021891208        1.17222547297155       -0.34866411226996
H            0.86672369313643        1.17400187591042       -0.33102776220444
H           -0.83490189319485       -0.68361279391013       -1.88763833438206
H            0.83112680734766       -0.68796634514537       -1.89321899237618
H           -0.01207276171368        0.63439432297002       -2.49424579172571
O            0.91008692936068        2.67540310239646        4.60195000384017
H            1.78874660896724        2.36151503552219        4.37583934450875
H            1.02074673678299        3.34753564703192        5.27978299326666
O           -0.58498624312555        2.99811280438334       -6.24865868669748
H            0.10374149753404        2.60094430170226       -6.78597059721925
H           -1.32323860892350        2.38725504035089       -6.23150342718106
O           -0.35165851197377        3.87700341367128        0.41259034991243
H           -0.59189502174136        3.24012799556851        1.10187531059079
H           -1.16496963909508        4.10188256176255       -0.05013696323019
O            2.19100297122087        3.46073849688502       -1.62040173148959
H            2.37185332006827        2.63900614939950       -1.15090330895452
H            1.72896939544216        4.01394569655834       -0.98528903382283
O           -1.44918256482099        2.98865495990991       -2.24835553188794
H           -0.84356984565107        3.73722993037449       -2.35488779688283
H           -2.31304436544797        3.36335687726448       -2.06764464416413
O           -1.90990902956486        2.81992740270258        4.13319181345723
H           -1.29952956950411        2.92206060518208        4.86666000781398
H           -1.32959938179687        2.90881090301783        3.36482472079798
O            0.49408326627285        3.01030755944811       -4.01355978797646
H            1.23699899464882        2.81679582751224       -3.43147772417479
H           -0.10684061753168        2.25646522057131       -3.99419063566884
34
 energy: -56.635310486415 gnorm: 0.097221945245 xtb: 6.7.1 (edcfbbe)
C           -0.00770348427337       -0.51537097114868        0.64376983965827
C           -0.03584132239332        0.15890693061483        2.05822113915339
O            0.01765134373247       -0.63484628191351        3.02722932338485
O           -0.13511610777286        1.38961128115653        2.08872479934486
C           -0.00962261503588        0.53399445308129       -0.44520233389669
N           -0.00278710588070       -0.08723295810351       -1.79313414653691
H            0.88336450765768       -1.14262618164750        0.61710146578128
H           -0.88257875138575       -1.16304961483562        0.60442407172651
H           -0.88657924457059        1.16768808027452       -0.35124572765792
H            0.86029478069952        1.17333538882269       -0.32845445695773
H           -0.83491863103602       -0.67284781159398       -1.90156836543009
H            0.82899052963583       -0.67170614790987       -1.91178014067340
H           -0.02237619840296        0.65809381611786       -2.49524736038655
O            0.91621726773443        2.71325568258875        4.65333394350764
H            1.76758110769641        2.35390297681966        4.36777660282197
H            1.09663628636318        3.39187987800672        5.31649489921305
O           -0.63735216018810        3.01097125359618       -6.32230454687639
H            0.08855375835843        2.59418244030758       -6.80505062007279
H           -1.35112097507098        2.36721540085683       -6.27235882027817
O           -0.32017676006104        3.89137299426562        0.40377229404617
H           -0.47780237936459        3.19575216308835        1.07611076776642
H           -1.17368606943311        4.08867192065208       -0.00637971803802
O            2.14573052686925        3.41769499233346       -1.62417546152270
H            2.42706726919248        2.64533369233381       -1.08791263861200
H            1.70746302683190        4.00323892248868       -0.99805146084112
O           -1.47240108375573        2.94451788418711       -2.17477727423274
H           -0.85697839341652        3.67925587308972       -2.38447876016812
H           -2.34883770923513        3.37312126661486       -2.10271874162486
O           -1.97883905250401        2.93620130917497        4.12805220224624
H           -1.29992090812771        2.84073865601141        4.86549685278258
H           -1.29815444523736        2.79519025860244        3.36018683256398
O            0.56329257581133        3.01956167469935       -4.03212769946567
H            1.26361960834950        2.86712342253143       -3.36605155014106
H           -0.07230319178650        2.29488535483700       -3.96237821058443
34
 energy: -56.642073679911 gnorm: 0.074330231477 xtb: 6.7.1 (edcfbbe)
C           -0.00960147774824       -0.52271936489757        0.63817824214547
C           -0.04957922992258        0.17700499130697        2.05809877822951
O            0.02688923525906       -0.62070743256845        3.02193987322404
O           -0.19465163536179        1.41679050266066        2.06422294822981
C           -0.01350335487334        0.52955038660609       -0.44752162846940
N           -0.00465790842949       -0.07590506557568       -1.80590190609154
H            0.88666745383158       -1.14150793051132        0.62556950621806
H           -0.88417711580727       -1.16991895385065        0.60666702292381
H           -0.89420660537054        1.16334863594891       -0.35412476592047
H            0.85649079846055        1.17265105262499       -0.32826804267801
H           -0.83605830835980       -0.66436822437199       -1.91585022596042
H            0.82933396872486       -0.65777641478755       -1.93049843573043
H           -0.03063761881670        0.67986458019152       -2.49842551602694
O            0.92518896023016        2.74005229735282        4.69560257686287
H            1.75490813495241        2.34992144427126        4.36611484111575
H            1.15873224606408        3.42750500344640        5.34338523607612
O           -0.69125610835211        3.03155255974543       -6.39866493217612
H            0.07313124279150        2.58841466929296       -6.82302463527442
H           -1.37824818713455        2.34670368707268       -6.30823178880364
O           -0.28814816130260        3.89061535591543        0.39611394161731
H           -0.39369534581738        3.16913517422000        1.05763460330533
H           -1.16993506466140        4.07827778574889        0.02969110543606
O            2.13252887490594        3.38745418559858       -1.61260314443913
H            2.45351592671041        2.64495444385531       -1.04891423524658
H            1.68493805335699        3.99032858733432       -1.00517567204076
O           -1.50137733147254        2.91796387807707       -2.13985664283029
H           -0.87130957311210        3.62854161752947       -2.39022493984809
H           -2.37380393029824        3.36798376855180       -2.11096694476341
O           -1.92532507167607        2.81148129718929        4.11671578510221
H           -1.34070420246492        2.86709722232041        4.86432176047910
H           -1.34954867779416        2.82221255637644        3.36251282626833
O            0.63232763730856        3.02859696226827       -4.04706898643906
H            1.28971422341434        2.90816119871570       -3.30710719439708
H           -0.04257584723406        2.33475754234284       -3.92904241009832
34
 energy: -56.641953802730 gnorm: 0.093956431542 xtb: 6.7.1 (edcfbbe)
C           -0.01605970803916       -0.51225192942862        0.63938277272253
C           -0.08302882169039        0.18979797132029        2.05952183624695
O            0.02918264347964       -0.59550924277984        3.02412398546856
O           -0.21254536494890        1.43309951040316        2.06385990922201
C           -0.01827491741284        0.53194726975027       -0.45329264768263
N           -0.00706215057945       -0.06829768461704       -1.81299760547898
H            0.88367504862785       -1.12774413876885        0.63972855072670
H           -0.88721096287938       -1.16397136678328        0.60569603480306
H           -0.90245583443652        1.16300322197369       -0.35868035956245
H            0.85156650144933        1.17706364952953       -0.33270468592288
H           -0.83803415946624       -0.65940100596162       -1.92604702306991
H            0.83124668356694       -0.64543610636913       -1.94244049015285
H           -0.03613382072955        0.69327241882792       -2.50050992059918
O            0.93680111268632        2.76518467843004        4.71754480226794
H            1.75537906319265        2.37633473905622        4.39701666884073
H            1.17493813017700        3.45325158183232        5.35404162374589
O           -0.70226323578328        2.99609602054432       -6.40372451976794
H            0.04060927571722        2.61063299689230       -6.86149799467826
H           -1.40093597168736        2.34433739109661       -6.35324010759344
O           -0.24338448051005        3.84383085394020        0.39395117596286
H           -0.37504450311484        3.17431648829359        1.05835998000624
H           -1.11442628366725        4.06134288786455        0.04139702329769
O            2.19767832363104        3.38602521648884       -1.56259808549505
H            2.40187508903477        2.62295664086246       -1.06783868180095
H            1.64656182376809        3.95975420040719       -1.00893071323190
O           -1.54784281660104        2.93088508367331       -2.25369529261080
H           -0.88487842400171        3.58431169929811       -2.32682999640331
H           -2.36451915241245        3.29928929536509       -2.05597893000103
O           -1.93265623862768        2.81193551427141        4.11096148525464
H           -1.35772766330076        2.86694887462367        4.86156599586140
H           -1.35546441323324        2.76402805454698        3.34872531163306
O            0.66686045498051        3.04940824753682       -4.01971167711340
H            1.32781434180326        2.93845341769575       -3.31812482720668
H           -0.00287356899145        2.36312155018505       -3.91173659768912
34
 energy: -56.649780855254 gnorm: 0.045887756299 xtb: 6.7.1 (edcfbbe)
C           -0.02114458387743       -0.49877703998846        0.63714920123058
C           -0.09257416173559        0.20140798680154        2.05430347746638
O            0.01712750418071       -0.57293565502540        3.02127158317423
O           -0.23981941439607        1.43792571273988        2.06383285890798
C           -0.02278617497377        0.53805774359098       -0.46139706631049
N           -0.01022942613003       -0.06101609322245       -1.82051407358218
H            0.87913577805602       -1.11387646245569        0.64450042466049
H           -0.88915314846664       -1.15558452564721        0.60219227106980
H           -0.90872926326717        1.16453875288534       -0.36418614506091
H            0.84603492303746        1.18299889629674       -0.33982645103160
H           -0.83905353380179       -0.65419408567852       -1.93733894517461
H            0.83096323061090       -0.63284508030888       -1.95491603046491
H           -0.04218784354757        0.70261002331557       -2.50532419781951
O            0.94363825363779        2.78565246589436        4.74671272470018
H            1.75092734877993        2.38683593253206        4.41444493955573
H            1.20477786999070        3.47931413518706        5.36818773919672
O           -0.72902835073806        2.98842855542724       -6.41530456036029
H            0.02392107794844        2.62080295743495       -6.86814540282878
H           -1.41849265089677        2.32979209724138       -6.38001273748920
O           -0.20920272568757        3.84264808127292        0.38338846443536
H           -0.29748643223122        3.13798549208628        1.04115249833539
H           -1.10390807917331        4.04968945430896        0.07111267485085
O            2.12901725771723        3.34690270512034       -1.58099166179906
H            2.46032550274676        2.62715164255137       -1.01198412447429
H            1.63414843325068        3.94107317380226       -1.00602895848609
O           -1.55940354447593        2.88519559361090       -2.21909058086021
H           -0.86723369839626        3.53050630003731       -2.35106579447850
H           -2.38919758129413        3.32424411291681       -2.09002893646987
O           -1.95656703055428        2.82808587071673        4.10724460723697
H           -1.36025609141201        2.84577005239384        4.85870278469100
H           -1.34988225493673        2.69363464656516        3.33578453756250
O            0.68692211891331        3.06812559699692       -4.00897248050516
H            1.34220155770722        2.98032748377438       -3.30363449737913
H            0.01856113341632        2.38754147682699       -3.88592114249998
34
 energy: -56.646734241865 gnorm: 0.105856291842 xtb: 6.7.1 (edcfbbe)
C           -0.02799492313832       -0.48063194689052        0.63560391917972
C           -0.09740906927006        0.22213521523748        2.04759087966414
O            0.00760168198536       -0.53797159351411        3.02011699011543
O           -0.29326401672539        1.45313958156210        2.05679853007785
C           -0.03118948012032        0.54885067803415       -0.46955622607101
N           -0.01689671488957       -0.05171606166502       -1.82676373328788
H            0.87289625959657       -1.09370525851848        0.65140749313930
H           -0.89257050858026       -1.14346143669657        0.60127606319958
H           -0.91933986087096        1.17058918577638       -0.37319419045765
H            0.83592431261751        1.19486776121870       -0.35170447991520
H           -0.84178541084886       -0.64840031470775       -1.94803639035715
H            0.82828897688944       -0.61533218322766       -1.96785167947318
H           -0.05425569116135        0.71287499943739       -2.50921151832160
O            0.94713603484436        2.82191809336048        4.79686809466249
H            1.73420194370974        2.39619081877596        4.43218739673643
H            1.25485781660997        3.52217408967714        5.39515536216758
O           -0.78752199019107        3.01375459393129       -6.47196154423351
H            0.02980713786637        2.63474827610728       -6.85795211930794
H           -1.43005079689317        2.28550036186928       -6.42424152237568
O           -0.15661579906495        3.81959009847446        0.37789432624125
H           -0.22935407513525        3.09862919829888        1.02304713273926
H           -1.05417567682483        4.03211832712069        0.09629841149636
O            2.16985957645140        3.33857844474643       -1.52959796966290
H            2.42863593102128        2.60293348886095       -1.01149304883787
H            1.59139473044670        3.89415203146635       -0.98731440025712
O           -1.54754031812058        2.80111344343712       -2.11357555948867
H           -0.86510237448645        3.47406331993862       -2.41557618887023
H           -2.42293623105766        3.34728057426422       -2.17993443621738
O           -1.97648277169480        2.83230165718299        4.08736358001536
H           -1.33963478027494        2.74935799216933        4.84779094961081
H           -1.36937674858030        2.66589176432033        3.32954310956822
O            0.73595870989072        3.08239737495250       -4.02981215312332
H            1.34595436634592        3.04234079214075       -3.24309021662851
H            0.03234575965493        2.43174463286079       -3.84277786172785
34
 energy: -56.655158032536 gnorm: 0.047018155993 xtb: 6.7.1 (edcfbbe)
C           -0.03111311737620       -0.47381847190044        0.63402694786702
C           -0.10844456449556        0.23058632242332        2.04460977771376
O            0.00981733934544       -0.52567889306087        3.02031279554222
O           -0.30979226593254        1.46490873081332        2.04957909287693
C           -0.03490781284804        0.55454646038191       -0.47295030165777
N           -0.01938133525077       -0.04716337352890       -1.82948106824918
H            0.87141907735923       -1.08436721061874        0.65314593966158
H           -0.89437147577914       -1.13819702454164        0.59863164379073
H           -0.92394267253319        1.17618689297210       -0.37889308443143
H            0.83170268406631        1.20207037319391       -0.35687052489209
H           -0.84284247876998       -0.64591661286425       -1.95135344198366
H            0.82757537992046       -0.60800146366918       -1.97196124366347
H           -0.05940333547574        0.71729111953298       -2.51207109396787
O            0.94991008214245        2.83498899095737        4.81531081583530
H            1.73021259920054        2.40202547690638        4.44317696020710
H            1.26895244576084        3.53664911366650        5.40596397528080
O           -0.80178688059745        3.00504073407057       -6.47899122569475
H            0.01523237693370        2.63867286889225       -6.86601818534906
H           -1.44153606860563        2.27598260510831       -6.43873761947283
O           -0.13367131695364        3.81217639139730        0.37315519325733
H           -0.19316002106595        3.08100366187859        1.01284162989760
H           -1.03925210630134        4.02515305314319        0.11063003308585
O            2.10112295419087        3.30894241442650       -1.55135014688531
H            2.48318505121469        2.61300426650034       -0.97345213226092
H            1.58309195834793        3.88067938598016       -0.97711805339880
O           -1.56562095361521        2.81860542687242       -2.20065494566103
H           -0.88367309779796        3.47212028273656       -2.37857286033105
H           -2.40340622694190        3.28337731943072       -2.12675843562812
O           -1.96638699226747        2.80503527821354        4.08456423940561
H           -1.34238918452570        2.75258770572611        4.83750482720557
H           -1.38061233447493        2.63719655706676        3.32466279460273
O            0.75583241031260        3.09735713390794       -4.02068237340442
H            1.36140817244968        3.06029238433934       -3.23871313261019
H            0.04759771036455        2.45468009964779       -3.83818979668907
34
 energy: -56.653241746234 gnorm: 0.092379135444 xtb: 6.7.1 (edcfbbe)
C           -0.03917875932792       -0.45900977264028        0.63383890129428
C           -0.13895495710182        0.24526136508645        2.03838021116569
O            0.01507770641449       -0.49932376051579        3.02156779825564
O           -0.31421586334866        1.48303413331490        2.04234159041295
C           -0.04235883956748        0.56468039821110       -0.47896710602651
N           -0.02411157632016       -0.04183164654756       -1.83189180593637
H            0.86719732170056       -1.06551655108974        0.65854558156213
H           -0.89928726330498       -1.12752007117385        0.59237322502066
H           -0.93409671163606        1.18445780222833       -0.38866433412990
H            0.82343188725403        1.21531207001477       -0.36628429540825
H           -0.84487837187086       -0.64531045338929       -1.95418502623832
H            0.82716953294910       -0.59692604410554       -1.97529012064046
H           -0.06864736602492        0.72110864472409       -2.51692810612351
O            0.95906386629074        2.86033403318714        4.83357173961637
H            1.73495208221068        2.43380663631047        4.48258223856656
H            1.26249161193456        3.55643604099095        5.41847508087917
O           -0.79314764494219        2.95544594700900       -6.44234878109699
H           -0.03185741424928        2.65906208503033       -6.90117894601040
H           -1.46758293752067        2.29435306901905       -6.46648925338884
O           -0.09267510277431        3.77949786650317        0.35678067588565
H           -0.14866103865057        3.06453332120073        1.00438406196821
H           -1.00828347970523        4.01897682885470        0.13444383429268
O            2.10674277634348        3.29978764454202       -1.52138081992517
H            2.47368190390296        2.59987435357394       -0.97181225744882
H            1.54930585760767        3.84312679408150       -0.94913271444486
O           -1.55982618810135        2.78676961018604       -2.18268132380748
H           -0.89710809345830        3.45505910292796       -2.39948507421276
H           -2.40563260801287        3.24899028283346       -2.15006775934056
O           -1.94766978910168        2.75746974604469        4.09076517344780
H           -1.36517531955837        2.84821568317370        4.81247170594210
H           -1.38882701011822        2.51054287223117        3.29734681146508
O            0.76064312081586        3.12677482843315       -3.94697036559484
H            1.40371457194489        3.06608910795917       -3.27386660877867
H            0.09007009532900        2.47445603179240       -3.85494693122321
34
 energy: -56.659593667819 gnorm: 0.041357632736 xtb: 6.7.1 (edcfbbe)
C           -0.04329327188365       -0.44698748153102        0.63254873856994
C           -0.13699176980699        0.25720664376466        2.03270796126346
O            0.00738284228509       -0.47990649279401        3.01986493292555
O           -0.34081170554345        1.49301547725870        2.03687996546161
C           -0.04831916196650        0.57359484310326       -0.48361228015400
N           -0.02952287126087       -0.03619770598476       -1.83438023997444
H            0.86296264252298       -1.05262385148172        0.65870931336794
H           -0.90215620975839       -1.11776048610914        0.59095942185274
H           -0.94041487856299        1.19229027987011       -0.39545711011858
H            0.81606204166317        1.22577630751522       -0.37442325426628
H           -0.84744319426316       -0.64283705959442       -1.95692449957124
H            0.82417666405056       -0.58649523227347       -1.98010296805043
H           -0.07863940557194        0.72607115845816       -2.51977682547932
O            0.95614258995347        2.87975041715911        4.86935125503342
H            1.72059509201213        2.43508484079334        4.49184971082979
H            1.29346013109696        3.58718636772937        5.43517323241121
O           -0.82837543572683        2.96233728270812       -6.47459509718534
H           -0.03112564913341        2.67142969021665       -6.90713608565776
H           -1.47838888806438        2.26355427860248       -6.50419570685770
O           -0.06312671963465        3.77166885402733        0.35952896297170
H           -0.12013144631443        3.04554158392550        0.99651327379090
H           -0.97233902675057        4.00894926478591        0.14187983345554
O            2.09442124566124        3.28503296496372       -1.50554855662130
H            2.49444681639443        2.59641646297461       -0.95417145559920
H            1.52129069860037        3.80975824127914       -0.92888771714183
O           -1.55575674792255        2.76555716949968       -2.19661299056475
H           -0.90631366223344        3.44549350900199       -2.39866065562548
H           -2.40690644874922        3.20898250798223       -2.15813270777524
O           -1.95497384922851        2.74845864527445        4.07235654109308
H           -1.35068228583542        2.79880280078141        4.80243469823831
H           -1.39382353795074        2.48937261238077        3.29272699390771
O            0.81317131342561        3.12751084041954       -3.99340153434636
H            1.39891850886805        3.10450303508332       -3.20099232242178
H            0.08787157962991        2.50748023021228       -3.82117582776291
34