55
	Energy:     -12.1365382
C         -0.51459        1.04807       -1.24436
C         -1.33589        2.03418       -0.45926
O         -2.13414        2.74825       -1.04345
O         -1.20756        2.14371        0.87804
C          0.43686        0.23092       -0.35985
N          1.21221       -0.71373       -1.16204
H          0.07837        1.60498       -2.00036
H         -1.20502        0.35632       -1.77094
H         -0.15187       -0.33178        0.39709
H          1.13297        0.91675        0.17170
H          0.57177       -1.38216       -1.64808
H          1.78741       -0.19926       -1.86741
H          1.84994       -1.25238       -0.53340
O          1.95794       -1.66804       -4.68426
H          2.64209       -1.40139       -4.01996
H          1.09372       -1.51530       -4.22588
O         -1.69410       -0.35669       -4.49526
H         -2.48567        0.02331       -4.03742
H         -1.00931        0.35627       -4.43895
O         -1.24624        5.02772        2.31329
H         -1.97617        4.44525        2.64274
H         -1.41236        5.10761        1.34038
O          0.03493       -3.43440        0.63607
H         -0.37771       -2.79748        1.27196
H          1.00878       -3.33863        0.78693
O         -0.35866        4.55509       -3.05920
H         -0.50692        5.26862       -2.38881
H          0.44887        4.07954       -2.74008
O          2.04209        2.03764       -4.20527
H          2.36765        2.02001       -3.27027
H          1.46225        1.23882       -4.28128
O          1.64099        3.85448        0.01558
H          0.79095        4.35529       -0.06773
H          1.58736        3.42246        0.90491
O         -4.38899        0.63122        1.57882
H         -4.30195       -0.30401        1.89216
H         -3.79667        0.68377        0.78726
O          1.86904       -4.08886       -2.46669
H          0.91218       -3.83444       -2.45821
H          2.09331       -4.24255       -1.51471
H          4.15077        0.70102       -1.14683
O          4.05301        1.13071       -0.26012
H          3.84853        0.38335        0.35651
H         -1.97991       -2.10819       -1.16385
O         -2.81242       -1.79521       -0.72872
H         -2.56118       -1.66156        0.21952
H         -0.30319        0.08210        2.99359
O         -1.25010       -0.03971        3.25644
H         -1.65978       -0.51965        2.49351
H         -4.74635        3.34332        0.25235
O         -4.41710        4.00741        0.90891
H         -3.91903        4.66799        0.36477
H          3.99324       -2.74064       -0.27547
O          4.62818       -2.38440       -0.94666
H          4.05950       -2.12808       -1.71570
