
                                 *****************
                                 * O   R   C   A *
                                 *****************

                                            #,                                       
                                            ###                                      
                                            ####                                     
                                            #####                                    
                                            ######                                   
                                           ########,                                 
                                     ,,################,,,,,                         
                               ,,#################################,,                 
                          ,,##########################################,,             
                       ,#########################################, ''#####,          
                    ,#############################################,,   '####,        
                  ,##################################################,,,,####,       
                ,###########''''           ''''###############################       
              ,#####''   ,,,,##########,,,,          '''####'''          '####       
            ,##' ,,,,###########################,,,                        '##       
           ' ,,###''''                  '''############,,,                           
         ,,##''                                '''############,,,,        ,,,,,,###''
      ,#''                                            '''#######################'''  
     '                                                          ''''####''''         
             ,#######,   #######,   ,#######,      ##                                
            ,#'     '#,  ##    ##  ,#'     '#,    #''#        ,####,   ,####,        
            ##       ##  ##   ,#'  ##            #'  '#       #'       #'  '#        
            ##       ##  #######   ##           ,######,      #####,   #    #        
            '#,     ,#'  ##    ##  '#,     ,#' ,#      #,     #,   #   #,  ,#        
             '#######'   ##     ##  '#######'  #'      '#     '####' # '####'        



                #########################################################
                #                        -***-                          #
                #          Department of theory and spectroscopy        #
                #                                                       #
                #                      Frank Neese                      #
                #                                                       #
                #     Directorship, Architecture, Infrastructure        #
                #                    SHARK, DRIVERS                     #
                #        Core code/Algorithms in most modules           #
                #                                                       #
                #        Max Planck Institute fuer Kohlenforschung      #
                #                Kaiser Wilhelm Platz 1                 #
                #                 D-45470 Muelheim/Ruhr                 #
                #                      Germany                          #
                #                                                       #
                #                  All rights reserved                  #
                #                        -***-                          #
                #########################################################


                         Program Version 6.0.1  -  RELEASE   -


 With contributions from (in alphabetic order):
[Max-Planck-Institut fuer Kohlenforschung]                               
  Daniel Aravena         : Magnetic Suceptibility                        
  Michael Atanasov       : Ab Initio Ligand Field Theory (pilot matlab implementation)
  Alexander A. Auer      : GIAO ZORA, VPT2 properties, NMR spectrum      
  Ute Becker             : All parallelization in ORCA, NUMFREQ, NUMCALC 
  Giovanni Bistoni       : ED, misc. LED, open-shell LED, HFLD           
  Martin Brehm           : Molecular dynamics                            
  Dmytro Bykov           : pre 5.0 version of the SCF Hessian            
  Marcos Casanova-Páez   : Triplet and SCS-CIS(D). UHF-(DLPNO)-IP/EA/STEOM-CCSD. UHF-CVS-IP/STEOM-CCSD   
  Vijay G. Chilkuri      : MRCI spin determinant printing, contributions to CSF-ICE 
  Pauline Colinet        : FMM embedding                                 
  Dipayan Datta          : RHF DLPNO-CCSD density                        
  Achintya Kumar Dutta   : EOM-CC, STEOM-CC                              
  Nicolas Foglia         : Exact transition moments, OPA infrastructure, MCD improvements    
  Dmitry Ganyushin       : Spin-Orbit,Spin-Spin,Magnetic field MRCI      
  Miquel Garcia-Rates    : C-PCM and meta-GGA Hessian, CCSD/C-PCM, Gaussian charge scheme 
  Tiago L. C. Gouveia    : GS-ROHF, GS-ROCIS                             
  Yang Guo               : DLPNO-NEVPT2, F12-NEVPT2, CIM, IAO-localization        
  Andreas Hansen         : Spin unrestricted coupled pair/coupled cluster methods 
  Ingolf Harden          : AUTO-CI MPn and infrastructure                
  Benjamin Helmich-Paris : MC-RPA, TRAH-(SCF,CASSCF), AVAS, COSX integrals, SCF dyn. polar. 
  Lee Huntington         : MR-EOM, pCC                                   
  Robert Izsak           : Overlap fitted RIJCOSX, COSX-SCS-MP3, EOM     
  Riya Kayal             : Wick's Theorem for AUTO-CI, AUTO-CI UHF-CCSDT 
  Emily Kempfer          : AUTO-CI, RHF CISDT and CCSDT                  
  Christian Kollmar      : KDIIS, OOCD, Brueckner-CCSD(T), CCSD density, CASPT2, CASPT2-K, improved NEVPT2 
  Axel Koslowski         : Symmetry handling                             
  Simone Kossmann        : meta-GGA functionals, TD-DFT gradient, OOMP2, (MP2 Hessian; deprecated post 5.0) 
  Lucas Lang             : DCDCAS                                        
  Marvin Lechner         : AUTO-CI (C++ implementation), FIC-MRCC        
  Spencer Leger          : CASSCF response                               
  Dagmar Lenk            : GEPOL surface, SMD, ORCA-2-JSON               
  Dimitrios Liakos       : Extrapolation schemes; Compound Job, initial MDCI parallelization 
  Dimitrios Manganas     : Further ROCIS development; embedding schemes. LFT, Crystal Embedding 
  Dimitrios Pantazis     : SARC Basis sets                               
  Anastasios Papadopoulos: AUTO-CI, single reference methods and gradients 
  Taras Petrenko         : pre 6.0 DFT Hessian and TD-DFT gradient, (ASA, deprecated), ECA, 1-Electron XAS/XES, NRVS 
  Peter Pinski           : DLPNO-MP2, DLPNO-MP2 Gradient                 
  Christoph Reimann      : Effective Core Potentials                     
  Marius Retegan         : Local ZFS, SOC                                
  Christoph Riplinger    : Optimizer, TS searches, QM/MM, DLPNO-CCSD(T), (RO)-DLPNO pert. Triples 
  Michael Roemelt        : Original ROCIS implementation                 
  Masaaki Saitow         : Open-shell DLPNO-CCSD energy and density      
  Barbara Sandhoefer     : DKH picture change effects                    
  Kantharuban Sivalingam : CASSCF convergence/infrastructure, NEVPT2 and variants, FIC-MRCI 
  Bernardo de Souza      : ESD, SOC TD-DFT                               
  Georgi L. Stoychev     : AutoAux, RI-MP2 NMR, DLPNO-MP2 response, X2C  
  Van Anh Tran           : RI-MP2 g-tensors                              
  Willem Van den Heuvel  : Paramagnetic NMR                              
  Zikuan Wang            : NOTCH, Electric field optimization            
  Frank Wennmohs         : Technical directorship and infrastructure     
  Hang Xu                : AUTO-CI-Response properties                   
                                                                         
[FACCTs GmbH]                                                            
  Markus Bursch, Miquel Garcia-Rates, Christoph Riplinger, Bernardo de Souza, Georgi L. Stoychev 
                                                                 
  APM, Basis sets (HGBS, AHGBS, def-TZVP (Ac-Lr), def2-XVPD (La-Lu)), CI-OPT, improved COSX, DLPNO-Multilevel,           
  DOCKER, DRACO, updates on ESD, GOAT, IRC, LR-CPCM, MBIS, meta-GGA TD-DFT gradient, ML-optimized integration grids, 
  MM, NACMEs, nearIR, NEB, NEB-TS, NL-DFT gradient (VV10), 2- and 3-layer-ONIOM, interface openCOSMO-RS, QMMM,   
  Crystal-QMMM, SF, symmetry and pop. for TD-DFT, r2SCAN hybrids, SOLVATOR                                   
                                                                         
[Other institutions]                                                     
  V. Asgeirsson          : NEB                                           
  Christoph Bannwarth    : sTDA-DFT, sTD-DFT, PBEh-3c, B97-3c, D3        
  Sebastian Ehlert       : rSCAN, r2SCAN, r2SCAN-3c, D4, dhf basis sets  
  Marvin Friede          : D4 for Fr, Ra, Ac-Lr                          
  Lars Goerigk           : TD-DFT with DH, B97 family of functionals     
  Stefan Grimme          : VdW corrections, initial TS optimization, DFT functionals, gCP, sTDA/sTD-DF 
  Waldemar Hujo          : DFT-NL                                        
  H. Jonsson             : NEB                                           
  Holger Kruse           : gCP                                           
  Marcel Mueller         : wB97X-3c, vDZP basis set                      
  Hagen Neugebauer       : wr2SCAN                                       
  Tobias Risthaus        : range-separated hybrid DFT                    
  Lukas Wittmann         : regularized MP2, r2SCAN double-hybrids, wr2SCAN        
                                                                         
We gratefully acknowledge several colleagues who have allowed us to      
interface, adapt or use parts of their codes:                            
  Ed Valeev, F. Pavosevic, A. Kumar             : LibInt (2-el integral package), F12 methods 
  Garnet Chan, S. Sharma, J. Yang, R. Olivares  : DMRG                   
  Ulf Ekstrom                                   : XCFun DFT Library      
  Mihaly Kallay                                 : mrcc  (arbitrary order and MRCC methods)
  Frank Weinhold                                : gennbo (NPA and NBO analysis)           
  Simon Mueller                                 : openCOSMO-RS                            
  Christopher J. Cramer and Donald G. Truhlar   : smd solvation model                     
  S Lehtola, MJT Oliveira, MAL Marques          : LibXC Library                           
  Liviu Ungur et al                             : ANISO software                          


 Your calculation uses the libint2 library for the computation of 2-el integrals
 For citations please refer to: http://libint.valeyev.net

 Your ORCA version has been built with support for libXC version: 6.2.2
 For citations please refer to: https://libxc.gitlab.io

 This ORCA versions uses:
   CBLAS   interface :  Fast vector & matrix operations
   LAPACKE interface :  Fast linear algebra routines
   SCALAPACK package :  Parallel linear algebra routines
   Shared memory     :  Shared parallel matrices
   BLAS/LAPACK       :  OpenBLAS 0.3.27  USE64BITINT DYNAMIC_ARCH NO_AFFINITY SkylakeX SINGLE_THREADED
        Core in use  :  SkylakeX
   Copyright (c) 2011-2014, The OpenBLAS Project


NOTE: MaxCore=5000 MB was set to SCF,MP2,MDCI,CIPSI,MRCI and CIS
      => If you want to overwrite this, your respective input block should be placed after the MaxCore statement
Your calculation utilizes the atom-pairwise dispersion correction
based on EEQ partial charges (D4)


Warning: RI is on but no J-basis has been assigned. Assigning Def2/J (nothing to worry about!)
================================================================================

----- Orbital basis set information -----
Your calculation utilizes the basis: def2-TZVP
   F. Weigend and R. Ahlrichs, Phys. Chem. Chem. Phys. 7, 3297 (2005).

----- AuxJ basis set information -----
Your calculation utilizes the auxiliary basis: def2/J
   F. Weigend, Phys. Chem. Chem. Phys. 8, 1057 (2006).

================================================================================
                                        WARNINGS
                       Please study these warnings very carefully!
================================================================================


================================================================================
                                       INPUT FILE
================================================================================
NAME = input.inp
|  1> ! SP B3LYP D4 def2-TZVP TightSCF CPCM(water)
|  2> 
|  3> %maxcore 5000
|  4> 
|  5> %pal
|  6> nprocs 30
|  7> end
|  8> 
|  9> %geom
| 10>     MaxIter 500
| 11> end
| 12> 
| 13> * xyz 0 1
| 14> N           -0.31960325539824       -0.94681026249429        1.36234241886486
| 15> C           -0.16658730068310        0.04583997419043        0.28654859265097
| 16> C           -1.29234441649034       -0.03521794453331       -0.73643092032189
| 17> C           -1.10664153276865       -1.13335016666784       -1.78254194209835
| 18> C           -1.31454641227141       -2.56052674866516       -1.34260667141777
| 19> O           -0.46977102236302       -3.41772932731210       -1.73442338516016
| 20> O           -2.31860677667986       -2.87803913934227       -0.64927053889645
| 21> H            0.27845050937342       -0.70858289178253        2.18304182808041
| 22> H           -1.30775138325262       -0.95754214761306        1.67196210172798
| 23> H           -0.18030756675209        1.03101055181071        0.74994141284260
| 24> H            0.79103414994558       -0.10521258608948       -0.20624864853040
| 25> H           -1.33808376967471        0.90438111968487       -1.27881503586844
| 26> H           -2.25069995763928       -0.16583518401512       -0.23969652223570
| 27> H           -0.12728199331148       -1.05689500344584       -2.25023311927781
| 28> H           -1.86354084137848       -0.99529193023267       -2.56107464616044
| 29> H           -0.08072909017748       -1.90590192649598        1.07417543234750
| 30> *
| 31> 
| 32>                          ****END OF INPUT****
================================================================================

                       ****************************
                       * Single Point Calculation *
                       ****************************

---------------------------------
CARTESIAN COORDINATES (ANGSTROEM)
---------------------------------
  N     -0.319603   -0.946810    1.362342
  C     -0.166587    0.045840    0.286549
  C     -1.292344   -0.035218   -0.736431
  C     -1.106642   -1.133350   -1.782542
  C     -1.314546   -2.560527   -1.342607
  O     -0.469771   -3.417729   -1.734423
  O     -2.318607   -2.878039   -0.649271
  H      0.278451   -0.708583    2.183042
  H     -1.307751   -0.957542    1.671962
  H     -0.180308    1.031011    0.749941
  H      0.791034   -0.105213   -0.206249
  H     -1.338084    0.904381   -1.278815
  H     -2.250700   -0.165835   -0.239697
  H     -0.127282   -1.056895   -2.250233
  H     -1.863541   -0.995292   -2.561075
  H     -0.080729   -1.905902    1.074175

----------------------------
CARTESIAN COORDINATES (A.U.)
----------------------------
  NO LB      ZA    FRAG     MASS         X           Y           Z
   0 N     7.0000    0    14.007   -0.603963   -1.789212    2.574454
   1 C     6.0000    0    12.011   -0.314804    0.086625    0.541498
   2 C     6.0000    0    12.011   -2.442177   -0.066552   -1.391653
   3 C     6.0000    0    12.011   -2.091249   -2.141721   -3.368516
   4 C     6.0000    0    12.011   -2.484133   -4.838694   -2.537159
   5 O     8.0000    0    15.999   -0.887739   -6.458572   -3.277585
   6 O     8.0000    0    15.999   -4.381532   -5.438706   -1.226944
   7 H     1.0000    0     1.008    0.526195   -1.339028    4.125351
   8 H     1.0000    0     1.008   -2.471292   -1.809492    3.159550
   9 H     1.0000    0     1.008   -0.340732    1.948328    1.417184
  10 H     1.0000    0     1.008    1.494838   -0.198823   -0.389753
  11 H     1.0000    0     1.008   -2.528612    1.709033   -2.416610
  12 H     1.0000    0     1.008   -4.253207   -0.313383   -0.452961
  13 H     1.0000    0     1.008   -0.240528   -1.997242   -4.252324
  14 H     1.0000    0     1.008   -3.521582   -1.880829   -4.839730
  15 H     1.0000    0     1.008   -0.152556   -3.601633    2.029897

--------------------------------
INTERNAL COORDINATES (ANGSTROEM)
--------------------------------
 N      0   0   0     0.000000000000     0.00000000     0.00000000
 C      1   0   0     1.471767893150     0.00000000     0.00000000
 C      2   1   0     1.523281508435   112.21950185     0.00000000
 C      3   2   1     1.527981743410   114.09185749   278.57538358
 C      4   3   2     1.507846304340   117.62757785    73.25962000
 O      5   4   3     1.265686397731   117.30195767   223.91915033
 O      5   4   3     1.260819704109   120.57088385    46.18435570
 H      1   2   3     1.043057096232   111.19085433   196.50084390
 H      1   2   3     1.035575320272   108.94972589   315.80463894
 H      2   1   3     1.088798520625   107.32937354   119.65855580
 H      2   1   3     1.087522339811   109.21363513   237.97970673
 H      3   2   1     1.085872468896   108.69468766   159.83033017
 H      3   2   1     1.087313785778   110.54693978    42.47993852
 H      4   3   2     1.087991515004   110.68310114   307.88674676
 H      4   3   2     1.094563753884   108.19622097   189.82156372
 H      1   2   3     1.029542567787   113.55275272    75.17192050

---------------------------
INTERNAL COORDINATES (A.U.)
---------------------------
 N      0   0   0     0.000000000000     0.00000000     0.00000000
 C      1   0   0     2.781238250752     0.00000000     0.00000000
 C      2   1   0     2.878584875809   112.21950185     0.00000000
 C      3   2   1     2.887467032677   114.09185749   278.57538358
 C      4   3   2     2.849416567248   117.62757785    73.25962000
 O      5   4   3     2.391800663141   117.30195767   223.91915033
 O      5   4   3     2.382603945017   120.57088385    46.18435570
 H      1   2   3     1.971092253922   111.19085433   196.50084390
 H      1   2   3     1.956953746362   108.94972589   315.80463894
 H      2   1   3     2.057531019000   107.32937354   119.65855580
 H      2   1   3     2.055119386763   109.21363513   237.97970673
 H      3   2   1     2.052001582579   108.69468766   159.83033017
 H      3   2   1     2.054725276757   110.54693978    42.47993852
 H      4   3   2     2.056005999388   110.68310114   307.88674676
 H      4   3   2     2.068425730957   108.19622097   189.82156372
 H      1   2   3     1.945553496332   113.55275272    75.17192050

---------------------
BASIS SET INFORMATION
---------------------
There are 4 groups of distinct atoms

 Group   1 Type N   : 11s6p2d1f contracted to 5s3p2d1f pattern {62111/411/11/1}
 Group   2 Type C   : 11s6p2d1f contracted to 5s3p2d1f pattern {62111/411/11/1}
 Group   3 Type O   : 11s6p2d1f contracted to 5s3p2d1f pattern {62111/411/11/1}
 Group   4 Type H   : 5s1p contracted to 3s1p pattern {311/1}

Atom   0N    basis set group =>   1
Atom   1C    basis set group =>   2
Atom   2C    basis set group =>   2
Atom   3C    basis set group =>   2
Atom   4C    basis set group =>   2
Atom   5O    basis set group =>   3
Atom   6O    basis set group =>   3
Atom   7H    basis set group =>   4
Atom   8H    basis set group =>   4
Atom   9H    basis set group =>   4
Atom  10H    basis set group =>   4
Atom  11H    basis set group =>   4
Atom  12H    basis set group =>   4
Atom  13H    basis set group =>   4
Atom  14H    basis set group =>   4
Atom  15H    basis set group =>   4
---------------------------------
AUXILIARY/J BASIS SET INFORMATION
---------------------------------
There are 4 groups of distinct atoms

 Group   1 Type N   : 12s5p4d2f1g contracted to 6s4p3d1f1g pattern {711111/2111/211/2/1}
 Group   2 Type C   : 12s5p4d2f1g contracted to 6s4p3d1f1g pattern {711111/2111/211/2/1}
 Group   3 Type O   : 12s5p4d2f1g contracted to 6s4p3d1f1g pattern {711111/2111/211/2/1}
 Group   4 Type H   : 5s2p1d contracted to 3s1p1d pattern {311/2/1}

Atom   0N    basis set group =>   1
Atom   1C    basis set group =>   2
Atom   2C    basis set group =>   2
Atom   3C    basis set group =>   2
Atom   4C    basis set group =>   2
Atom   5O    basis set group =>   3
Atom   6O    basis set group =>   3
Atom   7H    basis set group =>   4
Atom   8H    basis set group =>   4
Atom   9H    basis set group =>   4
Atom  10H    basis set group =>   4
Atom  11H    basis set group =>   4
Atom  12H    basis set group =>   4
Atom  13H    basis set group =>   4
Atom  14H    basis set group =>   4
Atom  15H    basis set group =>   4
--------------------------------------------------------------------------
By default, for Open MPI 4.0 and later, infiniband ports on a device
are not used by default.  The intent is to use UCX for these devices.
You can override this policy by setting the btl_openib_allow_ib MCA parameter
to true.

  Local host:              psid10
  Local adapter:           mlx4_0
  Local port:              1

--------------------------------------------------------------------------
--------------------------------------------------------------------------
WARNING: There was an error initializing an OpenFabrics device.

  Local host:   psid10
  Local device: mlx4_0
--------------------------------------------------------------------------


           ************************************************************
           *        Program running with 30 parallel MPI-processes    *
           *              working on a common directory               *
           ************************************************************
------------------------------------------------------------------------------
                             ORCA STARTUP CALCULATIONS
                           -- RI-GTO INTEGRALS CHOSEN --
------------------------------------------------------------------------------
------------------------------------------------------------------------------
                   ___                                                        
                  /   \      - P O W E R E D   B Y -                         
                 /     \                                                     
                 |  |  |   _    _      __       _____    __    __             
                 |  |  |  | |  | |    /  \     |  _  \  |  |  /  |          
                  \  \/   | |  | |   /    \    | | | |  |  | /  /          
                 / \  \   | |__| |  /  /\  \   | |_| |  |  |/  /          
                |  |  |   |  __  | /  /__\  \  |    /   |      \           
                |  |  |   | |  | | |   __   |  |    \   |  |\   \          
                \     /   | |  | | |  |  |  |  | |\  \  |  | \   \       
                 \___/    |_|  |_| |__|  |__|  |_| \__\ |__|  \__/        
                                                                              
                      - O R C A' S   B I G   F R I E N D -                    
                                      &                                       
                       - I N T E G R A L  F E E D E R -                       
                                                                              
 v1 FN, 2020, v2 2021, v3 2022-2024                                           
------------------------------------------------------------------------------


----------------------
SHARK INTEGRAL PACKAGE
----------------------

Number of atoms                             ...     16
Number of basis functions                   ...    271
Number of shells                            ...    113
Maximum angular momentum                    ...      3
Integral batch strategy                     ... SHARK/LIBINT Hybrid
RI-J (if used) integral strategy            ... SPLIT-RIJ (Revised 2003 algorithm where possible)
Printlevel                                  ...      1
Contraction scheme used                     ... SEGMENTED contraction
Prescreening option                         ... SCHWARTZ
   Thresh                                   ... 2.500e-11
   Tcut                                     ... 2.500e-12
   Tpresel                                  ... 2.500e-12 
Coulomb Range Separation                    ... NOT USED
Exchange Range Separation                   ... NOT USED
Multipole approximations                    ... NOT USED
Finite Nucleus Model                        ... NOT USED
CABS basis                                  ... NOT available
Auxiliary Coulomb fitting basis             ... AVAILABLE
   # of basis functions in Aux-J            ...    442
   # of shells in Aux-J                     ...    150
   Maximum angular momentum in Aux-J        ...      4
Auxiliary J/K fitting basis                 ... NOT available
Auxiliary Correlation fitting basis         ... NOT available
Auxiliary 'external' fitting basis          ... NOT available

Checking pre-screening integrals            ... done (  0.0 sec) Dimension = 113
Check shell pair data                       ... done (  0.0 sec)
Shell pair information
Shell pair cut-off parameter TPreSel        ...   2.5e-12
Total number of shell pairs                 ...      6441
Shell pairs after pre-screening             ...      5997
Total number of primitive shell pairs       ...     19096
Primitive shell pairs kept                  ...     13498
          la=0 lb=0:   1767 shell pairs
          la=1 lb=0:   1749 shell pairs
          la=1 lb=1:    455 shell pairs
          la=2 lb=0:    801 shell pairs
          la=2 lb=1:    401 shell pairs
          la=2 lb=2:    100 shell pairs
          la=3 lb=0:    399 shell pairs
          la=3 lb=1:    202 shell pairs
          la=3 lb=2:     95 shell pairs
          la=3 lb=3:     28 shell pairs

Calculating one electron integrals          ... done (  0.0 sec)
Calculating RI/J V-Matrix + Cholesky decomp.... done (  0.2 sec)
Calculating Nuclear repulsion               ... done (  0.0 sec) ENN=    317.973785071172 Eh

Diagonalization of the overlap matrix:
Smallest eigenvalue                        ... 1.998e-04
Time for diagonalization                   ...    0.007 sec
Threshold for overlap eigenvalues          ... 1.000e-07
Number of eigenvalues below threshold      ... 0
Time for construction of square roots      ...    0.005 sec
Total time needed                          ...    0.017 sec

-------------------
DFT GRID GENERATION
-------------------

General Integration Accuracy     IntAcc      ... 4.388
Radial Grid Type                 RadialGrid  ... OptM3 with GC (2021)
Angular Grid (max. ang.)         AngularGrid ... 4 (Lebedev-302)
Angular grid pruning method      GridPruning ... 4 (adaptive)
Weight generation scheme         WeightScheme... mBecke (2022)
Basis function cutoff            BFCut       ... 1.0000e-11
Integration weight cutoff        WCut        ... 1.0000e-14
Partially contracted basis set               ... off
Rotationally invariant grid construction     ... off
Angular grids for H and He will be reduced by one unit

Total number of grid points                  ...    71095
Total number of batches                      ...     1120
Average number of points per batch           ...       63
Average number of grid points per atom       ...     4443

--------------------
COSX GRID GENERATION
--------------------

GRIDX 1
-------
General Integration Accuracy     IntAcc      ... 3.816
Radial Grid Type                 RadialGrid  ... OptM3 with GC (2021)
Angular Grid (max. ang.)         AngularGrid ... 1 (Lebedev-50)
Angular grid pruning method      GridPruning ... 4 (adaptive)
Weight generation scheme         WeightScheme... mBecke (2022)
Basis function cutoff            BFCut       ... 1.0000e-11
Integration weight cutoff        WCut        ... 1.0000e-14
Partially contracted basis set               ... on
Rotationally invariant grid construction     ... off
Angular grids for H and He will be reduced by one unit

Total number of grid points                  ...     9098
Total number of batches                      ...       83
Average number of points per batch           ...      109
Average number of grid points per atom       ...      569
UseSFitting                                  ... on

GRIDX 2
-------
General Integration Accuracy     IntAcc      ... 4.020
Radial Grid Type                 RadialGrid  ... OptM3 with GC (2021)
Angular Grid (max. ang.)         AngularGrid ... 2 (Lebedev-110)
Angular grid pruning method      GridPruning ... 4 (adaptive)
Weight generation scheme         WeightScheme... mBecke (2022)
Basis function cutoff            BFCut       ... 1.0000e-11
Integration weight cutoff        WCut        ... 1.0000e-14
Partially contracted basis set               ... on
Rotationally invariant grid construction     ... off
Angular grids for H and He will be reduced by one unit

Total number of grid points                  ...    19447
Total number of batches                      ...      160
Average number of points per batch           ...      121
Average number of grid points per atom       ...     1215
UseSFitting                                  ... on

GRIDX 3
-------
General Integration Accuracy     IntAcc      ... 4.338
Radial Grid Type                 RadialGrid  ... OptM3 with GC (2021)
Angular Grid (max. ang.)         AngularGrid ... 3 (Lebedev-194)
Angular grid pruning method      GridPruning ... 4 (adaptive)
Weight generation scheme         WeightScheme... mBecke (2022)
Basis function cutoff            BFCut       ... 1.0000e-11
Integration weight cutoff        WCut        ... 1.0000e-14
Partially contracted basis set               ... on
Rotationally invariant grid construction     ... off
Angular grids for H and He will be reduced by one unit

Total number of grid points                  ...    42622
Total number of batches                      ...      342
Average number of points per batch           ...      124
Average number of grid points per atom       ...     2664
UseSFitting                                  ... on
Initializing property integral containers    ... done (  0.0 sec)

SHARK setup successfully completed in   1.1 seconds

Maximum memory used throughout the entire STARTUP-calculation: 23.9 MB
[psid10:16866] 29 more processes have sent help message help-mpi-btl-openib.txt / ib port not selected
[psid10:16866] Set MCA parameter "orte_base_help_aggregate" to 0 to see all help / error messages
[psid10:16866] 29 more processes have sent help message help-mpi-btl-openib.txt / error in device init
--------------------------------------------------------------------------
By default, for Open MPI 4.0 and later, infiniband ports on a device
are not used by default.  The intent is to use UCX for these devices.
You can override this policy by setting the btl_openib_allow_ib MCA parameter
to true.

  Local host:              psid10
  Local adapter:           mlx4_0
  Local port:              1

--------------------------------------------------------------------------
--------------------------------------------------------------------------
WARNING: There was an error initializing an OpenFabrics device.

  Local host:   psid10
  Local device: mlx4_0
--------------------------------------------------------------------------


           ************************************************************
           *        Program running with 30 parallel MPI-processes    *
           *              working on a common directory               *
           ************************************************************
-------------------------------------------------------------------------------
                                 ORCA GUESS
                   Start orbitals & Density for SCF / CASSCF
-------------------------------------------------------------------------------

------------
SCF SETTINGS
------------
Hamiltonian:
 Density Functional     Method          .... DFT(GTOs)
 Exchange Functional    Exchange        .... B88
   X-Alpha parameter    XAlpha          ....  0.666667
   Becke's b parameter  XBeta           ....  0.004200
 Correlation Functional Correlation     .... LYP
 LDA part of GGA corr.  LDAOpt          .... VWN-5
 Gradients option       PostSCFGGA      .... off
 Hybrid DFT is turned on
   Fraction HF Exchange ScalHFX         ....  0.200000
   Scaling of DF-GGA-X  ScalDFX         ....  0.720000
   Scaling of DF-GGA-C  ScalDFC         ....  0.810000
   Scaling of DF-LDA-C  ScalLDAC        ....  1.000000
   Perturbative correction              ....  0.000000
   NL short-range parameter             ....  4.800000
 RI-approximation to the Coulomb term is turned on
   Number of AuxJ basis functions       .... 442
   RIJ-COSX (HFX calculated with COS-X)).... on


General Settings:
 Integral files         IntName         .... input
 Hartree-Fock type      HFTyp           .... RHF
 Total Charge           Charge          ....    0
 Multiplicity           Mult            ....    1
 Number of Electrons    NEL             ....   56
 Basis Dimension        Dim             ....  271
 Nuclear Repulsion      ENuc            ....    317.9737850712 Eh

Convergence Acceleration:
 AO-DIIS                CNVDIIS         .... on
   Start iteration      DIISMaxIt       ....    12
   Startup error        DIISStart       ....  0.200000
   # of expansion vecs  DIISMaxEq       ....     5
   Bias factor          DIISBfac        ....   1.050
   Max. coefficient     DIISMaxC        ....  10.000
 MO-DIIS                CNVKDIIS        .... off
 Trust-Rad. Augm. Hess. CNVTRAH         .... auto
   Auto Start mean grad. ratio tolernc. ....  1.125000
   Auto Start start iteration           ....    50
   Auto Start num. interpolation iter.  ....    10
   Max. Number of Micro iterations      ....    24
   Max. Number of Macro iterations      .... Maxiter - #DIIS iter
   Number of Davidson start vectors     ....     2
   Converg. threshold    (grad. norm)   ....   1.000e-05
   Grad. Scal. Fac. for Micro threshold ....   0.100
   Minimum threshold for Micro iter.    ....   1.000e-02
   NR start threshold (gradient norm)   ....   1.000e-04
   Initial trust radius                 ....   0.400
   Minimum AH scaling param. (alpha)    ....   1.000
   Maximum AH scaling param. (alpha)    .... 1000.000
   Quad. conv. algorithm                .... NR
   White noise on init. David. guess    .... on
   Maximum white noise                  ....   0.010
   Pseudo random numbers                .... off
   Inactive MOs                         .... canonical
   Orbital update algorithm             .... Taylor
   Preconditioner                       .... Diag
   Full preconditioner red. dimension   ....   250
 SOSCF                  CNVSOSCF        .... on
   Start iteration      SOSCFMaxIt      ....   150
   Startup grad/error   SOSCFStart      ....  0.003300
   Hessian update       SOSCFHessUp     .... L-BFGS
 Level Shifting         CNVShift        .... on
   Level shift para.    LevelShift      ....    0.2500
   Turn off err/grad.   ShiftErr        ....    0.0010
 Zerner damping         CNVZerner       .... off
 Static damping         CNVDamp         .... on
   Fraction old density DampFac         ....    0.7000
   Max. Damping (<1)    DampMax         ....    0.9800
   Min. Damping (>=0)   DampMin         ....    0.0000
   Turn off err/grad.   DampErr         ....    0.1000

SCF Procedure:
 Maximum # iterations   MaxIter         ....   125
 SCF integral mode      SCFMode         .... Direct
   Integral package                     .... SHARK and LIBINT hybrid scheme
 Reset frequency        DirectResetFreq ....    20
 Integral Threshold     Thresh          ....  2.500e-11 Eh
 Primitive CutOff       TCut            ....  2.500e-12 Eh

Convergence Tolerance:
 Convergence Check Mode ConvCheckMode   .... Total+1el-Energy
 Convergence forced     ConvForced      .... 0
 Energy Change          TolE            ....  1.000e-08 Eh
 1-El. energy change                    ....  1.000e-05 Eh
 Orbital Gradient       TolG            ....  1.000e-05
 Orbital Rotation angle TolX            ....  1.000e-05
 DIIS Error             TolErr          ....  5.000e-07

------------------------------
INITIAL GUESS: MODEL POTENTIAL
------------------------------
Loading Hartree-Fock densities                     ... done
Calculating cut-offs                               ... done
Initializing the effective Hamiltonian             ... done
Setting up the integral package (SHARK)            ... done
Starting the Coulomb interaction                   ... done (   0.1 sec)
Making the grid                                    ... done (   0.1 sec)
Mapping shells                                     ... done
Starting the XC term evaluation                    ... done (   0.0 sec)
  promolecular density results
     # of electrons  =     55.997416518
     EX              =    -46.216313004
     EC              =     -1.892732531
     EX+EC           =    -48.109045535
Transforming the Hamiltonian                       ... done (   0.0 sec)
Diagonalizing the Hamiltonian                      ... done (   0.0 sec)
Back transforming the eigenvectors                 ... done (   0.0 sec)
Now organizing SCF variables                       ... done
                      ------------------
                      INITIAL GUESS DONE (   0.3 sec)
                      ------------------
             **** ENERGY FILE WAS UPDATED (input.en.tmp) ****
Finished Guess after   1.4 sec
Maximum memory used throughout the entire GUESS-calculation: 15.8 MB
[psid10:16974] 29 more processes have sent help message help-mpi-btl-openib.txt / ib port not selected
[psid10:16974] Set MCA parameter "orte_base_help_aggregate" to 0 to see all help / error messages
[psid10:16974] 29 more processes have sent help message help-mpi-btl-openib.txt / error in device init
--------------------------------------------------------------------------
By default, for Open MPI 4.0 and later, infiniband ports on a device
are not used by default.  The intent is to use UCX for these devices.
You can override this policy by setting the btl_openib_allow_ib MCA parameter
to true.

  Local host:              psid10
  Local adapter:           mlx4_0
  Local port:              1

--------------------------------------------------------------------------
--------------------------------------------------------------------------
WARNING: There was an error initializing an OpenFabrics device.

  Local host:   psid10
  Local device: mlx4_0
--------------------------------------------------------------------------


           ************************************************************
           *        Program running with 30 parallel MPI-processes    *
           *              working on a common directory               *
           ************************************************************

-------------------------------------------------------------------------------------------
                                      ORCA LEAN-SCF
                              memory conserving SCF solver
-------------------------------------------------------------------------------------------

--------------------
CPCM SOLVATION MODEL
--------------------
CPCM parameters:
  Epsilon                                         ...      80.1510
  Refrac                                          ...       1.3328
  Rsolv                                           ...       1.3000
  Surface type                                    ... GAUSSIAN VDW
  Discretization scheme                           ... Constant charge density
    Threshold for H atoms                         ...       5.0000 (charges/Ang^2)
    Threshold for non-H atoms                     ...       5.0000 (charges/Ang^2)
  Epsilon function type                           ...         CPCM
Solvent:                                          ... WATER
Radii:
  Scheme                                          ... Element-dependent radii
  Radius for N  used is    3.5149 Bohr (=   1.8600 Ang.)
  Radius for C  used is    3.8550 Bohr (=   2.0400 Ang.)
  Radius for O  used is    3.4469 Bohr (=   1.8240 Ang.)
  Radius for H  used is    2.4944 Bohr (=   1.3200 Ang.)
Calculating surface                               ...        done! (  0.0s)
Cavity surface points                             ...         1379
Cavity Volume                                     ...     901.1601
Cavity Surface-area                               ...     541.4040
Calculating surface distance matrix               ...        done! (  0.0s)
Performing Cholesky decomposition & store         ...        done! (  0.0s)
Overall time for CPCM initialization              ...                 0.1s

----------------------------------------D-I-I-S--------------------------------------------
Iteration    Energy (Eh)           Delta-E    RMSDP     MaxDP     DIISErr   Damp  Time(sec)
-------------------------------------------------------------------------------------------
               ***  Starting incremental Fock matrix formation  ***
    1    -362.6861158660273077     0.00e+00  3.82e-03  3.89e-01  3.42e-01  0.700   0.8
    2    -362.8448428758520095    -1.59e-01  3.65e-03  4.18e-01  1.41e-01  0.700   0.6
                               ***Turning on AO-DIIS***
    3    -362.9008674587248606    -5.60e-02  1.27e-03  1.30e-01  4.01e-02  0.700   0.5
    4    -362.9357489053073778    -3.49e-02  1.11e-03  6.65e-02  1.73e-02  0.000   0.6
    5    -363.0147012010401113    -7.90e-02  9.25e-04  1.14e-01  8.11e-03  0.000   0.5
                              *** Initializing SOSCF ***
---------------------------------------S-O-S-C-F--------------------------------------
Iteration    Energy (Eh)           Delta-E    RMSDP     MaxDP     MaxGrad    Time(sec)
--------------------------------------------------------------------------------------
    6    -363.0151111913753539    -4.10e-04  3.53e-04  4.34e-02  1.79e-03     0.5
               *** Restarting incremental Fock matrix formation ***
    7    -363.0151760145033677    -6.48e-05  2.31e-04  2.83e-02  2.92e-04     0.6
[psid10:17072] 29 more processes have sent help message help-mpi-btl-openib.txt / ib port not selected
[psid10:17072] Set MCA parameter "orte_base_help_aggregate" to 0 to see all help / error messages
[psid10:17072] 29 more processes have sent help message help-mpi-btl-openib.txt / error in device init
    8    -363.0151785110116407    -2.50e-06  4.83e-05  5.53e-03  1.39e-04     0.6
    9    -363.0151796698927456    -1.16e-06  4.87e-05  5.84e-03  6.15e-05     0.6
   10    -363.0151797922432024    -1.22e-07  6.13e-06  5.14e-04  5.75e-05     0.5
   11    -363.0151799202214988    -1.28e-07  1.58e-05  1.91e-03  2.76e-05     0.5
   12    -363.0151799298503192    -9.63e-09  2.19e-06  2.29e-04  2.09e-05     0.5
                 **** Energy Check signals convergence ****

               *****************************************************
               *                     SUCCESS                       *
               *           SCF CONVERGED AFTER  12 CYCLES          *
               *****************************************************

Recomputing exchange energy using gridx3       ... done (    0.524 sec)
Old exchange energy                            :     -9.407464144 Eh
New exchange energy                            :     -9.407460544 Eh
Exchange energy change after final integration :      0.000003601 Eh
Total energy after final integration           :   -363.015176329 Eh
             **** ENERGY FILE WAS UPDATED (input.en.tmp) ****

----------------
TOTAL SCF ENERGY
----------------

Total Energy       :       -363.01517632907883 Eh           -9878.14514 eV

Components:
Nuclear Repulsion  :        317.97378507117173 Eh            8652.50658 eV
Electronic Energy  :       -680.88967081132114 Eh          -18527.94989 eV
One Electron Energy:      -1124.78839446755069 Eh          -30607.04825 eV
Two Electron Energy:        443.89872365622949 Eh           12079.09836 eV
CPCM Dielectric    :         -0.09929418970097 Eh              -2.70193 eV

Virial components:
Potential Energy   :       -724.41985695010169 Eh          -19712.46647 eV
Kinetic Energy     :        361.40468062102286 Eh            9834.32133 eV
Virial Ratio       :          2.00445621153907

DFT components:
N(Alpha)           :       28.000035641266 electrons
N(Beta)            :       28.000035641266 electrons
N(Total)           :       56.000071282532 electrons
E(X)               :      -37.404913953320 Eh       
E(C)               :       -2.238860289343 Eh       
E(XC)              :      -39.643774242664 Eh       

CPCM Solvation Model Properties:
Surface-charge          :         -0.02145292223186
Corrected charge        :         -0.00000000000000
Outlying charge corr.   :          0.00003615874150 Eh               0.00098 eV
Free-energy (cav+disp)  :  This term is not implemented in the current solvation scheme

---------------
SCF CONVERGENCE
---------------

  Last Energy change         ...    9.6288e-09  Tolerance :   1.0000e-08
  Last MAX-Density change    ...    2.2924e-04  Tolerance :   1.0000e-07
  Last RMS-Density change    ...    2.1906e-06  Tolerance :   5.0000e-09
  Last DIIS Error            ...    1.7876e-03  Tolerance :   5.0000e-07
  Last Orbital Gradient      ...    2.0940e-05  Tolerance :   1.0000e-05
  Last Orbital Rotation      ...    2.4891e-05  Tolerance :   1.0000e-05


----------------
ORBITAL ENERGIES
----------------

  NO   OCC          E(Eh)            E(eV) 
   0   2.0000     -19.051271      -518.4114 
   1   2.0000     -19.048080      -518.3246 
   2   2.0000     -14.431124      -392.6908 
   3   2.0000     -10.239237      -278.6238 
   4   2.0000     -10.224001      -278.2092 
   5   2.0000     -10.173534      -276.8359 
   6   2.0000     -10.155962      -276.3578 
   7   2.0000      -1.011495       -27.5242 
   8   2.0000      -0.997674       -27.1481 
   9   2.0000      -0.914920       -24.8962 
  10   2.0000      -0.794420       -21.6173 
  11   2.0000      -0.708474       -19.2786 
  12   2.0000      -0.623327       -16.9616 
  13   2.0000      -0.578448       -15.7404 
  14   2.0000      -0.569999       -15.5105 
  15   2.0000      -0.501459       -13.6454 
  16   2.0000      -0.489511       -13.3203 
  17   2.0000      -0.454050       -12.3553 
  18   2.0000      -0.430342       -11.7102 
  19   2.0000      -0.420819       -11.4511 
  20   2.0000      -0.393322       -10.7028 
  21   2.0000      -0.385463       -10.4890 
  22   2.0000      -0.372988       -10.1495 
  23   2.0000      -0.345651        -9.4056 
  24   2.0000      -0.331526        -9.0213 
  25   2.0000      -0.243376        -6.6226 
  26   2.0000      -0.237223        -6.4552 
  27   2.0000      -0.218612        -5.9487 
  28   0.0000       0.014103         0.3838 
  29   0.0000       0.045877         1.2484 
  30   0.0000       0.064101         1.7443 
  31   0.0000       0.066616         1.8127 
  32   0.0000       0.069342         1.8869 
  33   0.0000       0.090555         2.4641 
  34   0.0000       0.113221         3.0809 
  35   0.0000       0.119264         3.2453 
  36   0.0000       0.124189         3.3793 
  37   0.0000       0.129453         3.5226 
  38   0.0000       0.140549         3.8245 
*Only the first 10 virtual orbitals were printed.

                    ********************************
                    * MULLIKEN POPULATION ANALYSIS *
                    ********************************

-----------------------
MULLIKEN ATOMIC CHARGES
-----------------------
   0 N :   -0.266072
   1 C :   -0.136077
   2 C :   -0.188986
   3 C :   -0.167122
   4 C :    0.177241
   5 O :   -0.586665
   6 O :   -0.577856
   7 H :    0.339604
   8 H :    0.327287
   9 H :    0.164204
  10 H :    0.161662
  11 H :    0.125692
  12 H :    0.109749
  13 H :    0.079525
  14 H :    0.107843
  15 H :    0.329971
Sum of atomic charges:   -0.0000000

--------------------------------
MULLIKEN REDUCED ORBITAL CHARGES
--------------------------------
  0 N s       :     3.446244  s :     3.446244
      pz      :     1.250697  p :     3.771996
      px      :     1.276576
      py      :     1.244724
      dz2     :     0.011340  d :     0.045552
      dxz     :     0.012452
      dyz     :     0.004972
      dx2y2   :     0.012760
      dxy     :     0.004029
      f0      :     0.000220  f :     0.002280
      f+1     :     0.000315
      f-1     :     0.000393
      f+2     :     0.000609
      f-2     :     0.000306
      f+3     :     0.000320
      f-3     :     0.000117

  1 C s       :     3.249582  s :     3.249582
      pz      :     0.859159  p :     2.780118
      px      :     1.010833
      py      :     0.910126
      dz2     :     0.020689  d :     0.098198
      dxz     :     0.015969
      dyz     :     0.027155
      dx2y2   :     0.023696
      dxy     :     0.010689
      f0      :     0.001055  f :     0.008179
      f+1     :     0.000849
      f-1     :     0.001279
      f+2     :     0.002346
      f-2     :     0.001532
      f+3     :     0.000420
      f-3     :     0.000699

  2 C s       :     3.217729  s :     3.217729
      pz      :     0.938084  p :     2.876303
      px      :     0.937798
      py      :     1.000421
      dz2     :     0.018792  d :     0.089000
      dxz     :     0.022029
      dyz     :     0.018125
      dx2y2   :     0.021279
      dxy     :     0.008775
      f0      :     0.000650  f :     0.005954
      f+1     :     0.000753
      f-1     :     0.000635
      f+2     :     0.002010
      f-2     :     0.001077
      f+3     :     0.000428
      f-3     :     0.000400

  3 C s       :     3.179435  s :     3.179435
      pz      :     0.986391  p :     2.904062
      px      :     0.995832
      py      :     0.921839
      dz2     :     0.013241  d :     0.077815
      dxz     :     0.016078
      dyz     :     0.012747
      dx2y2   :     0.022506
      dxy     :     0.013242
      f0      :     0.000445  f :     0.005811
      f+1     :     0.000264
      f-1     :     0.001140
      f+2     :     0.001763
      f-2     :     0.000731
      f+3     :     0.000928
      f-3     :     0.000539

  4 C s       :     3.040588  s :     3.040588
      pz      :     0.784666  p :     2.539263
      px      :     0.782461
      py      :     0.972136
      dz2     :     0.042139  d :     0.217558
      dxz     :     0.037062
      dyz     :     0.034987
      dx2y2   :     0.054127
      dxy     :     0.049244
      f0      :     0.001542  f :     0.025349
      f+1     :     0.003126
      f-1     :     0.002145
      f+2     :     0.003382
      f-2     :     0.004551
      f+3     :     0.005755
      f-3     :     0.004848

  5 O s       :     3.766208  s :     3.766208
      pz      :     1.604345  p :     4.792976
      px      :     1.564754
      py      :     1.623877
      dz2     :     0.003284  d :     0.025853
      dxz     :     0.004084
      dyz     :     0.004792
      dx2y2   :     0.006009
      dxy     :     0.007684
      f0      :     0.000127  f :     0.001628
      f+1     :     0.000153
      f-1     :     0.000170
      f+2     :     0.000118
      f-2     :     0.000332
      f+3     :     0.000355
      f-3     :     0.000374

  6 O s       :     3.766214  s :     3.766214
      pz      :     1.512123  p :     4.784195
      px      :     1.482194
      py      :     1.789878
      dz2     :     0.005105  d :     0.025817
      dxz     :     0.007398
      dyz     :     0.002625
      dx2y2   :     0.005497
      dxy     :     0.005193
      f0      :     0.000121  f :     0.001630
      f+1     :     0.000384
      f-1     :     0.000054
      f+2     :     0.000309
      f-2     :     0.000274
      f+3     :     0.000235
      f-3     :     0.000253

  7 H s       :     0.628664  s :     0.628664
      pz      :     0.015212  p :     0.031732
      px      :     0.010371
      py      :     0.006149

  8 H s       :     0.640032  s :     0.640032
      pz      :     0.007318  p :     0.032681
      px      :     0.019596
      py      :     0.005767

  9 H s       :     0.814194  s :     0.814194
      pz      :     0.004928  p :     0.021602
      px      :     0.004418
      py      :     0.012256

 10 H s       :     0.816752  s :     0.816752
      pz      :     0.006004  p :     0.021586
      px      :     0.011984
      py      :     0.003598

 11 H s       :     0.852191  s :     0.852191
      pz      :     0.006566  p :     0.022117
      px      :     0.004343
      py      :     0.011208

 12 H s       :     0.868145  s :     0.868145
      pz      :     0.005689  p :     0.022106
      px      :     0.011645
      py      :     0.004772

 13 H s       :     0.898440  s :     0.898440
      pz      :     0.006430  p :     0.022035
      px      :     0.011312
      py      :     0.004292

 14 H s       :     0.870101  s :     0.870101
      pz      :     0.009243  p :     0.022056
      px      :     0.008100
      py      :     0.004712

 15 H s       :     0.636692  s :     0.636692
      pz      :     0.006904  p :     0.033337
      px      :     0.006850
      py      :     0.019583



                     *******************************
                     * LOEWDIN POPULATION ANALYSIS *
                     *******************************

----------------------
LOEWDIN ATOMIC CHARGES
----------------------
   0 N :    0.187309
   1 C :   -0.248211
   2 C :   -0.257765
   3 C :   -0.252516
   4 C :   -0.696991
   5 O :   -0.159894
   6 O :   -0.149982
   7 H :    0.238573
   8 H :    0.231478
   9 H :    0.150184
  10 H :    0.150058
  11 H :    0.149888
  12 H :    0.140411
  13 H :    0.138293
  14 H :    0.154364
  15 H :    0.224800

-------------------------------
LOEWDIN REDUCED ORBITAL CHARGES
-------------------------------
  0 N s       :     2.978184  s :     2.978184
      pz      :     1.221575  p :     3.666599
      px      :     1.220669
      py      :     1.224355
      dz2     :     0.036421  d :     0.157835
      dxz     :     0.039139
      dyz     :     0.025378
      dx2y2   :     0.042804
      dxy     :     0.014092
      f0      :     0.001756  f :     0.010073
      f+1     :     0.001418
      f-1     :     0.001514
      f+2     :     0.001102
      f-2     :     0.001867
      f+3     :     0.001589
      f-3     :     0.000827

  1 C s       :     2.792940  s :     2.792940
      pz      :     0.947929  p :     2.971201
      px      :     1.066157
      py      :     0.957116
      dz2     :     0.081193  d :     0.431869
      dxz     :     0.091253
      dyz     :     0.118317
      dx2y2   :     0.101789
      dxy     :     0.039316
      f0      :     0.009683  f :     0.052200
      f+1     :     0.005923
      f-1     :     0.008871
      f+2     :     0.007974
      f-2     :     0.009683
      f+3     :     0.004501
      f-3     :     0.005564

  2 C s       :     2.777797  s :     2.777797
      pz      :     1.013464  p :     3.052775
      px      :     1.015276
      py      :     1.024035
      dz2     :     0.066072  d :     0.387967
      dxz     :     0.100049
      dyz     :     0.090427
      dx2y2   :     0.094998
      dxy     :     0.036421
      f0      :     0.007366  f :     0.039225
      f+1     :     0.005189
      f-1     :     0.004941
      f+2     :     0.006260
      f-2     :     0.006663
      f+3     :     0.004681
      f-3     :     0.004124

  3 C s       :     2.783680  s :     2.783680
      pz      :     1.013039  p :     3.061789
      px      :     1.024031
      py      :     1.024719
      dz2     :     0.053520  d :     0.369323
      dxz     :     0.084086
      dyz     :     0.078404
      dx2y2   :     0.102989
      dxy     :     0.050324
      f0      :     0.005153  f :     0.037724
      f+1     :     0.002721
      f-1     :     0.007097
      f+2     :     0.005965
      f-2     :     0.004821
      f+3     :     0.007271
      f-3     :     0.004696

  4 C s       :     2.778903  s :     2.778903
      pz      :     0.819992  p :     2.749262
      px      :     0.918737
      py      :     1.010534
      dz2     :     0.150775  d :     1.007114
      dxz     :     0.177048
      dyz     :     0.156240
      dx2y2   :     0.277193
      dxy     :     0.245859
      f0      :     0.012478  f :     0.161711
      f+1     :     0.015137
      f-1     :     0.016153
      f+2     :     0.020330
      f-2     :     0.029031
      f+3     :     0.036873
      f-3     :     0.031709

  5 O s       :     3.437427  s :     3.437427
      pz      :     1.515613  p :     4.658828
      px      :     1.549922
      py      :     1.593294
      dz2     :     0.007359  d :     0.058552
      dxz     :     0.009338
      dyz     :     0.008082
      dx2y2   :     0.014838
      dxy     :     0.018935
      f0      :     0.000441  f :     0.005087
      f+1     :     0.000436
      f-1     :     0.000455
      f+2     :     0.000363
      f-2     :     0.001005
      f+3     :     0.001260
      f-3     :     0.001128

  6 O s       :     3.432629  s :     3.432629
      pz      :     1.479116  p :     4.653015
      px      :     1.509333
      py      :     1.664566
      dz2     :     0.007606  d :     0.059170
      dxz     :     0.018715
      dyz     :     0.006917
      dx2y2   :     0.012685
      dxy     :     0.013247
      f0      :     0.000428  f :     0.005167
      f+1     :     0.000891
      f-1     :     0.000094
      f+2     :     0.001204
      f-2     :     0.001037
      f+3     :     0.000759
      f-3     :     0.000753

  7 H s       :     0.666598  s :     0.666598
      pz      :     0.044343  p :     0.094828
      px      :     0.031778
      py      :     0.018708

  8 H s       :     0.671733  s :     0.671733
      pz      :     0.020048  p :     0.096789
      px      :     0.060078
      py      :     0.016663

  9 H s       :     0.789042  s :     0.789042
      pz      :     0.014731  p :     0.060774
      px      :     0.013464
      py      :     0.032579

 10 H s       :     0.788792  s :     0.788792
      pz      :     0.017174  p :     0.061150
      px      :     0.032419
      py      :     0.011556

 11 H s       :     0.789959  s :     0.789959
      pz      :     0.018433  p :     0.060153
      px      :     0.012991
      py      :     0.028729

 12 H s       :     0.798532  s :     0.798532
      pz      :     0.016848  p :     0.061058
      px      :     0.030205
      py      :     0.014004

 13 H s       :     0.802312  s :     0.802312
      pz      :     0.016888  p :     0.059395
      px      :     0.030337
      py      :     0.012170

 14 H s       :     0.786373  s :     0.786373
      pz      :     0.022533  p :     0.059263
      px      :     0.022953
      py      :     0.013776

 15 H s       :     0.676037  s :     0.676037
      pz      :     0.021480  p :     0.099162
      px      :     0.019963
      py      :     0.057720



                      *****************************
                      * MAYER POPULATION ANALYSIS *
                      *****************************

  NA   - Mulliken gross atomic population
  ZA   - Total nuclear charge
  QA   - Mulliken gross atomic charge
  VA   - Mayer's total valence
  BVA  - Mayer's bonded valence
  FA   - Mayer's free valence

  ATOM       NA         ZA         QA         VA         BVA        FA
  0 N      7.2661     7.0000    -0.2661     3.5351     3.5351    -0.0000
  1 C      6.1361     6.0000    -0.1361     3.8219     3.8219    -0.0000
  2 C      6.1890     6.0000    -0.1890     3.8418     3.8418    -0.0000
  3 C      6.1671     6.0000    -0.1671     3.6135     3.6135     0.0000
  4 C      5.8228     6.0000     0.1772     4.6348     4.6348    -0.0000
  5 O      8.5867     8.0000    -0.5867     1.8108     1.8108     0.0000
  6 O      8.5779     8.0000    -0.5779     1.8075     1.8075     0.0000
  7 H      0.6604     1.0000     0.3396     0.8819     0.8819    -0.0000
  8 H      0.6727     1.0000     0.3273     0.8993     0.8993    -0.0000
  9 H      0.8358     1.0000     0.1642     0.9604     0.9604    -0.0000
 10 H      0.8383     1.0000     0.1617     0.9644     0.9644    -0.0000
 11 H      0.8743     1.0000     0.1257     0.9674     0.9674    -0.0000
 12 H      0.8903     1.0000     0.1097     1.0038     1.0038    -0.0000
 13 H      0.9205     1.0000     0.0795     1.0095     1.0095     0.0000
 14 H      0.8922     1.0000     0.1078     0.9757     0.9757     0.0000
 15 H      0.6700     1.0000     0.3300     0.8958     0.8958    -0.0000

  Mayer bond orders larger than 0.100000
B(  0-N ,  1-C ) :   0.9062 B(  0-N ,  7-H ) :   0.8680 B(  0-N ,  8-H ) :   0.8700 
B(  0-N , 15-H ) :   0.8722 B(  1-C ,  2-C ) :   0.9712 B(  1-C ,  9-H ) :   0.9632 
B(  1-C , 10-H ) :   0.9624 B(  2-C ,  3-C ) :   0.9480 B(  2-C , 11-H ) :   0.9620 
B(  2-C , 12-H ) :   0.9612 B(  3-C ,  4-C ) :   0.9379 B(  3-C , 13-H ) :   0.9561 
B(  3-C , 14-H ) :   0.9384 B(  4-C ,  5-O ) :   1.8443 B(  4-C ,  6-O ) :   1.8233 


-------
TIMINGS
-------

Total SCF time: 0 days 0 hours 0 min 8 sec 

Total time                  ....       8.409 sec
Sum of individual times     ....       8.252 sec  ( 98.1%)

SCF preparation             ....       0.986 sec  ( 11.7%)
Fock matrix formation       ....       6.091 sec  ( 72.4%)
  Startup                   ....       0.169 sec  (  2.8% of F)
  Split-RI-J                ....       0.641 sec  ( 10.5% of F)
  Chain of spheres X        ....       3.045 sec  ( 50.0% of F)
  XC integration            ....       1.264 sec  ( 20.7% of F)
    XC Preparation          ....       0.000 sec  (  0.0% of XC)
    Basis function eval.    ....       0.151 sec  ( 11.9% of XC)
    Density eval.           ....       0.111 sec  (  8.8% of XC)
    XC-Functional eval.     ....       0.028 sec  (  2.2% of XC)
    XC-Potential eval.      ....       0.188 sec  ( 14.9% of XC)
  CPCM terms                ....       0.703 sec  ( 11.5% of F)
Diagonalization             ....       0.000 sec  (  0.0%)
Density matrix formation    ....       0.342 sec  (  4.1%)
Total Energy calculation    ....       0.192 sec  (  2.3%)
Population analysis         ....       0.030 sec  (  0.4%)
Orbital Transformation      ....       0.056 sec  (  0.7%)
Orbital Orthonormalization  ....       0.000 sec  (  0.0%)
DIIS solution               ....       0.336 sec  (  4.0%)
SOSCF solution              ....       0.217 sec  (  2.6%)
Finished LeanSCF after   8.5 sec

Maximum memory used throughout the entire LEANSCF-calculation: 26.8 MB


-------------------------------------------------------------------------------
                          DFT DISPERSION CORRECTION                            
                                                                               
                                DFTD4 V3.4.0                                   
-------------------------------------------------------------------------------
The B3LYP functional is recognized
Active option DFTDOPT                   ...         5   

-------------------------   ----------------
Dispersion correction           -0.019272954
-------------------------   ----------------


-------------------------   --------------------
FINAL SINGLE POINT ENERGY      -363.034449283340
-------------------------   --------------------

--------------------------------------------------------------------------
By default, for Open MPI 4.0 and later, infiniband ports on a device
are not used by default.  The intent is to use UCX for these devices.
You can override this policy by setting the btl_openib_allow_ib MCA parameter
to true.

  Local host:              psid10
  Local adapter:           mlx4_0
  Local port:              1

--------------------------------------------------------------------------
--------------------------------------------------------------------------
WARNING: There was an error initializing an OpenFabrics device.

  Local host:   psid10
  Local device: mlx4_0
--------------------------------------------------------------------------


           ************************************************************
           *        Program running with 30 parallel MPI-processes    *
           *              working on a common directory               *
           ************************************************************

------------------------------------------------------------------------------
                              ORCA PROPERTY CALCULATIONS
------------------------------------------------------------------------------

GBWName                                 ... input.gbw
Number of atoms                         ...     16
Number of basis functions               ...    271
Max core memory                         ...   5000 MB

Electric properties:
Dipole moment                           ... YES
Quadrupole moment                       ...  NO
Static polarizability (Dipole/Dipole)   ...  NO
Static polarizability (Dipole/Quad.)    ...  NO
Static polarizability (Quad./Quad.)     ...  NO
Static polarizability (Velocity)        ...  NO

Atomic electric properties:
Dipole moment                           ...  NO
Quadrupole moment                       ...  NO
Static polarizability                   ...  NO

Choice of electric origin               ... Center of mass
Position of electric origin             ...    -1.865878    -2.972718    -1.151891

General magnetic properties:
Magnetizability                         ...  NO

EPR properties:
g-Tensor (aka g-matrix)                 ...  NO
Zero-Field splitting spin-orbit         ...  NO
Zero-field splitting spin-spin          ...  NO
Hyperfine couplings                     ...  NO (   0 nuclei)
Quadrupole couplings                    ...  NO (   0 nuclei)
Contact density                         ...  NO (   0 nuclei)

NMR properties:
Chemical shifts                         ...  NO (   0 nuclei)
Spin-rotation constants                 ...  NO (   0 nuclei)
Spin-spin couplings                     ...  NO (   0 nuclei,    0 pairs)

Choice of magnetic origin               ... GIAO
Position of magnetic origin             ...     0.000000     0.000000     0.000000

Properties with geometric perturbations:
SCF Hessian                             ...  NO
IR spectrum                             ...  NO
VCD spectrum                            ...  NO
X-ray spectroscopy properties:
SCF XES/XAS/RIXS spectra                ...  NO


-------------
DIPOLE MOMENT
-------------

Method             : SCF
Type of density    : Electron Density
Multiplicity       :   1
Irrep              :   0
Energy             :  -363.0151763290788267 Eh
Relativity type    : 
Basis              : AO
                                X                 Y                 Z
Electronic contribution:     -0.651341102      -4.558750349      -0.051813368
Nuclear contribution   :      2.625582846       9.524374819       4.336495950
                        -----------------------------------------
Total Dipole Moment    :      1.974241744       4.965624470       4.284682581
                        -----------------------------------------
Magnitude (a.u.)       :      6.849347536
Magnitude (Debye)      :     17.409657867



--------------------
Rotational spectrum 
--------------------
 
Rotational constants in cm-1:             0.132328             0.057711             0.051942 
Rotational constants in MHz :          3967.079255          1730.123520          1557.191974 

Dipole components along the rotational axes: 
x,y,z [a.u.] :    -6.821515     0.544567     0.289726 
x,y,z [Debye]:   -17.338913     1.384180     0.736425 

 

Dipole moment calculation done in   0.0 sec 

Maximum memory used throughout the entire PROP-calculation: 13.2 MB
[psid10:17176] 29 more processes have sent help message help-mpi-btl-openib.txt / ib port not selected
[psid10:17176] Set MCA parameter "orte_base_help_aggregate" to 0 to see all help / error messages
[psid10:17176] 29 more processes have sent help message help-mpi-btl-openib.txt / error in device init
--------------------------------------------------------------------------
By default, for Open MPI 4.0 and later, infiniband ports on a device
are not used by default.  The intent is to use UCX for these devices.
You can override this policy by setting the btl_openib_allow_ib MCA parameter
to true.

  Local host:              psid10
  Local adapter:           mlx4_0
  Local port:              1

--------------------------------------------------------------------------
--------------------------------------------------------------------------
WARNING: There was an error initializing an OpenFabrics device.

  Local host:   psid10
  Local device: mlx4_0
--------------------------------------------------------------------------
[psid10:17270] 29 more processes have sent help message help-mpi-btl-openib.txt / ib port not selected
[psid10:17270] Set MCA parameter "orte_base_help_aggregate" to 0 to see all help / error messages
[psid10:17270] 29 more processes have sent help message help-mpi-btl-openib.txt / error in device init

--------------------------------
SUGGESTED CITATIONS FOR THIS RUN
--------------------------------

Below you find a list of papers that are relevant to this ORCA run
We neither can nor want to force you to cite these papers, but we appreciate if you do
You receive ORCA, which is the product of decades of hard work by many enthusiastic individuals, for free
The only thing we kindly ask in return is that you cite our papers,
We deeply appreciate it, if you show your appreciation for ORCA by not just citing the generic ORCA reference.

Please note that relegating all ORCA citations to the supporting information does *not* help us.
SI sections are not indexed - citations you put there will not count into any citation statistics
But we need these citations in order to attract the funding resources that allow us to do what we are doing

Therefore, if you are a happy ORCA user, please consider citing a few of the papers listed below in the main body of your paper

In addition to the list printed below, the program has created the file input.bibtex that contains the list in bibtex format
You can import this file easily into all common literature databanks and citation aid programs


List of essential papers. We consider these as the minimum necessary citations

  1. Neese,F.
     Software update: the ORCA program system, version 5.0
     WIRES Comput. Molec. Sci., 2022 12(1)e1606
     doi.org/10.1002/wcms.1606

List of papers to cite with high priority. The work reported in these papers was absolutely
necessary for this run to complete.
Our perspective: the developers of density functionals and basis sets usually get cited in chemistry papers
Good! But without the algorithms to do something with them, the functionals or basis sets would not do anything.
Hence, in our opinion, the algorithm design and method developments papers are equally worthy of getting cited

  1. Neese,F.
     An improvement of the resolution of the identity approximation for the formation of the Coulomb matrix
     J. Comp. Chem., 2003 24(14)1740-1747
     doi.org/10.1002/jcc.10318
  2. Neese,F.; Wennmohs,F.; Hansen,A.; Becker,U.
     Efficient, approximate and parallel Hartree-Fock and hybrid DFT calculations. A 'chain-of-spheres' algorithm for the Hartree-Fock exchange
     Chem. Phys., 2009 356(1-3)98-109
     doi.org/10.1016/j.chemphys.2008.10.036
  3. Garcia-Rates,M.; Neese,F.
     Effect of the Solute Cavity on the Solvation Energy and its Derivatives within the Framework of the Gaussian Charge Scheme
     J. Comput. Chem., 2020 41 922-939
     doi.org/10.1002/jcc.26139
  4. Helmich-Paris,B.; de Souza,B.; Neese,F.; Izsák,R.
     An improved chain of spheres for exchange algorithm
     J. Chem. Phys., 2021 155 104109
     doi.org/doi: 10.1063/5.0058766.
  5. Neese,F.
     The SHARK Integral Generation and Digestion System
     J. Comp. Chem., 2022  1-16
     doi.org/10.1002/jcc.26942
  6. Caldeweyher,E.; Bannwarth,C.; Grimme,S.
     Extension of the D3 dispersion coefficient model
     J. Chem. Phys., 2017 147 034112
     doi.org/10.1063/1.4993215
  7. Caldeweyher,E.; Ehlert,S.; Hansen,A.; Neugebauer,H.; Spicher,S.; Bannwarth,C.; Grimme,S.
     A generally applicable atomic-charge dependent London dispersion correction
     J. Chem. Phys., 2019 150 154122
     doi.org/10.1063/1.5090222
  8. Caldeweyher,E.; Mewes,J.; Ehlert,S.; Grimme,S.
     Extension and evaluation of the D4 London-dispersion model for periodic systems
     Phys. Chem. Chem. Phys., 2020 22(16)8499-8512
     doi.org/10.1039/D0CP00502A
  9. Wittmann,L.; Gordiy,I.; Friede,M.; Helmich-Paris,B.; Grimme,S.; Hansen,A.; Bursch,M.
     Extension of the D3 and D4 London Dispersion Corrections to the full Actinides Series
     Phys. Chem. Chem. Phys., 2024 26(32)21379-21394
     doi.org/https://doi.org/10.1039/D4CP01514B 

List of suggested additional citations. These are papers that are important in the 'surrounding' of 
of this run, or papers that preceded the highly important papers. If you like your results we are grateful for a citation.

  1. Izsak,R.; Neese,F.
     An overlap fitted chain of spheres exchange method
     J. Chem. Phys., 2011 135 144105
     doi.org/10.1063/1.3646921
  2. Izsak,R.; Hansen,A.; Neese,F.
     The resolution of identity and chain of spheres approximations for the LPNO-CCSD singles Fock term
     Molec. Phys., 2012 110 2413-2417
     doi.org/10.1080/00268976.2012.687466
  3. Neese,F.
     The ORCA program system
     WIRES Comput. Molec. Sci., 2012 2(1)73-78
     doi.org/10.1002/wcms.81
  4. Izsak,R.; Neese,F.; Klopper,W.
     Robust fitting techniques in the chain of spheres approximation to the Fock exchange: The role of the complementary space
     J. Chem. Phys., 2013 139 
     doi.org/10.1063/1.4819264
  5. Neese,F.
     Software update: the ORCA program system, version 4.0
     WIRES Comput. Molec. Sci., 2018 8(1)1-6
     doi.org/10.1002/wcms.1327
  6. Neese,F.; Wennmohs,F.; Becker,U.; Riplinger,C.
     The ORCA quantum chemistry program package
     J. Chem. Phys., 2020 152 Art. No. L224108
     doi.org/10.1063/5.0004608

List of optional additional citations

  1. Neese,F.
     Approximate second-order SCF convergence for spin unrestricted wavefunctions
     Chem. Phys. Lett., 2000 325(1-3)93-98
     doi.org/10.1016/s0009-2614(00)00662-x

Timings for individual modules:

Sum of individual times          ...       13.857 sec (=   0.231 min)
Startup calculation              ...        2.721 sec (=   0.045 min)  19.6 %
SCF iterations                   ...       10.197 sec (=   0.170 min)  73.6 %
Property calculations            ...        0.939 sec (=   0.016 min)   6.8 %
                             ****ORCA TERMINATED NORMALLY****
TOTAL RUN TIME: 0 days 0 hours 0 minutes 15 seconds 111 msec
