37
 energy: -59.754705934951 gnorm: 0.181188211804 xtb: 6.7.1 (edcfbbe)
N            0.05814800000000       -0.92758300000000        1.46960700000000
C            0.21195900000000        0.51002000000000        1.25738900000000
C           -0.42029600000000        1.02660100000000       -0.05399500000000
C            0.23290900000000        0.51099500000000       -1.35178600000000
C           -0.12525300000000       -0.89643600000000       -1.75561800000000
O            0.43258500000000       -1.42088200000000       -2.86197900000000
O           -0.94795900000000       -1.55110300000000       -1.13717200000000
H            0.42854800000000       -1.16686800000000        2.41684100000000
H           -0.95187600000000       -1.19383100000000        1.43153800000000
H           -0.27873900000000        1.04478500000000        2.10014800000000
H            1.29199600000000        0.77262900000000        1.27882300000000
H           -0.26331200000000        2.12751800000000       -0.03828000000000
H           -1.51695700000000        0.85134800000000       -0.07337000000000
H            1.33463900000000        0.61768200000000       -1.26361400000000
H           -0.10456000000000        1.15854300000000       -2.18948000000000
H            0.61816600000000       -1.46341800000000        0.77094700000000
O            2.94327600000000       -0.05912400000000        4.16646100000000
H            3.93242900000000       -0.03411400000000        4.12693600000000
H            2.72993300000000        0.06985800000000        5.12482500000000
O            2.27652400000000       -2.85314700000000        4.01933000000000
H            3.17568000000000       -3.03712000000000        4.39119400000000
H            1.98916300000000       -2.01777900000000        4.46676500000000
O           -3.14795300000000       -1.72497200000000        4.47710600000000
H           -2.50828700000000       -1.56424200000000        3.73845600000000
H           -2.67728000000000       -2.35339000000000        5.08057200000000
O           -0.44641600000000        4.15889500000000        4.70450200000000
H            0.04794300000000        3.79605100000000        3.92696500000000
H           -0.99893700000000        3.40123400000000        5.02275200000000
O           -0.56679300000000       -3.92397400000000        4.54867500000000
H           -1.51689100000000       -4.04730500000000        4.29824900000000
H           -0.59448200000000       -3.33687500000000        5.34564500000000
O           -0.52754300000000       -0.31133800000000        5.25988200000000
H           -0.89933100000000       -1.17009800000000        5.58379000000000
H           -0.89815600000000       -0.20900200000000        4.34731100000000
O            2.17821200000000        2.10197800000000        4.48403400000000
H            1.43930500000000        2.46821300000000        5.03221300000000
H            1.72908600000000        1.70426800000000        3.69617300000000
37
 energy: -59.781853094393 gnorm: 0.092520973975 xtb: 6.7.1 (edcfbbe)
N            0.06437224989800       -0.92785481243150        1.47620950885520
C            0.21436257259280        0.51858295588322        1.25710357204920
C           -0.40804670018218        1.03154518171823       -0.04815571314673
C            0.23617485766077        0.51556218766134       -1.34466170913916
C           -0.14359393473044       -0.89653720387047       -1.76784007194813
O            0.43624128913661       -1.37677550538491       -2.82096395236380
O           -0.94583629678864       -1.56579896583989       -1.10080482166244
H            0.43536811234783       -1.18600696179370        2.40696150150190
H           -0.92870082881501       -1.20060678008868        1.40962667600400
H           -0.27448827519764        1.04464100825760        2.08739691343557
H            1.28230740791276        0.76963244223239        1.27052578945621
H           -0.27692331552807        2.12140094067624       -0.04366707804016
H           -1.48660716302532        0.83073533983840       -0.07229833383248
H            1.32855193793427        0.60554338330218       -1.28436765250555
H           -0.08758746563503        1.15317755627054       -2.17920382337079
H            0.59440484215446       -1.46077148108182        0.77129651758788
O            2.96888524903119       -0.20075032068239        4.18383581340220
H            3.93071341017989       -0.02892792639131        4.11914593581801
H            2.74984291845144        0.07782824951384        5.10178566491162
O            2.26794427559835       -2.85387061571744        4.03046161230174
H            3.15395945151821       -3.04593622798032        4.37569388947009
H            2.02006671344169       -2.00505490601143        4.44337956272258
O           -3.13441258839239       -1.71333584998202        4.48500829139860
H           -2.52405426078847       -1.59272792497802        3.73685561686686
H           -2.69922140183155       -2.35565314944439        5.07127965470443
O           -0.43422186685077        4.14213820006984        4.71505239214908
H            0.03422556882394        3.80794220092476        3.93022608639799
H           -1.00241841306801        3.41032305785769        5.01091777047428
O           -0.58039421719244       -3.89001902934751        4.53023625204280
H           -1.51312923862349       -4.06202947464369        4.30945441065875
H           -0.59596075250807       -3.36925979570242        5.35341509260213
O           -0.48977830671709       -0.32854784013918        5.23013136521399
H           -0.90313394667178       -1.13206930199784        5.59201140226893
H           -0.91706801174740       -0.20371057621861        4.36391454857038
O            2.14656981580471        2.19584843561852        4.47596018669747
H            1.41461770158508        2.49867873654209        5.03818012878488
H            1.72644861022181        1.73068177336095        3.72773199966220
37
 energy: -59.791019799194 gnorm: 0.044505010454 xtb: 6.7.1 (edcfbbe)
N            0.07242520684716       -0.92773723407464        1.47853545195526
C            0.22360277274582        0.52915516590998        1.25912831861995
C           -0.40045139728869        1.03248388874731       -0.03901790349433
C            0.24600943538638        0.51665326654351       -1.32852137453328
C           -0.10922526456137       -0.92753643993200       -1.74162634205840
O            0.37963536783457       -1.31713437442868       -2.81076100702435
O           -0.94495313448086       -1.56368660916906       -1.05370384829589
H            0.44541653880608       -1.21046824121944        2.39233702401462
H           -0.90630016512613       -1.20630894423846        1.37589974995733
H           -0.26711313907138        1.04186036163366        2.08112991372895
H            1.28319702385859        0.76535861993970        1.26430615023341
H           -0.30021732134440        2.11491496868779       -0.04206756027647
H           -1.46209911480473        0.79356050394880       -0.07040556121367
H            1.33046733013398        0.58970032703282       -1.29360519229644
H           -0.07382567395691        1.13642057540060       -2.16741834796911
H            0.56830966754932       -1.45628017791385        0.75805783610142
O            2.98157694276689       -0.17791133445081        4.18903415772940
H            3.91532483840467       -0.06435372545323        4.10716119097870
H            2.76222113216778        0.06794800474221        5.08269634479063
O            2.24026823292105       -2.88618926358642        4.05806227453284
H            3.13091614423339       -3.06957409961122        4.35039624413603
H            2.06022619054864       -1.98736497461810        4.39043521929890
O           -3.11322504093772       -1.68928620104322        4.50055421182006
H           -2.54500366558888       -1.64193954507264        3.72252292197823
H           -2.73137037572817       -2.36651527793417        5.06464055817087
O           -0.41712202263903        4.12338086515638        4.72744294323871
H            0.02370570594123        3.82779550395937        3.92696550215989
H           -1.01249546627862        3.42009431964961        4.99417137499339
O           -0.60070292813733       -3.85342767281152        4.50869349706961
H           -1.51599894172794       -4.08619803199988        4.32170554502774
H           -0.59464976076756       -3.41057845308663        5.36653901604068
O           -0.45030168726264       -0.33526146929665        5.19257409234593
H           -0.89338899581075       -1.08260381188406        5.60835726341396
H           -0.94151913038390       -0.19507886981666        4.37467510609240
O            2.12861442925280        2.27369396844230        4.48181384473302
H            1.40073940562112        2.53503696315091        5.04472425788876
H            1.74678686087774        1.74539444869733        3.76640212611087
37
 energy: -59.794867701886 gnorm: 0.088312128872 xtb: 6.7.1 (edcfbbe)
N            0.08114365289859       -0.92926613328033        1.47251798229336
C            0.23859307835066        0.53197453838428        1.26668647871154
C           -0.39644138765038        1.02886253929283       -0.02697429126001
C            0.24722250354843        0.52028259740348       -1.31689707903377
C           -0.13838838911396       -0.92117058905256       -1.75985236378731
O            0.38256338079021       -1.32114738078501       -2.79676354210261
O           -0.90590309670053       -1.57702451555976       -0.99819456547131
H            0.45424017568687       -1.23031398050261        2.38041035560226
H           -0.89742829246150       -1.20554028712675        1.35003279515471
H           -0.25318428121123        1.03738950954931        2.09281443028624
H            1.29981841388725        0.76263651910786        1.26697862469232
H           -0.31805660259335        2.11419331722949       -0.02979582735209
H           -1.45311800338921        0.76238820204293       -0.06089216245745
H            1.33562289702886        0.57166954583916       -1.29294316369369
H           -0.07384683126016        1.14350293152813       -2.15233914091518
H            0.56319521308524       -1.45112479777510        0.73511849410091
O            2.96666644257034       -0.23649006104086        4.21444329377187
H            3.89895012671487       -0.04380241499916        4.07313789883935
H            2.76943095489168        0.13179855921879        5.09336851670896
O            2.21117247643435       -2.90046401799959        4.06692357075195
H            3.11201881748714       -3.11556274614796        4.31847948070338
H            2.11450516362113       -1.94678409443804        4.33349212233852
O           -3.08321907536792       -1.63028225828400        4.53196269186406
H           -2.56599220039151       -1.71372384340628        3.68931201397981
H           -2.77619482300575       -2.39544334207311        5.05749680430270
O           -0.37747293759736        4.10224275770412        4.76911377621250
H            0.00583453917856        3.85574743288652        3.91148334195574
H           -1.04561695703099        3.42563865960342        4.96757519333271
O           -0.61835201874632       -3.78610497685750        4.45632607308130
H           -1.53344632218783       -4.13256720857748        4.34624559218496
H           -0.59817662222676       -3.46121464683436        5.39155620275587
O           -0.38300138461337       -0.34652483679182        5.13521213548566
H           -0.89131271626419       -1.02346734927697        5.64094674096630
H           -0.99353707822325       -0.17578466265932        4.37668958327436
O            2.12605134469274        2.30966682874987        4.48682454332575
H            1.39854010983296        2.56090690628631        5.05698735218153
H            1.75659972933603        1.74292029864369        3.79435104721377
37
 energy: -59.794784177295 gnorm: 0.086869579885 xtb: 6.7.1 (edcfbbe)
N            0.08890525161282       -0.93198419580144        1.46839416621584
C            0.25188064076575        0.53173844611839        1.27806474662856
C           -0.39617977058546        1.02208385859619       -0.01208507628240
C            0.24850070834512        0.52120100174303       -1.30046276277501
C           -0.16035564178470       -0.92010869441978       -1.76804191326805
O            0.37510577645720       -1.32533208597049       -2.80463114017779
O           -0.87474704145799       -1.58811029162322       -0.95582933423312
H            0.46035419209129       -1.25031368094206        2.37285525276124
H           -0.89243995880809       -1.20399270522367        1.32869131541664
H           -0.23782226726015        1.03174798987219        2.11251469073924
H            1.31661530832811        0.76015803288468        1.27236146627270
H           -0.34305869614259        2.11300520997505       -0.01508055773922
H           -1.44905210595148        0.72705265558548       -0.04610222777689
H            1.34148400727465        0.55597838234494       -1.27901699840840
H           -0.07184266758324        1.14793908197059       -2.13631773635054
H            0.56040774038584       -1.44576921122269        0.71228854622720
O            2.95597484490338       -0.29776121523750        4.23473736674462
H            3.88979207325624       -0.02425886497394        4.03576623462423
H            2.77545997864026        0.17869803274003        5.09836417228985
O            2.20878581804369       -2.87717349820223        4.03633529236643
H            3.09149348884941       -3.16530736583819        4.30006418414129
H            2.15018257370572       -1.93282828983946        4.30841767870412
O           -3.09414084741375       -1.67407290753535        4.49843150281882
H           -2.56049183048651       -1.71755743728067        3.70112554225915
H           -2.79702116825502       -2.38992477167613        5.06843763045133
O           -0.35482021614842        4.08625158513312        4.78887226755296
H           -0.00059989803743        3.87951438758365        3.89941407567231
H           -1.06374658399232        3.42799115428784        4.94665028275307
O           -0.65080924004057       -3.84670868361076        4.50182175166064
H           -1.54318939762877       -4.12942718162339        4.32799946729640
H           -0.59996991995192       -3.44145766972644        5.35569891916469
O           -0.45773899973601       -0.27881983252014        5.14426112166811
H           -0.83108749670178       -1.00342162414804        5.62808730890350
H           -0.96956368192154       -0.17950763536543        4.35470833304590
O            2.12795277495989        2.36404553348063        4.48599038907303
H            1.39608986097549        2.59607869087843        5.07039902429911
H            1.76917239129346        1.73837079958834        3.82865001725927
37
 energy: -59.799793389031 gnorm: 0.046006567194 xtb: 6.7.1 (edcfbbe)
N            0.09158646855287       -0.93753656203651        1.46748277891849
C            0.25153517466663        0.52366688316628        1.28419793371952
C           -0.40230275049857        1.01503296736207       -0.00506058313382
C            0.24786582777352        0.51643982783936       -1.29198704086174
C           -0.13333514475520       -0.93615977826355       -1.73461097847499
O            0.35092582739474       -1.32048456046428       -2.83394356093200
O           -0.89369619270063       -1.58190025741813       -0.98110976300311
H            0.46205429157078       -1.25872107081853        2.37254373772858
H           -0.89314465228926       -1.20560194615700        1.33271580914421
H           -0.22940428866771        1.02496764402062        2.12681645274882
H            1.31758392820401        0.75836215883277        1.27498797808192
H           -0.35866225993890        2.10869213350736       -0.00768176166212
H           -1.45483617502780        0.71629742136687       -0.03085085504191
H            1.33936724374351        0.56194625860165       -1.25638541294120
H           -0.06753014775294        1.14296425757408       -2.13363437794977
H            0.56603616145893       -1.44558729095137        0.70664456626086
O            2.96990563095920       -0.21554686907064        4.20977474747941
H            3.90223005839591       -0.06522955554905        4.04572437263200
H            2.76982128072662        0.10863306844848        5.07888727598696
O            2.22035642756069       -2.85210634627937        4.01158689964809
H            3.08169877084405       -3.18317783145874        4.30496174261011
H            2.16267152992796       -1.93762088607476        4.31029477480208
O           -3.08979451207324       -1.68786051025277        4.48784988675588
H           -2.55360699302599       -1.73553660796260        3.70389796036943
H           -2.80576327314456       -2.38880311289624        5.07553738078155
O           -0.39163693603843        4.09792249195580        4.74915302614188
H            0.01708907393601        3.87872974024068        3.91010233832109
H           -1.03902633046130        3.42545098892787        4.95387508386173
O           -0.66318146458267       -3.82073483320673        4.47577220188074
H           -1.55652458529112       -4.15868882898064        4.34629689885634
H           -0.60014600086756       -3.46801581897693        5.36482727586781
O           -0.44053606866025       -0.26707614945728        5.11629632358701
H           -0.80478159763325       -0.97530348685708        5.64679523935304
H           -1.00450206423331       -0.18111829155865        4.34812669309410
O            2.12858921237416        2.41400375411554        4.48664167521764
H            1.38887545484226        2.63061088069169        5.07639179336661
H            1.77369907471187        1.75710711804211        3.84891648678412
37
 energy: -59.800758922520 gnorm: 0.082829649021 xtb: 6.7.1 (edcfbbe)
N            0.10075341230917       -0.94390791764668        1.46973755297267
C            0.25621858609741        0.51607481515854        1.28727662466723
C           -0.40325079103641        1.00560914018135        0.00015708347388
C            0.25172460693095        0.51312181816673       -1.28886768761053
C           -0.11209903904761       -0.94746512895497       -1.71123935345531
O            0.33381087185989       -1.31487117544274       -2.82726982687960
O           -0.90229920250276       -1.57859563263593       -0.99044113699361
H            0.46978081222496       -1.26736090382331        2.37209143525805
H           -0.88232294378609       -1.21050855150186        1.33686668877033
H           -0.21515761679943        1.01607219430581        2.13376963260610
H            1.31933217281451        0.75468533975798        1.27510308838251
H           -0.36884876343931        2.09651862245158       -0.00070761842974
H           -1.45210984050348        0.70390099845179       -0.01695013539878
H            1.33912145694920        0.56152964306681       -1.24078736357386
H           -0.05292848993720        1.14172516935066       -2.13110651567590
H            0.57419136979706       -1.44737298208273        0.70906405559912
O            2.96019520386737       -0.22823527711022        4.21936125679263
H            3.88245269000170       -0.07526510510614        4.03743675154848
H            2.77096325143231        0.16632566549403        5.07694839531486
O            2.19071130607812       -2.88869735900792        4.03276840216403
H            3.06319579122146       -3.21343575629048        4.27883388060139
H            2.22835842467690       -1.89516741345900        4.23152446236139
O           -3.05380532177566       -1.62744087241844        4.51533351654599
H           -2.55773020886592       -1.82262179449995        3.66776974389795
H           -2.84198083133868       -2.39870180858102        5.07930923760207
O           -0.35355965184618        4.07813512461586        4.79456335125135
H           -0.00247842632047        3.90893393043536        3.90136229180548
H           -1.07389926342613        3.43031237386972        4.91902150976960
O           -0.68501397786783       -3.79927444055640        4.44887190926114
H           -1.57391772280623       -4.18088865666475        4.35676077720912
H           -0.60495199053854       -3.50338802138634        5.37416381109742
O           -0.40922387213537       -0.25068493914396        5.06943085515199
H           -0.77104725745069       -0.93026936031253        5.66731838232359
H           -1.06532633779611       -0.18118485113113        4.34024391673968
O            2.12271850487932        2.37916107333301        4.52389681964577
H            1.40298297719611        2.68102995412442        5.07374318050327
H            1.77492011088494        1.81021908499565        3.85647602469907
37
 energy: -59.802621507487 gnorm: 0.082223778633 xtb: 6.7.1 (edcfbbe)
N            0.10781666546780       -0.94969652617922        1.47264400109742
C            0.26197347974803        0.51129671157659        1.29214945454969
C           -0.40596111580453        0.99833634092432        0.00916029663302
C            0.24720832345194        0.51532267786887       -1.28485757320145
C           -0.15258762943294       -0.93154386993622       -1.73614629971027
O            0.34082338586647       -1.32220855203544       -2.79675300094981
O           -0.88748723021928       -1.58800321362735       -0.96414142985997
H            0.47589900566491       -1.27793343269583        2.37195637245435
H           -0.87355464290561       -1.21620687498621        1.33523267058703
H           -0.20488018253217        1.00687112350401        2.14173920814213
H            1.32346888055005        0.74990629904299        1.27540465368656
H           -0.38126008191124        2.08737658624632        0.01071146559539
H           -1.45129890914386        0.68738826682855       -0.00521815319225
H            1.33573032615123        0.54887882884434       -1.23537398492705
H           -0.04939231401975        1.15324432130588       -2.11984923646547
H            0.57658058105724       -1.44959654118767        0.70880327264033
O            2.95103915331991       -0.23483224358463        4.22472033078830
H            3.87071057732202       -0.07055143545648        4.01241155480594
H            2.77758761046607        0.21532823415225        5.07450265006305
O            2.21904904113157       -2.85623529281095        3.97793283447228
H            3.04922801199109       -3.22965075751017        4.28344854854981
H            2.22993832388305       -1.91881353368907        4.23092320630918
O           -3.07068137842709       -1.69281405717135        4.47497609695265
H           -2.54350164052584       -1.80854002152973        3.68887783769728
H           -2.84061686761048       -2.38782329326562        5.08975036599790
O           -0.36579123770816        4.07756849670238        4.77983815995333
H            0.00265558262712        3.92043014963157        3.90055063036373
H           -1.06536565385690        3.42854019334869        4.91628684241944
O           -0.70511233917920       -3.76309264074983        4.41387241555759
H           -1.58812574700832       -4.22346649326791        4.37454517311526
H           -0.61142708933506       -3.54399272288187        5.38462422626575
O           -0.38146012839459       -0.24487634431453        5.03591528655143
H           -0.76378836161589       -0.89048509289344        5.67203925944569
H           -1.09503148903311       -0.16672700893247        4.34199088643250
O            2.12966474847058        2.41204903043954        4.52942094972138
H            1.40882623463037        2.72693618228263        5.06804423811928
H            1.78860410686644        1.78563350601064        3.89170178933764
37
 energy: -59.794635474947 gnorm: 0.127708824022 xtb: 6.7.1 (edcfbbe)
N            0.11417121386369       -0.95415943206804        1.47657679121414
C            0.26721895819464        0.50758371840936        1.29817973248045
C           -0.40829154440702        0.99426197352443        0.01935906093302
C            0.24460594686015        0.51597307579644       -1.27610453871211
C           -0.20298855643535       -0.90894565166606       -1.77240995060864
O            0.34707960345272       -1.32511739494158       -2.78845146027118
O           -0.86707555762597       -1.60236329649583       -0.93897575510154
H            0.48104754101467       -1.28477907850207        2.37566122537531
H           -0.86768021972101       -1.22109671276527        1.33768266733477
H           -0.19830692105304        1.00003452112547        2.15075160641864
H            1.32905177805464        0.74704314223887        1.27554192133655
H           -0.39194703788220        2.08358956296504        0.02085252356775
H           -1.45160529204670        0.67190414197454        0.00239149128225
H            1.33693068776635        0.53754662050380       -1.22762625025016
H           -0.04780077842924        1.16163027869736       -2.10518109557827
H            0.58193998643607       -1.45212424572300        0.71069009306698
O            2.95150064303444       -0.20097441124178        4.21773755037722
H            3.87728638797828       -0.06566888061398        3.99919587588538
H            2.77878339851716        0.18435345741476        5.06607089255038
O            2.22805658369744       -2.83376585825769        3.95070865664057
H            3.03576332416058       -3.24447238737095        4.28249924369488
H            2.24320559417372       -1.92741133097077        4.22071673760893
O           -3.03777453544421       -1.64888122123293        4.49145650320175
H           -2.54355073174857       -1.86494275651750        3.67108970670632
H           -2.87282201482506       -2.40513156554417        5.08425995681673
O           -0.38630358130868        4.07835703525234        4.75543278449280
H            0.00920366962443        3.92571573398648        3.90394861385751
H           -1.04960083225095        3.42908088323097        4.92307987120894
O           -0.73161569683828       -3.87177234954543        4.49802932377202
H           -1.58138884972095       -4.19721433281360        4.33036264739192
H           -0.62523520455191       -3.50702984995400        5.33776302925908
O           -0.41828310608057       -0.22510441828763        5.04910449576077
H           -0.77375550985264       -0.88241093936211        5.63402023346140
H           -1.04411273622636       -0.15159330308796        4.34052597805422
O            2.14066233972684        2.50890400795983        4.51167847657660
H            1.39347473801010        2.76272733211379        5.07159654018361
H            1.79963631188482        1.72427093177272        3.94361982001020
37
 energy: -59.806289222729 gnorm: 0.049743744390 xtb: 6.7.1 (edcfbbe)
N            0.11740324122125       -0.95631386643666        1.47687380064831
C            0.26854245885981        0.50356275841045        1.30032660349874
C           -0.40884445381369        0.99288644692151        0.02178076692605
C            0.24787926696655        0.50929223454401       -1.26986810123402
C           -0.14282874662953       -0.93724770704167       -1.71788683259339
O            0.31840621887052       -1.31292701534250       -2.82670724651188
O           -0.88913123399937       -1.59103318339835       -0.96577292461689
H            0.48424145130096       -1.28422814308123        2.37920583826286
H           -0.86720172648051       -1.22217390539459        1.34604152361552
H           -0.19547105775630        0.99883267601088        2.15511122265476
H            1.33192850650219        0.74722648729232        1.27627089385256
H           -0.39342420971351        2.08478031285281        0.02258334825373
H           -1.45326344014465        0.66866210868414        0.00627077793370
H            1.33865775761814        0.54290725605519       -1.21608050211261
H           -0.04533631342566        1.15069335311168       -2.10634819796169
H            0.59108258274137       -1.45455170251407        0.71270143016815
O            2.94567616705483       -0.22926243113273        4.22179816638178
H            3.87287134759875       -0.05558460853721        3.99596495273042
H            2.78171149759036        0.20248647209570        5.06804129351648
O            2.20182421652216       -2.85864949602417        3.97017730380690
H            3.02957407915565       -3.26076682779635        4.26280715073959
H            2.27979926217255       -1.89322407718408        4.18665862343329
O           -3.05321839526325       -1.68237952566548        4.47037033325225
H           -2.53748023416203       -1.84418489156901        3.68567481130535
H           -2.86377348868118       -2.39390249247743        5.08706608627479
O           -0.35098438544908        4.06630049306265        4.79391036501882
H           -0.00694939558546        3.94104438446159        3.89235914370606
H           -1.07638255076377        3.42957099415905        4.90124540889509
O           -0.73241796406762       -3.83434103722063        4.46126222490494
H           -1.59598295575580       -4.22461978890522        4.34577568805645
H           -0.62595342159773       -3.52406726395571        5.35224625975514
O           -0.42932064158266       -0.21236374176110        5.04616360855844
H           -0.76993406532008       -0.87681510461016        5.63126609306848
H           -1.04558245307923       -0.14933833902295        4.33269981450560
O            2.14013809518094        2.45746231557579        4.53971470013711
H            1.39885991440525        2.77195166942384        5.07558533984222
H            1.79436506951202        1.78833218641349        3.92654523132579
37
 energy: -59.798808235548 gnorm: 0.131225326187 xtb: 6.7.1 (edcfbbe)
N            0.12457415896127       -0.96414713567594        1.48168285822879
C            0.27205075542652        0.49602840384046        1.30624291151563
C           -0.41145729209854        0.98293110284658        0.03027568649706
C            0.24064269921880        0.50822664819704       -1.26823729542044