34
 energy: -56.603060014936 gnorm: 0.183413281019 xtb: 6.7.1 (edcfbbe)
C            0.00071700000000       -0.52255800000000        0.67804400000000
C            0.00015500000000        0.09392700000000        2.05036800000000
O           -0.00019500000000       -0.63013100000000        3.03226200000000
O           -0.00079700000000        1.43155900000000        2.21643300000000
C            0.00098900000000        0.52531100000000       -0.44326000000000
N           -0.00030100000000       -0.11659100000000       -1.75665200000000
H            0.90259300000000       -1.16292800000000        0.57888800000000
H           -0.90264000000000       -1.16023800000000        0.57901700000000
H           -0.90200200000000        1.16741300000000       -0.35103700000000
H            0.90366600000000        1.16894900000000       -0.35172000000000
H           -0.85706900000000       -0.70553200000000       -1.86752300000000
H            0.85322800000000       -0.71006900000000       -1.86779500000000
H            0.00165600000000        0.62088700000000       -2.49702600000000
O           -1.85266100000000       -0.60078200000000       -4.81423700000000
H           -2.27884000000000       -1.48398500000000       -4.95184600000000
H           -2.48987400000000       -0.10438600000000       -4.24138200000000
O            1.17003300000000       -0.52230500000000       -5.09867600000000
H            0.61591700000000       -0.71737600000000       -4.30148500000000
H            0.52707200000000       -0.51410200000000       -5.85176700000000
O            2.64833400000000        3.25255300000000       -3.54321800000000
H            1.98596600000000        3.82677300000000       -3.08262000000000
H            2.33517300000000        3.21645600000000       -4.48196200000000
O           -0.30470200000000       -2.70380400000000       -4.14675300000000
H           -1.09092000000000       -3.25214400000000       -4.39534100000000
H            0.42146800000000       -3.02992400000000       -4.73576600000000
O           -0.19474500000000        1.80607200000000       -4.93910100000000
H           -1.03867200000000        1.39702200000000       -5.25702800000000
H            0.42552600000000        1.72351200000000       -5.70660400000000
O           -1.95789400000000        3.03793000000000       -4.10527200000000
H           -2.70679800000000        2.39246200000000       -4.04936800000000
H           -2.31869800000000        3.87136800000000       -3.71053900000000
O            3.46214600000000        0.39099400000000       -3.76249000000000
H            3.15793800000000        1.07286200000000       -4.41296900000000
H            3.15185500000000       -0.46953300000000       -4.14173500000000
34
 energy: -56.627292773581 gnorm: 0.085768944727 xtb: 6.7.1 (edcfbbe)
C            0.00106736315778       -0.50588172494339        0.66673013152597
C            0.00263102717003        0.10214224812880        2.06131379576321
O           -0.00060896770380       -0.64637811100516        3.04885876497706
O           -0.00433808284896        1.38976920799169        2.17330823885076
C            0.00163513880251        0.53414884778417       -0.44984392664959
N            0.00212733541249       -0.10907244065286       -1.77473641821593
H            0.88782431151365       -1.14983810412806        0.59599725179447
H           -0.88609928362049       -1.14986741004583        0.59748752258364
H           -0.88198933338943        1.17186947731978       -0.33970676316684
H            0.88697970532419        1.16991762979863       -0.34246798435041
H           -0.83462714469335       -0.70288802320514       -1.88602223586986
H            0.84399294890645       -0.69602849730224       -1.88313170170595
H            0.00617859403993        0.61149935546018       -2.51696409830048
O           -1.88374748079514       -0.57945050496650       -4.82290154218452
H           -2.27749551786585       -1.45561451256074       -4.96024806955282
H           -2.49942719889897       -0.11443265856264       -4.23622999730906
O            1.17652612905167       -0.55719268958272       -5.11342763669025
H            0.61672401351612       -0.72942283598565       -4.33653905651972
H            0.54198565229956       -0.52182637426996       -5.84606014130120
O            2.64048551093743        3.26752715963766       -3.55982216532826
H            1.99735953021251        3.82224664890755       -3.08986761217920
H            2.31741424855072        3.23431517540817       -4.47457699317560
O           -0.30643389051495       -2.74526104872025       -4.12622723872472
H           -1.07251310675245       -3.27918655315001       -4.38523176986670
H            0.41075427560256       -3.02726352123060       -4.71718776158738
O           -0.15520013868328        1.78706401134671       -4.95770190490208
H           -0.98812131588037        1.38403228521881       -5.25682173632203
H            0.44131774056267        1.71574467075559       -5.71652275568666
O           -2.01409281198134        3.07031696209701       -4.07297567647305
H           -2.74363368865657        2.43253815292254       -4.02691640671387
H           -2.35277044697409        3.89024793571266       -3.68605938467369
O            3.48203652353727        0.36852084967188       -3.76763964606029
H            3.16905975539521        1.06370907572057       -4.37072645199759
H            3.14262260526602       -0.45634268357051       -4.15729862998729
34
 energy: -56.636068451852 gnorm: 0.023035271522 xtb: 6.7.1 (edcfbbe)
C            0.00118261007422       -0.50360855505884        0.64988601771130
C           -0.00560222702382        0.12118101390027        2.06317046787234
O            0.00186220319743       -0.66648512700683        3.03643470808192
O           -0.00010337991557        1.35934519136207        2.14755434572498
C            0.00352738262834        0.54247292978539       -0.45202328389284
N            0.00961709219341       -0.09393892615483       -1.79066552660863
H            0.88411610891662       -1.14333178403577        0.60345642104376
H           -0.87861194246007       -1.14774897394020        0.60145461579449
H           -0.87221736885223        1.17535609160758       -0.33695238530795
H            0.88184600492248        1.17142054103462       -0.33708789486219
H           -0.81017163951084       -0.69695379413844       -1.90528525811435
H            0.84764918293797       -0.67303343843265       -1.89637775620644
H            0.01431684677252        0.61798118704187       -2.53294124088282
O           -1.90864992607780       -0.55451865459407       -4.81975524889218
H           -2.27756367480794       -1.42331784986033       -4.98736315499663
H           -2.51943679586101       -0.11598398524559       -4.22801615813076
O            1.18913381809409       -0.61798433204548       -5.13395437000062
H            0.61415232540557       -0.76417269772614       -4.37466141624566
H            0.56793912507282       -0.54140864949802       -5.86131886925237
O            2.62721815140836        3.27699503434888       -3.58864536550853
H            2.01574192807024        3.82536328159672       -3.09184547503381
H            2.28739513256080        3.26243002365063       -4.48570100742548
O           -0.32559027832580       -2.77440415090036       -4.11098230346664
H           -1.05812013485350       -3.33993080028498       -4.35456120280141
H            0.40822954573758       -3.02997748897898       -4.67440219037127
O           -0.11559944731516        1.78501903693757       -4.96375789420272
H           -0.94319384763330        1.37651520294550       -5.23451892684630
H            0.46064795996466        1.72460720005878       -5.72412940941511
O           -2.07745640451520        3.09603651690552       -4.03733577280530
H           -2.80634261700414        2.47699690893192       -3.99760060677469
H           -2.37928240571579        3.91806534791652       -3.65398250333405
O            3.50069992832980        0.32965446286342       -3.76088192872543
H            3.19948408463937        1.06894805000848       -4.30362015469656
H            3.13080665894511       -0.45192681299385       -4.19374927142788
34
 energy: -56.641288525298 gnorm: 0.036445952560 xtb: 6.7.1 (edcfbbe)
C            0.00679588403230       -0.51089317797550        0.63606196465850
C            0.01153732659659        0.13201560421204        2.05854511416870
O           -0.00722966611411       -0.67358265078258        3.02165612582691
O           -0.01862674442719        1.36578742875364        2.12864809011913
C            0.00858879130005        0.54099429627942       -0.45869982605994
N            0.02247490037608       -0.07962602498070       -1.80950107933964
H            0.89018273927360       -1.14692212576431        0.59912735167829
H           -0.87474560660360       -1.15085961160304        0.59927006059760
H           -0.86804149520654        1.17231983947579       -0.34105668585446
H            0.88574606629829        1.17033019134037       -0.33626079299512
H           -0.78795446649669       -0.69326410790819       -1.93130265044224
H            0.86633915935433       -0.64953075400533       -1.91555553215095
H            0.02403510282534        0.63533008233446       -2.54837599108539
O           -1.93519143295175       -0.50541749596312       -4.82932437541012
H           -2.25709618670600       -1.39086742177558       -5.02495296231030
H           -2.55250151360848       -0.12352515607922       -4.19770633163257
O            1.20853274693443       -0.69553060704896       -5.15519698432725
H            0.60086357073054       -0.80479965880350       -4.41129807104959
H            0.60688786067809       -0.55466944080279       -5.89641618882883
O            2.61853968306320        3.28202948898714       -3.63436375456355
H            2.04731745626177        3.82926921072561       -3.08192668251152
H            2.23215163198909        3.30406539916133       -4.51597757331631
O           -0.35823589223959       -2.81356026227218       -4.07389768239543
H           -1.05141653167626       -3.43227840763988       -4.31943563563721
H            0.40633877760335       -3.01988095874056       -4.62414163665768
O           -0.07048678633031        1.78543017333341       -4.95482433219528
H           -0.90134408336704        1.35896768099321       -5.19038728787731
H            0.48142587170805        1.73840696401922       -5.73672058157540
O           -2.13696326455189        3.11292622475923       -3.99690388928780
H           -2.89335238007062        2.52568483641525       -3.96789558376469
H           -2.40051187664428        3.95217984476178       -3.61586767305670
O            3.53425793019420        0.27554340043193       -3.75243217667411
H            3.23597687396320        1.09855270134723       -4.19980884078771
H            3.09332955381028       -0.44496350518481       -4.25323790526160
34
 energy: -56.646091095484 gnorm: 0.048339988588 xtb: 6.7.1 (edcfbbe)
C            0.00766732767859       -0.51891896091053        0.61626496373039
C           -0.01114514872379        0.14576780843250        2.05043698578154
O            0.00365680626800       -0.67670892205473        2.99956872331834
O           -0.01434564932015        1.38394579305124        2.10607981463782
C            0.01314045326403        0.53929970348135       -0.47105994483924
N            0.04330664999156       -0.05955311129227       -1.83630359979366
H            0.89842477149460       -1.14430314082291        0.59657041110821
H           -0.87212213666087       -1.15824837059009        0.58457372027128
H           -0.86857404687757        1.16709411899045       -0.35477432143238
H            0.88858367217497        1.17247193001582       -0.33520301148318
H           -0.75458450025567       -0.69008172457642       -1.96968555623958
H            0.89973088946974       -0.61408426874738       -1.94165708037164
H            0.03774968572519        0.66284833437477       -2.56954377506735
O           -1.96110517932639       -0.43967446503241       -4.83203221930952
H           -2.22167613067170       -1.34499865172539       -5.06737132642403
H           -2.59947527509310       -0.12906617003487       -4.16898927272083
O            1.22747163495108       -0.78551799859016       -5.17709668071306
H            0.57419459368120       -0.86765696996485       -4.46136531023579
H            0.67008170435774       -0.58501058999828       -5.94873644697679
O            2.60805957393311        3.26784805520642       -3.69945231967887
H            2.10162056602924        3.82269942489857       -3.07437283674791
H            2.15686304367803        3.34815392539926       -4.55870203662542
O           -0.40722240559183       -2.84628896764660       -4.03567683140033
H           -1.03962582608450       -3.55470076160226       -4.26188946314023
H            0.39945875050157       -3.00664068315263       -4.55327550586470
O           -0.00187333177854        1.77486657998236       -4.93418944807980
H           -0.84768241161873        1.33560619548563       -5.11308272697189
H            0.49839148789313        1.75742166674434       -5.76270918538367
O           -2.21576549976561        3.12374670090841       -3.93665399714943
H           -3.02665940884519        2.59665952830249       -3.92806883871263
H           -2.41915110306070        3.99435969784108       -3.56693703156275
O            3.51479194881867        0.25140265778100       -3.71422913874456
H            3.29590212022530        1.09707413337845       -4.13884148810576
H            3.08953637353599       -0.43015049753102       -4.27175522507222
34
 energy: -56.650068275420 gnorm: 0.037486314677 xtb: 6.7.1 (edcfbbe)
C            0.01486070414070       -0.52023135645654        0.59564765707535
C           -0.00307582298450        0.15187065134525        2.03844264436493
O           -0.00373214155737       -0.67569071664153        2.97662187890996
O           -0.03205512120540        1.39524279733613        2.09340088408819
C            0.02163848052514        0.54064875154350       -0.48778003809034
N            0.06808450434207       -0.04293510175168       -1.86028011500212
H            0.90787015134179       -1.14204630944743        0.58222255625795
H           -0.86675106970678       -1.15714780825276        0.56624439229739
H           -0.86741133464899        1.16264318322709       -0.37576344229115
H            0.89437177185535        1.17889092763500       -0.34120288954485
H           -0.71824156475371       -0.68963707159901       -2.00256798404361
H            0.93925550115983       -0.57886953612938       -1.96751087564766
H            0.05128223460930        0.68830647140013       -2.58719142519285
O           -1.95686968942672       -0.41019282146610       -4.80597792942033
H           -2.21163874235905       -1.30282530015101       -5.07315859837322
H           -2.62616429931320       -0.10128343428088       -4.19397057408802
O            1.23633146994209       -0.81954957328599       -5.19622980159911
H            0.56589298371891       -0.92390351856447       -4.50489546609695
H            0.72700375201866       -0.64978373877316       -5.99404249468574
O            2.60544022327284        3.27674934370882       -3.73983334733553
H            2.10663683269483        3.81858531645204       -3.12009544438689
H            2.13898389574323        3.34054711417182       -4.58308525345265
O           -0.43315441683442       -2.88633613391633       -3.99345017030393
H           -1.04918020185171       -3.60112709685250       -4.20257788151816
H            0.36920797861051       -3.04566922273893       -4.50172237465009
O            0.04906881639009        1.76691272174086       -4.90380875925184
H           -0.80563949890993        1.32554783619442       -5.04680665680738
H            0.50871876778130        1.76582783348521       -5.76070220778391
O           -2.28606316796049        3.13106641277148       -3.88731021265883
H           -3.13202844770758        2.65094080561525       -3.88407547791396
H           -2.44851686522423        4.01735531939240       -3.52704888579951
O            3.52136981470902        0.22555156931915       -3.69688049985879
H            3.32637258076348        1.10662363868370       -4.06071394170378
H            3.05575592082114       -0.40641995371267       -4.28405726549229
34
 energy: -56.654059558177 gnorm: 0.032789347829 xtb: 6.7.1 (edcfbbe)
C            0.02245337191850       -0.51159297392145        0.56820140567768
C            0.00275004781250        0.14855570152594        2.01862571626108
O           -0.01284761068817       -0.67549031660213        2.94856642195409
O           -0.04349971582554        1.39292420962808        2.08650545140705
C            0.03287897941670        0.54826828493439       -0.51462967898454
N            0.09983047146105       -0.02632257414239       -1.88783556556191
H            0.91525716620868       -1.13392157372168        0.55772517233595
H           -0.85938603898331       -1.14919876316310        0.53389750251872
H           -0.86437197897366        1.16180887809809       -0.41134281852033
H            0.89920497306886        1.19324719237372       -0.35498026472741
H           -0.67407822224707       -0.68723223735799       -2.04051897543454
H            0.98632636139780       -0.53935126234485       -1.99889739257106
H            0.06924979548294        0.71298975903243       -2.60831565987183
O           -1.94937443677352       -0.36687126337303       -4.78673352533025
H           -2.17715444755593       -1.25468140533414       -5.07980582101314
H           -2.65381671505594       -0.08712601403668       -4.20130194634491
O            1.25391200663783       -0.90025898170761       -5.20888843474784
H            0.53022495438638       -0.95934922981130       -4.55283815831424
H            0.80682416452269       -0.67659311598884       -6.04488020817074
O            2.61150012816831        3.26913982973130       -3.80434281167549
H            2.15140877953666        3.80191302178437       -3.14899884716801
H            2.08430950546696        3.33428925579678       -4.61457957356211
O           -0.47580745116685       -2.90970410226680       -3.96539898767482
H           -1.05559881356719       -3.65925218533055       -4.13693604128856
H            0.34196713918559       -3.09551370222037       -4.42686325383562
O            0.08375198952266        1.76845655666462       -4.86332657574387
H           -0.76009592138821        1.31974753804707       -4.99888531477828
H            0.53130356656155        1.74937406551751       -5.70819910374015
O           -2.37166502443583        3.15711281104990       -3.85783221493943
H           -3.20503361965291        2.68913469890883       -3.81011261540277
H           -2.51388015981572        4.02494936059635       -3.47656475571478
O            3.52515377294302        0.21460283555173       -3.68728633928471
H            3.32104288559695        1.10937381769020       -3.98756314342156
H            3.01488409682886       -0.37376611560619       -4.26582364233138
34
 energy: -56.656762678125 gnorm: 0.055588010123 xtb: 6.7.1 (edcfbbe)
C            0.02796785619674       -0.49789330599774        0.53770926870994
C           -0.01436788774118        0.13428665802199        1.99233285011329
O           -0.01036252957214       -0.68257601547536        2.92016677949906
O           -0.02890811946195        1.37432158051715        2.07941277444874
C            0.04524979750222        0.56031042431074       -0.54572589125483
N            0.13536449297671       -0.01240955840023       -1.91453535842913
H            0.92057958809193       -1.12192185270277        0.53002076858181
H           -0.84921477371445       -1.14204113735340        0.48971060572509
H           -0.85853098412813        1.16374420010986       -0.45353249127815
H            0.90071873702346        1.21310660042280       -0.37020104684892
H           -0.62536236670529       -0.68375567204313       -2.07872044577915
H            1.03316384766228       -0.50248413902718       -2.02944301779822
H            0.09086178663137        0.73079159710706       -2.63046533625206
O           -1.92983120427351       -0.32058528006105       -4.75784367377778
H           -2.11498507864311       -1.20795498653514       -5.09631533490021
H           -2.69029576401593       -0.08804161489792       -4.20158336094892
O            1.25897823535318       -0.91166729000032       -5.22954566516988
H            0.54281709529862       -0.99149903060221       -4.59228369630256
H            0.84849535460689       -0.74249698714638       -6.07145599265428
O            2.60953795013956        3.24639442975723       -3.86983635139341
H            2.20667114439004        3.79061771231093       -3.17608271877950
H            2.02783125251895        3.33082928520713       -4.64527939283794
O           -0.53935579338439       -2.92295206235824       -3.94637497263906
H           -1.05917837800344       -3.73960626721231       -4.07525858207786
H            0.32493990937089       -3.12782065058547       -4.33599589686438
O            0.12272863537816        1.74811383118674       -4.80609462046042
H           -0.72331699939484        1.30832839373953       -4.92104584555325
H            0.52914492595110        1.73890804889784       -5.66710950724787
O           -2.44814949013516        3.15709044672355       -3.81968851515421
H           -3.30919714303552        2.74447369104437       -3.75103814534587
H           -2.53700732597990        4.02979731160081       -3.43535115216952
O            3.51362422506889        0.18915119803003       -3.67893952601747
H            3.32805548195991        1.14796508308879       -3.87603423699833
H            2.93895752206118       -0.32286264167494       -4.30373227214420
34
 energy: -56.658206190662 gnorm: 0.068712504091 xtb: 6.7.1 (edcfbbe)
C            0.03343042412650       -0.48218411008598        0.51219103961038
C           -0.01955951291237        0.11826841162526        1.96297234080694
O           -0.01529670215900       -0.69198679778554        2.89730564551057
O           -0.02370715268474        1.35407633732082        2.06877301648931
C            0.05513515550013        0.57685068809859       -0.57190347561533
N            0.16346507326828        0.00005682874490       -1.93357322540196
H            0.92347513988088       -1.11129037630350        0.49977138791965
H           -0.83984527339706       -1.13307918870325        0.44970597613409
H           -0.85171359085609        1.17215334994542       -0.48892610265310
H            0.89913019657272        1.23624712335668       -0.38365332300504
H           -0.58694544050266       -0.67550704195794       -2.10719957808997
H            1.06491442372262       -0.47377157851646       -2.05182857834834
H            0.10877532607607        0.74138117985087       -2.64899834418460
O           -1.90552428608132       -0.29845339577286       -4.73551477348188
H           -2.07489094835519       -1.17821368320866       -5.09293567419068
H           -2.69555552275253       -0.08010297560576       -4.20491965096371
O            1.26302822910579       -0.92292094627567       -5.23109379466920
H            0.53411946354664       -0.99921237109312       -4.62090978142822
H            0.89009702643593       -0.77680200094168       -6.08476357720823
O            2.60662012003179        3.21697556163069       -3.89567766073403
H            2.23146779599665        3.77874804570479       -3.20900141729902
H            2.02488536100728        3.30236190893163       -4.65213370301917
O           -0.56285935693116       -2.96608501525793       -3.90318846681039
H           -1.07583422508938       -3.74740376263449       -4.04555219494816
H            0.31127671830500       -3.14759372843769       -4.29502274522471
O            0.15538950079362        1.71622790082640       -4.75127656028417
H           -0.70747894097655        1.28715079117777       -4.82650135340191
H            0.49987329255793        1.73885073425673       -5.65832206617872
O           -2.49986153437098        3.13593461272506       -3.79030127303544
H           -3.41720842849149        2.80163226903691       -3.71679485062721
H           -2.51274504385565        4.03495083989413       -3.41285017872445
O            3.43947971170003        0.22288205364042       -3.65323166565448
H            3.31176253651486        1.13167452909063       -3.88634517679877
H            2.94032446426569       -0.29215419327402       -4.26846021448982
34
 energy: -56.659631764133 gnorm: 0.067951846177 xtb: 6.7.1 (edcfbbe)
C            0.04036607066569       -0.48537694542008        0.49563580625640
C           -0.00760180912629        0.11592393921760        1.94504547034800
O           -0.01748693415209       -0.70867952055002        2.87881353935971
O           -0.03186960644641        1.35396113452762        2.05135428722429
C            0.06127498565797        0.58364764131164       -0.58093193812285
N            0.18227779944226        0.01204831347147       -1.94664139597654
H            0.93183665624106       -1.11155745790404        0.47932376811938
H           -0.83251598006977       -1.13572021198264        0.42845662923936
H           -0.84908404122204        1.17372170633594       -0.50204495175804
H            0.90032321934302        1.24775805633957       -0.38557815466228
H           -0.55916067876632       -0.67357199284127       -2.12576684337805
H            1.08834607799837       -0.45285655933181       -2.06208948288149
H            0.12364387124963        0.75180102369668       -2.66303934328434
O           -1.89470246252005       -0.31217495211553       -4.72786534771560
H           -2.08803721710840       -1.17485690685898       -5.06921339525645
H           -2.66339220782178       -0.05345385467665       -4.22804004872176
O            1.28375963268379       -0.99135901656797       -5.19516910596788
H            0.44460490366353       -0.97780107298104       -4.64070262669156
H            0.98518981056167       -0.75286635908415       -6.11706671244305
O            2.61581784317456        3.21462130447622       -3.91798916915409
H            2.24643707007550        3.76968236302102       -3.23199462456836
H            2.01640052416467        3.28434877899853       -4.66097141454787
O           -0.58481390663010       -2.96925168264417       -3.89691725455629
H           -1.08420281235137       -3.78940122293004       -3.98261554475718
H            0.28270245950801       -3.15186129236033       -4.28288812225174
O            0.16964878278518        1.71212489837424       -4.72208022053595
H           -0.70008872640883        1.26740043386531       -4.76605593914045
H            0.49434325526567        1.73612884825274       -5.64439298824059
O           -2.53236694843208        3.13950976705946       -3.76795588332427
H           -3.45020274881580        2.81285053899447       -3.69971702565115
H           -2.53471829560971        4.03658807201326       -3.39126552401555
O            3.38934075256750        0.21322329398448       -3.62868680360513
H            3.35348273794999        1.16361804793651       -3.84493330624054
H            2.88807192247428       -0.25850711362473       -4.32617633309764
34
 energy: -56.661315891794 gnorm: 0.064326412771 xtb: 6.7.1 (edcfbbe)
C            0.04650584316041       -0.49091683533297        0.47888642296885
C            0.01048543996528        0.11770416767151        1.92529466675564
O           -0.02523709700454       -0.71932601569972        2.85683019419947
O           -0.04748094617950        1.36304098494530        2.03382411078853
C            0.06582613557390        0.58838325948771       -0.59045843704677
N            0.19874598080720        0.02369312546263       -1.96064575194371
H            0.94063873785670       -1.11299883860840        0.45571857577043
H           -0.82840196540522       -1.13797711384445        0.40625395953498
H           -0.85050449725711        1.17375413314097       -0.51645730365173
H            0.90275487617711        1.25743959394513       -0.39006003423549
H           -0.53574195750044       -0.67317725723942       -2.14317118402739
H            1.11216376796734       -0.43375363989068       -2.07150160209949
H            0.13886255315041        0.76335626201418       -2.67862355432299
O           -1.87634204034049       -0.30893690757385       -4.68876083694379
H           -2.05738119675361       -1.17209310128056       -5.08174721575184
H           -2.67579204749597       -0.05229309007882       -4.23167619879428
O            1.27427329932943       -0.95400426380588       -5.22506900422402
H            0.50874077635018       -0.99319522651282       -4.64117507597273
H            0.92986935945590       -0.79369946242322       -6.10135221938592
O            2.64513677853237        3.21216981951492       -3.94834248698904
H            2.29483219300168        3.74922941576212       -3.21678035072976
H            1.96806746681301        3.26667603661340       -4.66539013943184
O           -0.59013235022283       -2.95889154256853       -3.89995945439125
H           -1.08537069266054       -3.81135811526663       -3.92934464805482
H            0.26091514167938       -3.15256590137193       -4.28462963811406
O            0.13902298798176        1.72764595158161       -4.70711299168032
H           -0.70194701201019        1.25136981608879       -4.77729861026636
H            0.51435591366756        1.70765764643601       -5.57145214195384
O           -2.55575392880728        3.17298135757095       -3.75906361819155
H           -3.41227303504763        2.79483704861310       -3.67270218601057
H           -2.59899353896738        4.02829910923181       -3.36185867108707
O            3.36665935699582        0.22527178036904       -3.61844367486518
H            3.33862546735243        1.16901850635833       -3.83605555945112
H            2.85249422982543       -0.23767870330630       -4.31783534040055
34