166
 energy: -276.778393436928 gnorm: 0.707745487634 xtb: 6.7.1 (edcfbbe)
N            0.06495200000000       -0.17036600000000        2.24069000000000
C           -0.42508700000000       -0.28387700000000        0.86827900000000
C            0.36773000000000        0.64114900000000       -0.07116600000000
C           -0.13442900000000        0.59759400000000       -1.52314500000000
C            0.09666800000000       -0.71348800000000       -2.23073300000000
O            0.72724600000000       -1.73996500000000       -1.62853300000000
O           -0.27063500000000       -0.83895900000000       -3.38700000000000
H            1.07233000000000       -0.44720500000000        2.28653100000000
H           -0.04872800000000        0.81071300000000        2.58374800000000
H           -1.50104700000000       -0.00273500000000        0.84068300000000
H           -0.33838800000000       -1.34087900000000        0.54567800000000
H            1.44982600000000        0.38979400000000       -0.04170700000000
H            0.24571000000000        1.68308900000000        0.29572000000000
H           -1.21792700000000        0.84024100000000       -1.53588800000000
H            0.40005500000000        1.38331800000000       -2.09874700000000
H           -0.48827700000000       -0.80842500000000        2.85559100000000
O            3.87030700000000       -1.97290200000000        3.71581600000000
H            2.92391200000000       -2.18120600000000        3.91966700000000
H            3.93119400000000       -0.98807600000000        3.79962100000000
O           -3.19620100000000        2.79383600000000        3.83162200000000
H           -2.41823300000000        2.18119700000000        3.82448900000000
H           -3.98351200000000        2.19571900000000        3.77675000000000
O            3.79575800000000       -0.66850800000000       -1.04689800000000
H            3.82290600000000       -1.65130000000000       -1.16519600000000
H            3.84404700000000       -0.30640100000000       -1.96731100000000
O            3.81004700000000        1.11538800000000        0.34055400000000
H            3.42826700000000        0.26765100000000        0.68143000000000
H            3.89354900000000        1.69011000000000        1.14263600000000
O            1.37777100000000       -3.98768300000000        3.04256200000000
H            1.80714100000000       -3.83164900000000        3.92114400000000
H            0.41577400000000       -4.09410700000000        3.25196400000000
O            3.61450300000000       -3.77134500000000       -3.78951700000000
H            2.62476900000000       -3.79333300000000       -3.81304500000000
H            3.84255100000000       -3.88657700000000       -2.83278900000000
O            1.58748200000000        3.23123300000000       -0.44810700000000
H            1.27314700000000        3.78928900000000        0.30712600000000
H            1.95253300000000        3.88016100000000       -1.10098100000000
O           -2.17148700000000       -0.62754500000000       -2.83284500000000
H           -1.95105800000000       -1.56035600000000       -2.58407700000000
H           -2.22559500000000       -0.64062400000000       -3.82153800000000
O           -2.40059600000000       -3.80073700000000        2.99739000000000
H           -1.82899600000000       -3.91259400000000        2.19653300000000
H           -1.77667400000000       -3.88697200000000        3.76152300000000
O           -0.26962500000000       -3.23931500000000        1.15787100000000
H           -0.25111000000000       -2.70504500000000        1.99143100000000
H            0.46338600000000       -3.89599900000000        1.26775200000000
O           -0.38697300000000        1.53591900000000       -3.92515600000000
H            0.38642400000000        0.92655600000000       -4.03071800000000
H           -1.09366500000000        0.97215200000000       -3.52097000000000
O            2.20208300000000       -3.52615400000000       -1.75412300000000
H            1.40128400000000       -3.85823100000000       -2.23272000000000
H            2.40698100000000       -2.65867500000000       -2.18552800000000
O           -2.69686200000000       -2.18941200000000        1.65094300000000
H           -2.29828800000000       -1.83241100000000        0.81769600000000
H           -2.05493500000000       -1.93641100000000        2.36124800000000
O            2.02246100000000       -0.75146900000000       -2.78056000000000
H            1.91770600000000        0.10151600000000       -2.28857100000000
H            1.68274200000000       -0.55661500000000       -3.69008500000000
O           -1.64247700000000        3.80439500000000        0.56928300000000
H           -0.69629100000000        3.54077100000000        0.44340600000000
H           -2.01314600000000        3.84400300000000       -0.34813100000000
O           -2.45781400000000       -3.18545400000000       -3.79093300000000
H           -1.70185500000000       -3.82402600000000       -3.75402300000000
H           -3.26576700000000       -3.75788900000000       -3.80295800000000
O           -3.87707400000000        0.99330500000000       -1.29517100000000
H           -3.14434000000000        1.16038900000000       -1.93999400000000
H           -3.42596500000000        0.94061900000000       -0.41520600000000
O           -3.38202000000000       -2.26235700000000        3.81559700000000
H           -4.01394500000000       -3.02377000000000        3.85472300000000
H           -3.82512800000000       -1.60227700000000        3.22520500000000
O           -2.08754200000000        1.89495100000000        1.01875500000000
H           -1.73216600000000        1.86727000000000        0.09487600000000
H           -1.28703100000000        2.01595700000000        1.58897600000000
O            2.87927700000000        3.96386200000000        3.90034900000000
H            3.84622300000000        3.78881200000000        3.77794000000000
H            2.45579200000000        3.07080900000000        3.83927600000000
O            0.51525200000000        2.62284000000000        3.89265800000000
H           -0.43474300000000        2.37763600000000        3.75851300000000
H            0.53099300000000        3.60945200000000        3.80922600000000
O            1.36940300000000        0.33349700000000        4.08006700000000
H            1.87650800000000        1.16375000000000        3.89530800000000
H            2.04348800000000       -0.38888200000000        4.01380500000000
O            0.40853300000000       -1.96033400000000        4.20441700000000
H            0.99619900000000       -2.07613300000000        3.41584100000000
H           -0.42260000000000       -2.44380100000000        3.96758200000000
O           -2.42194300000000       -3.66839200000000       -0.98510100000000
H           -2.36086200000000       -2.68001900000000       -0.98547300000000
H           -2.58033500000000       -3.90753200000000       -1.93290800000000
O           -0.47793200000000       -3.28216800000000       -1.24478600000000
H            0.12371500000000       -3.85009600000000       -0.70064500000000
H           -0.59179000000000       -3.78196600000000       -2.09204700000000
O            2.75859000000000        1.60801600000000       -1.28209800000000
H            3.70083300000000        1.64398900000000       -1.58457900000000
H            2.25674400000000        2.10857800000000       -1.97361900000000
O            3.90952400000000        3.88999100000000       -0.72160100000000
H            3.57023300000000        3.10063300000000       -0.22925300000000
H            3.84584200000000        3.63337300000000       -1.67591000000000
O            2.12186600000000       -2.19355000000000       -0.27057300000000
H            2.38143400000000       -1.35286600000000        0.18383400000000
H            1.26623400000000       -2.45201400000000        0.15569400000000
O            0.20142900000000       -2.82557900000000       -3.66088300000000
H            1.12593700000000       -2.47413300000000       -3.70968200000000
H            0.28901000000000       -3.78615400000000       -3.88502200000000
O           -3.25122800000000       -0.90075900000000       -1.16514200000000
H           -2.34359500000000       -0.68737500000000       -0.83155500000000
H           -3.76384200000000       -1.14159800000000       -0.35283900000000
O           -0.04281000000000        3.94450400000000       -3.77690800000000
H            0.64639600000000        3.23515900000000       -3.82626900000000
H           -0.90319800000000        3.46018300000000       -3.85292800000000
O           -2.87518800000000        3.82641300000000       -3.82637000000000
H           -2.59517500000000        3.88620800000000       -2.87841000000000
H           -3.83407000000000        3.58228300000000       -3.78690100000000
O           -1.86868100000000        0.26994100000000        3.80444500000000
H           -2.19219200000000       -0.66215100000000        3.88904100000000
H           -1.99940100000000        0.49211600000000        2.84832600000000
O            2.87385700000000        3.90343800000000       -3.90086100000000
H            3.82996800000000        3.79123900000000       -3.66875500000000
H            2.39500500000000        3.79036700000000       -3.04148400000000
O           -3.48168400000000        0.42150900000000        1.51113200000000
H           -3.88546700000000        0.84282000000000        2.31117400000000
H           -3.78726000000000       -0.51979600000000        1.54552300000000
O            3.13138500000000       -3.89499200000000       -0.02249200000000
H            3.81440600000000       -3.18942500000000        0.10505500000000
H            2.55925200000000       -3.83505500000000        0.78353800000000
O           -1.77801300000000        3.79527100000000        2.83860000000000
H           -1.60012100000000        3.99516800000000        3.79201800000000
H           -0.88291900000000        3.78977700000000        2.41505600000000
O            3.80065300000000        0.95930400000000        3.40851000000000
H            3.90619900000000        1.90329500000000        3.12859600000000
H            3.31261300000000        0.53178300000000        2.66040900000000
O           -3.94033700000000       -1.53843900000000       -2.92152500000000
H           -3.77177300000000       -2.38681900000000       -2.43939700000000
H           -3.86541000000000       -1.77829800000000       -3.87937000000000
O           -3.82417400000000        1.56628500000000       -3.77465800000000
H           -2.87041800000000        1.83130600000000       -3.80157400000000
H           -3.80574900000000        0.57700200000000       -3.73475400000000
O            1.47675100000000        2.14172400000000        2.20787800000000
H            1.91502700000000        1.85526000000000        1.36736500000000
H            0.73919200000000        2.73349700000000        1.91389800000000
O           -3.43594700000000       -3.80212000000000        0.73169600000000
H           -3.85284800000000       -3.81694500000000        1.62979600000000
H           -3.86607300000000       -3.03828700000000        0.27108200000000
O            3.32854600000000       -3.84487300000000        2.63714600000000
H            4.00276400000000       -3.37650500000000        2.08336500000000
H            3.76296100000000       -3.94995800000000        3.52080500000000
O           -3.29642900000000        3.37317700000000        1.60757400000000
H           -3.90245100000000        2.61885000000000        1.39700700000000
H           -3.78694900000000        3.90399200000000        2.28450700000000
O            3.45507000000000       -1.57885200000000       -3.89408500000000
H            3.66469500000000       -0.61169900000000       -3.92990000000000
H            3.99196600000000       -1.92116300000000       -3.13568000000000
O           -0.74586900000000        3.64675200000000       -1.87340000000000
H           -1.26140700000000        2.80127600000000       -1.87498400000000
H            0.20176800000000        3.35952300000000       -1.88322500000000
O            3.11826800000000        3.32682900000000        1.97461200000000
H            2.33459800000000        3.93211800000000        1.98447700000000
H            3.84900900000000        3.87329900000000        1.58990300000000
O            3.11321400000000        1.93031800000000       -3.77209300000000
H            2.32815500000000        1.32801500000000       -3.81113500000000
H            3.87224500000000        1.33446600000000       -3.54973200000000
O           -3.76072100000000        2.90131600000000       -0.57515000000000
H           -3.80658600000000        3.00770900000000       -1.55860700000000
H           -3.99391100000000        3.79492000000000       -0.21778800000000
O            2.85515100000000       -1.33223900000000        2.11831500000000
H            3.72602300000000       -1.44653600000000        1.66100800000000
H            2.39307400000000       -2.19895500000000        1.99221800000000
166
 energy: -277.190947351754 gnorm: 0.441955749946 xtb: 6.7.1 (edcfbbe)
N            0.06385029481182       -0.17483377303914        2.22636426501963
C           -0.42798713419089       -0.28969212476800        0.85710809239385
C            0.36651359466860        0.63810581511848       -0.06420099181844
C           -0.13341603103354        0.60085341498814       -1.50370112026149
C            0.08591879739922       -0.72201469783765       -2.21490042335277
O            0.66317319924032       -1.69111482660659       -1.61594044510633
O           -0.22711856289082       -0.81757195751581       -3.41598797411704
H            1.06586345320128       -0.44094024302822        2.28240570076436
H           -0.03897790208416        0.79754360120501        2.58133831392019
H           -1.49122968257593       -0.00508208234377        0.83845422599424
H           -0.33621283649781       -1.33278358344644        0.53579524602234
H            1.43869633081179        0.38857823764282       -0.04453209156128
H            0.24736373815739        1.67284034099254        0.28879755048838
H           -1.21040503139173        0.83601613678835       -1.53512224896538
H            0.39596222314661        1.37534209396274       -2.08536971795722
H           -0.47820930122176       -0.79699217127496        2.85469636131420
O            3.89535674570715       -1.96887720388008        3.78987391931652
H            2.94120548543868       -2.17445108799503        3.92774912483744
H            3.93926328209879       -0.99127135599161        3.80907726522881
O           -3.21779516591310        2.76744216526700        3.87268564563496
H           -2.43391812546279        2.17516510114637        3.82867210633277
H           -3.98854972903210        2.19019175794214        3.78412812332643
O            3.82910991593995       -0.67909479385272       -1.05687043632883
H            3.81795314075758       -1.64696567116010       -1.16692902675575
H            3.84383831150670       -0.31300508814596       -1.95815127311673
O            3.83462942527040        1.10812824843428        0.38053201817852
H            3.43185710718627        0.27394970427521        0.68529895382973
H            3.89458997563885        1.69102677726488        1.15256233793499
O            1.35347370258429       -3.99505642382615        3.05654888175232
H            1.79581396856905       -3.83983412209833        3.91522650659734
H            0.40998369695768       -4.10358449899421        3.25899418579038
O            3.62017395931728       -3.80485843463440       -3.79503269092933
H            2.63945119164997       -3.79507690282232       -3.81501473187694
H            3.83731172624855       -3.89160069545224       -2.84071886399452
O            1.56082802561683        3.25539417365798       -0.44623852490262
H            1.27140807294799        3.79725070315588        0.30404033725092
H            1.94696580307386        3.88234869831832       -1.08803669181120
O           -2.17137812572957       -0.60322519155408       -2.85206247738510
H           -1.95028492471072       -1.53527875002912       -2.59560911583543
H           -2.22056758935804       -0.63983106046503       -3.82213047204038
O           -2.36961851116981       -3.85819857704156        3.00321435558784
H           -1.82325443907072       -3.92416457152608        2.19475424071236
H           -1.77125024271136       -3.89782980298315        3.76441979909279
O           -0.26295357539928       -3.24534073488893        1.17056587454799
H           -0.24743928461294       -2.70807935088602        1.98903604119130
H            0.45820315289707       -3.89354155645259        1.26910234567165
O           -0.39127715643704        1.53329273563836       -3.93935315860022
H            0.37103543133186        0.92873853963453       -4.03749888210651
H           -1.08594647956840        0.97212233253049       -3.52992233623190
O            2.20602196398901       -3.55497027415368       -1.80529041038665
H            1.39658934555196       -3.85639766172285       -2.23845834504250
H            2.39005059708428       -2.66487655363984       -2.18053360682386
O           -2.68427524585123       -2.12776370757297        1.64886537227992
H           -2.28878709378480       -1.83050249012728        0.81581059456514
H           -2.05060155260716       -1.92132010555959        2.35625661508695
O            2.06296860801809       -0.69104745049323       -2.80491596094249
H            1.91904799568804        0.11638223124140       -2.27981844987930
H            1.68498762374291       -0.55140599092606       -3.69140599130902
O           -1.60122744974723        3.87532724458108        0.54143220151844
H           -0.68777099752789        3.55079410834403        0.42653074535156
H           -2.00520905053918        3.85063804939451       -0.34642785628234
O           -2.45681492905771       -3.20753838998282       -3.79931730233563
H           -1.70370029469304       -3.82134999871396       -3.75963493651161
H           -3.26084193135946       -3.76086892397961       -3.80834947724960
O           -3.88748631467623        1.01333877754046       -1.30223885051133
H           -3.15553269909073        1.15378220760233       -1.93423318871571
H           -3.44017913061592        0.94739174850871       -0.42434783009601
O           -3.42424160156218       -2.22747475953252        3.85776316596698
H           -4.00885616921274       -3.01123189140845        3.85789364796614
H           -3.83247461689084       -1.60273695100001        3.23025164537618
O           -2.05723049929328        1.83534829100322        1.01457431573738
H           -1.72962390169651        1.86235200099479        0.09946683159791
H           -1.28783422068669        2.01370535572466        1.58563239987459
O            2.88485603100919        3.96881641050837        3.96027900036004
H            3.83407769382944        3.79578558516749        3.78918091893776
H            2.45727989883550        3.08524930385511        3.84626779680218
O            0.48927968437005        2.64159118691270        3.93745809699392
H           -0.43503120451821        2.38013594193566        3.76668961693430
H            0.52746020505183        3.60700629568380        3.81710599048297
O            1.38503173810800        0.33078404606397        4.10399189562416
H            1.87059645301574        1.15373221478536        3.89956538853743
H            2.04242544715822       -0.38169992680554        4.01996111105492
O            0.40112247897057       -1.96723091444272        4.20420246329737
H            0.99025679981763       -2.07689656817294        3.42406361277935
H           -0.42036638346916       -2.44038247929242        3.97382219308070
O           -2.47593492123005       -3.67442444509522       -1.00959705897495
H           -2.36466062555052       -2.69268127973485       -0.99067825697317
H           -2.58266105584724       -3.90625544195946       -1.94021644869624
O           -0.45880841260674       -3.31746229555896       -1.24283832670664
H            0.13104196371844       -3.85692086144231       -0.70462655530685
H           -0.58455221438819       -3.78164749842173       -2.08491859518299
O            2.75411216516906        1.60243818205445       -1.31928232576281
H            3.69157469876806        1.64247582316749       -1.58381689273330
H            2.25706897780669        2.10627621270801       -1.98272030864560
O            3.92410097138383        3.89287622237294       -0.72567962182664
H            3.57491211634780        3.10779296747107       -0.23600625425171
H            3.85186322677590        3.63893424870392       -1.66624564119784
O            2.11968559852949       -2.15823293717345       -0.22129410002595
H            2.37044968721207       -1.32991160610579        0.19671330416140
H            1.26448324138622       -2.43990273070370        0.15407226614159
O            0.21093902694872       -2.85334817398138       -3.69050949395847
H            1.11636127168611       -2.47885962512124       -3.70911357208344
H            0.29872868761678       -3.79949852022542       -3.89437327116971
O           -3.23363647548462       -0.96474421117300       -1.11222592751271
H           -2.34379091318846       -0.69023402827872       -0.81818623100989
H           -3.76840267392016       -1.14507822702005       -0.33077255360184
O           -0.02742569030619        3.95535287662311       -3.82955488201837
H            0.64182575494683        3.24318085756877       -3.83734318874609
H           -0.88776119396180        3.47419805514851       -3.86340391916240
O           -2.88035841399643        3.83544639998594       -3.82074908698492
H           -2.59615102831239        3.89204402018206       -2.88491110812464
H           -3.82609495694995        3.58516047314748       -3.78919613738306
O           -1.87548481369572        0.26699673392056        3.80373708509527
H           -2.19473010116833       -0.65285608898735        3.89409635279033
H           -2.00789212386342        0.49082910217249        2.85406546136928
O            2.87565887371353        3.95646993312867       -3.89184862390257
H            3.81949893909079        3.80021590948273       -3.67514693727112
H            2.39685788450175        3.79994049444891       -3.05055368215629
O           -3.50383139629740        0.40240214288546        1.52347769632717
H           -3.88594681574697        0.83875936198353        2.30536954175595
H           -3.79252247931565       -0.52698623840969        1.54943614673005
O            3.18931400505386       -3.95561297358774        0.02324126608220
H            3.81273353680869       -3.20201610796214        0.10756159430495
H            2.57232975042928       -3.84605833962237        0.78114334205033
O           -1.73412171651175        3.82300934595340        2.85543060872554
H           -1.58824619116652        4.00395799119971        3.79706220535317
H           -0.87135017188542        3.80304258658808        2.41719490506504
O            3.81037897689242        0.96312477709777        3.40193851094542
H            3.90403448629527        1.89542986422591        3.12842329735213
H            3.31646266031602        0.53566544226709        2.66615718574627
O           -4.02691083441600       -1.57540163230762       -2.94783579995907
H           -3.78315621379537       -2.38355403179218       -2.44761291193814
H           -3.87682776033015       -1.78540879365951       -3.88515835062658
O           -3.82076709984863        1.55703278344064       -3.78662409796991
H           -2.87807259607560        1.82724585153909       -3.80764295942520
H           -3.80917504365333        0.58255488086569       -3.73027808611058
O            1.45857715017768        2.11182278180452        2.17590082823138
H            1.91394985015310        1.85111800233449        1.35754546099876
H            0.74748317144359        2.72349132773155        1.90879805415694
O           -3.49493889406138       -3.84200711898136        0.73055873362947
H           -3.85946614062202       -3.82195862475390        1.63286484428340
H           -3.86970824635210       -3.05387119140912        0.27986786549790
O            3.36477092563656       -3.86742352616231        2.62692061821051
H            4.01278063911431       -3.38451344028591        2.08727594881662
H            3.76786322193788       -3.95319319003800        3.51090094672676
O           -3.35898798806464        3.39199852340355        1.60848934641307
H           -3.91429882342368        2.62280408847276        1.39894268398894
H           -3.80529690834334        3.90978628369709        2.28783554787442
O            3.51731649593753       -1.58379962558886       -3.93533039474746
H            3.67256043305277       -0.61735754898601       -3.93864858345399
H            3.99355788870192       -1.91701851538994       -3.14663732483507
O           -0.75957250693320        3.63637765976316       -1.82488493391547
H           -1.25904139409521        2.80102964446026       -1.87258021696682
H            0.18541929872376        3.36390091990211       -1.87432855854694
O            3.14589300836897        3.33976198122486        1.91383182098996
H            2.35715860194931        3.92733791963471        1.98026049178308
H            3.86167971729037        3.88708227333271        1.58022299444928
O            3.11958403797454        1.88905715162460       -3.78096797189819
H            2.33184301088208        1.31870558225867       -3.81424668322828
H            3.87369090251510        1.32199170484993       -3.55278065101200
O           -3.76975866790597        2.94213769299017       -0.59001867934261
H           -3.81347743769372        3.01414918978406       -1.55848499465237
H           -3.99532986260745        3.80760371349629       -0.21969737560168
O            2.82441988111379       -1.30816737807950        2.05401594200135
H            3.71377559868758       -1.44203017179790        1.66464838948131
H            2.39796127008334       -2.19302576704738        1.98922775027518
166
 energy: -277.443531382643 gnorm: 0.269450385342 xtb: 6.7.1 (edcfbbe)
N            0.06408299897469       -0.18173649180786        2.21157171114487
C           -0.42859466570430       -0.29819832680119        0.84494708367796
C            0.36452387469022        0.63285719531193       -0.06012992746473
C           -0.13837678188052        0.60629783770979       -1.48728930475666
C            0.07819690164970       -0.73250563192853       -2.20159419024835
O            0.61019807614681       -1.63219929707905       -1.61089981928770
O           -0.17157590683052       -0.78785588113508       -3.45040860273113
H            1.06100121364053       -0.43351465230190        2.27697313993809
H           -0.02513969900995        0.78222513195839        2.57857066705089
H           -1.47980599126988       -0.00830777256505        0.83492499206689
H           -0.33167861960862       -1.32693768106035        0.52042603625000
H            1.42724723054683        0.38580520154049       -0.04886134239764
H            0.24914517530176        1.65994833153306        0.28068543671071
H           -1.20631343367480        0.83292709635661       -1.53219632968537
H            0.38992753513572        1.36729741571874       -2.07063105353423
H           -0.46583829583225       -0.78323932554679        2.85674137813899
O            3.90760732553282       -1.95626381505597        3.83812421600647
H            2.95815921980198       -2.16505034881767        3.93981436396580
H            3.94885224018597       -0.99060419567542        3.82077147124584
O           -3.23755145519559        2.74153203238474        3.91947119796464
H           -2.45190081977861        2.16770454690213        3.83428547033744
H           -3.99703452925592        2.18390177165617        3.79168034317559
O            3.87499144101213       -0.69343331867497       -1.06548853982832
H            3.81126926540021       -1.64740714920420       -1.16803460838959
H            3.84257984043855       -0.32076250790614       -1.94867428404307
O            3.86175006229093        1.10262299376116        0.42016141338152
H            3.43620666874492        0.28137936419890        0.68763270202364
H            3.89577269718745        1.69679753665846        1.16523306888054
O            1.33026452489356       -4.00369519970821        3.07222063280816
H            1.78451743562079       -3.85257502813076        3.91118891485867
H            0.40169002807955       -4.12042776316940        3.26808690401585
O            3.63201431681224       -3.84819926058354       -3.80678719092183
H            2.65988822753227       -3.79928545917332       -3.82226791894839
H            3.83316058405536       -3.90085819198017       -2.85220506594890
O            1.53078922939234        3.28316093473219       -0.44560148760715
H            1.26779828816201        3.81083438982504        0.30351380290759
H            1.94081702049641        3.88813706850824       -1.07409906228818
O           -2.19555847279120       -0.58534216461144       -2.87457234680200
H           -1.95454817476487       -1.50496868172972       -2.61002705490379
H           -2.21819168819828       -0.64078261859594       -3.82746830384751
O           -2.34450508588033       -3.90753935999077        3.01254778012791
H           -1.82350511939037       -3.93127161963347        2.19247531527628
H           -1.76645961681460       -3.90775472810685        3.77120681213405
O           -0.25671161413264       -3.25196537559885        1.18570649361787
H           -0.24181972967915       -2.71021939431608        1.98817906942751
H            0.45284059338353       -3.89399801070716        1.27072343298792
O           -0.39869848607835        1.53689714637867       -3.95532674962680
H            0.35056046315902        0.93007454262662       -4.04918004479575
H           -1.07920514881443        0.97270259363673       -3.54300834922323