166
 energy: -278.881371393370 gnorm: 0.000274670611 xtb: 6.7.1 (edcfbbe)
N           -0.73956256452989       -0.19467634372270        2.48811412888946
C           -0.75587308741843       -0.67149508550203        1.10043070375262
C            0.40462977461849       -0.02199709591834        0.35327123897693
C            0.20518683500517       -0.01031489819062       -1.15354995776363
C            0.46238002218226       -1.31652507783706       -1.86762639552651
O            0.66223491220690       -2.38281507167850       -1.22409524743554
O            0.44959038919511       -1.29424698890486       -3.12363201620814
H            0.15325962538743       -0.44831374941744        2.94648867540385
H           -0.80906333069797        0.84273668815603        2.46927129272544
H           -1.70389621426972       -0.39221449526096        0.63904869943379
H           -0.67823956371845       -1.75820192356693        1.07342130572674
H            1.33862931055163       -0.52850609528880        0.59085677101371
H            0.48950917708774        1.01467922809583        0.67560190449735
H           -0.82266741189115        0.26402510721318       -1.39204595505243
H            0.85864188624017        0.72485797271058       -1.62262151847862
H           -1.52389032033640       -0.59630764096720        3.04106006947343
O           -1.51530433866070       -4.07125878511397       -1.35690989598740
H           -0.69715389333578       -3.55140843872541       -1.26145473511632
H           -1.86873676187796       -4.17121587694078       -0.44590300817433
O            0.62790146057229        0.71652035460665       -4.85558969613393
H            0.48483025530487        0.03828879458315       -4.15986916239720
H            1.59082200059844        0.84350028276458       -4.91513854566338
O            1.45148896769550       -3.62629533173420        3.50996919410558
H            1.63445501856519       -3.37518261925473        2.58596673788063
H            1.89417193433211       -4.46596595041141        3.65066908819536
O           -2.49406406457798       -4.15479313917054        1.18695466119623
H           -3.19027071233990       -3.48683458308936        1.35277140375859
H           -1.96251311210830       -4.15881556439177        2.00360363130108
O            1.63241619793980       -0.48765979815663        3.95612856353286
H            1.34255040920650       -0.94751379599821        4.76018395915603
H            1.38665092614738        0.44548735464431        4.11100107730805
O           -2.62407523041586        1.86266067674347        4.46822720216183
H           -1.65159426487313        1.67848755496667        4.46837379320250
H           -2.68168421535275        2.80049955623513        4.21812067786375
O           -1.37757084970004        2.95707040822533       -2.59874386100078
H           -0.54244768156653        3.27383036233515       -3.00835862372619
H           -1.35011721524976        1.98870246129843       -2.65435407606123
O           -0.73945165997048        4.21175296212047       -0.23366011344880
H           -0.62401380832364        3.52433001385938        0.46397400711730
H           -1.09620564500643        3.73403081434221       -1.00756988063151
O            3.27012900533152        0.76048909594722       -5.68112477573522
H            3.31088218975393        0.96403838691938       -6.61994057883760
H            3.27058200550311       -0.22089691836317       -5.61880441234748
O           -1.21477340039443       -3.92765055085004        3.63925818776672
H           -0.24859733554197       -3.73588100629844        3.61163414916471
H           -1.35187385557252       -4.56183474848309        4.34570180703697
O            0.92714515017393        3.72188834168915       -3.81368348550060
H            1.42141040248753        2.92013023158470       -3.56460394504108
H            0.61445808666455        3.59264525701039       -4.72670485612602
O           -2.64147930425655       -1.60192717383678        3.86022780078015
H           -2.16471238957065       -2.44952693065857        3.77236477125597
H           -3.38682325157026       -1.65642398906874        3.24148063277304
O            1.73480721271329        4.56113634589675       -1.21568042673424
H            0.81940240787705        4.52981505457611       -0.83995473740398
H            1.59082847847346        4.70804770259934       -2.15866207989246
O           -2.17809152349068        0.36439472260754       -3.24116948717349
H           -2.21587938235757        0.34207355516832       -4.21677753168393
H           -2.34132183285986       -0.55798051945147       -2.97299406995272
O           -3.05032837280045        4.96480189270943        1.05769455686689
H           -2.19966695187014        4.95787410176369        0.57182224919430
H           -3.42118891895762        4.08081658212391        0.85833354778423
O            0.03968606318541        1.71297789971183        4.52352366231358
H            0.34831170490839        1.70587436295555        5.44751885354589
H            0.37797473750607        2.53425885057881        4.13808745418276
O           -4.38175264202267       -2.22788619810620        1.75828359433423
H           -5.29856174032752       -2.47733548390258        1.63018531808687
H           -4.16934203760972       -1.58301136655117        1.05037662251507
O           -1.21410222491516        1.18364542781905       -8.06102327530047
H           -0.88401759164856        1.94048682051130       -7.53087695739812
H           -0.50347597723555        0.52488678549728       -8.03117771591240
O           -3.84525790735762       -2.62584870662680       -5.17079428324991
H           -4.14896941721982       -1.77147230453867       -5.50074775016993
H           -2.99069069364076       -2.77572820514693       -5.60756028038713
O            0.97550386196437       -3.33289230169971       -4.67664492077621
H            0.74098592259427       -2.57872014761352       -4.06522111407960
H            1.37137035358316       -3.99410245809636       -4.08819251955145
O            4.40470524180393       -2.32503358400213       -3.15641791769392
H            4.00828659825457       -1.62321675227049       -2.58920730152745
H            5.34312483075734       -2.33001790292047       -2.94852330359968
O           -2.96784430980407       -2.16585551307041       -2.58996290508262
H           -3.36688142620907       -2.45811352505778       -3.43103438794086
H           -2.47067894742794       -2.93002424771220       -2.22793226612470
O            1.56606762872927        3.94551681807365        3.76497865407734
H            1.77374420860822        4.82812745983474        4.07329071312735
H            2.25144436203816        3.34771691050950        4.13389472570776
O           -3.84296353736823       -0.71291856627656       -0.41216826340191
H           -4.30637869935826        0.01077581001391       -0.85112581293856
H           -3.56227232515878       -1.30697524864517       -1.12755490327439
O            3.92783282755283       -1.23815617139849        1.21070224234269
H            4.24603208029079       -1.32371404526208        2.12708724899860
H            3.26493594440972       -1.94917983224870        1.10945904487915
O           -4.20380632177720        0.70546142454158        2.58964519620299
H           -3.56054981842876        1.02841790089317        3.26161396210818
H           -5.06985733119601        0.92341698092120        2.93502434542873
O            1.68217449095068        2.92771938547850        1.17021217026017
H            1.49180946742375        3.38117014517044        2.00992639368946
H            1.93015292206463        3.60377585949637        0.53281717506800
O            0.65413044269797       -0.73377818687074       -7.11871763188309
H            1.48017122003396       -1.22220750887522       -7.04460531439708
H            0.58618100591767       -0.21442248418226       -6.27489663130046
O            3.62808727553544        1.39270980977993        2.11909559734101
H            3.57134141430094        0.49754996640596        1.75252546331615
H            2.91198056038367        1.91116809794546        1.68509562109270
O           -2.51465171188215        0.06521056442229       -5.91594377514424
H           -2.17933562401050        0.50939706159568       -6.72220852570691
H           -2.08472326794494       -0.80626401250767       -5.92730993206684
O            3.26816679739225        2.01655337886441        4.69468284532722
H            3.27404463383798        1.63822854756420        3.77919744290365
H            4.20535773341639        2.07855720214037        4.90783669705628
O           -2.91067520924475        3.02927208422275       -4.84213008910835
H           -3.08845815614392        2.09822017560593       -5.02498321759902
H           -2.45988259888177        3.05606431263571       -3.96392387924980
O           -2.35630155832460        4.47272152050729        3.59026394648826
H           -2.66680412761708        4.71830187830140        2.68391863095933
H           -2.43553957298566        5.26044029639650        4.12852845224627
O           -1.85575939685810       -1.14545083324770        6.46477933629799
H           -2.21050479636395       -1.25480767888540        5.56098797024234
H           -2.21505881633852       -0.29488021984288        6.77842672025231
O            5.85033806464731        1.15549432880217        3.87713537264077
H            5.42726074017146        0.28321079597771        3.98859421566983
H            5.45725100396043        1.48389940211587        3.05430345471614
O           -4.24370588825045        1.60405243600562       -2.02282374839402
H           -4.51375707642226        2.34210557974140       -2.57391193595346
H           -3.47958949132085        1.18654196634800       -2.48678186391013
O           -3.08990590826786        1.25589258630337        7.03435530493957
H           -4.03920553429195        1.20666723769174        7.16515621284455
H           -2.95462662309825        1.54406737394743        6.09607285004304
O            1.51110726098783        1.38564399000434        6.79284252777582
H            1.34993013153126        0.42211377022820        6.77277474610229
H            2.24651550959278        1.54339754139419        6.17278062344181
O            3.12823154502207       -1.93804302628443       -5.58686437944818
H            3.70339061272694       -2.10527611755770       -4.81896316173328
H            2.31163894531325       -2.43942664907453       -5.36578620337033
O           -0.47086734598030        2.89302546052471       -6.06125480860907
H           -0.21100059739157        2.06060900987721       -5.61215476295782
H           -1.37248532802299        3.08540126719083       -5.72464483390088
O            3.36495148798675       -0.52155424323406       -1.48745253381218
H            3.69622566630044       -0.57120269076000       -0.57850744901988
H            3.12501867168013        0.40795244191437       -1.65478877270681
O            2.58617540509839        2.06417993573152       -2.23751969642163
H            3.40044997810696        2.26041704937955       -2.73354375546530
H            2.40645554143550        2.84945570965268       -1.68662326267470
O            0.79974962680437       -1.28005747734245        6.47940672517638
H            0.97361357411631       -1.92724737163197        7.16406586915000
H           -0.18649765107151       -1.19220904381551        6.43920249734228
O            2.40154497418386       -4.15961619259016       -2.38212431858116
H            3.15898406273094       -3.61368042945282       -2.65853836396756
H            1.76520654075473       -3.52374594524684       -1.98832477011816
O            4.23530662744898       -1.13221567685353        3.95904917550335
H            3.28689109691407       -0.83174629060432        3.93827628510990
H            4.27827364345144       -1.80847000309913        4.63707122820545
O            4.68443999238920        2.42517126107115       -3.98608166756729
H            4.84479460439403        3.23496382155004       -4.47780331475375
H            4.26571067682478        1.79856610708803       -4.60672619161862
O            2.09391966047469       -3.24609946913002        0.84978182302142
H            2.45266142098142       -4.01147460204464        0.39224562987114
H            1.49711762882109       -2.82601626813641        0.19469361016502
O           -1.22104549453263       -2.47767270048268       -6.20252587460811
H           -0.61993060385987       -2.96094313338605       -5.61471606079963
H           -0.61534299113581       -1.91656151343336       -6.73295612917152
O           -1.08270333495706        2.49317088610459        1.85354045130781
H           -1.28994927433229        3.13631035231783        2.54134865168529
H           -1.92242342356053        2.34006420840423        1.37683457060141
O           -3.46985240137303        2.31756323237814        0.56401829034886
H           -3.69909043280611        2.03176781676981       -0.33400209327804
H           -3.82008441531690        1.64156334578148        1.18544619745403
