166
 energy: -276.952169270390 gnorm: 0.615108637399 xtb: 6.7.1 (edcfbbe)
N            0.06495200000000       -0.17036600000000        2.24069000000000
C           -0.42508700000000       -0.28387700000000        0.86827900000000
C            0.36773000000000        0.64114900000000       -0.07116600000000
C           -0.13442900000000        0.59759400000000       -1.52314500000000
C            0.09666800000000       -0.71348800000000       -2.23073300000000
O            0.72724600000000       -1.73996500000000       -1.62853300000000
O           -0.27063500000000       -0.83895900000000       -3.38700000000000
H            1.07233000000000       -0.44720500000000        2.28653100000000
H           -0.04872800000000        0.81071300000000        2.58374800000000
H           -1.50104700000000       -0.00273500000000        0.84068300000000
H           -0.33838800000000       -1.34087900000000        0.54567800000000
H            1.44982600000000        0.38979400000000       -0.04170700000000
H            0.24571000000000        1.68308900000000        0.29572000000000
H           -1.21792700000000        0.84024100000000       -1.53588800000000
H            0.40005500000000        1.38331800000000       -2.09874700000000
H           -0.48827700000000       -0.80842500000000        2.85559100000000
O           -1.52671800000000       -3.77773400000000       -1.68825100000000
H           -1.30654600000000       -2.86338400000000       -1.99825000000000
H           -0.76446400000000       -4.03407700000000       -1.11043600000000
O            1.10599900000000        1.08250600000000       -3.96308200000000
H            0.12174900000000        1.00869200000000       -4.04316700000000
H            1.41297700000000        0.15329100000000       -3.81163000000000
O            1.69446700000000       -3.20943700000000        2.43053400000000
H            1.97663800000000       -2.27204200000000        2.28127000000000
H            0.95276400000000       -3.35030200000000        1.78971700000000
O           -2.07001700000000       -3.49611500000000        0.30595300000000
H           -1.73546500000000       -2.63811500000000       -0.05808200000000
H           -1.42136600000000       -3.73444900000000        1.01522200000000
O            0.80520700000000       -0.76644800000000        4.38042400000000
H            0.92613100000000       -1.66449300000000        3.98104600000000
H           -0.08436800000000       -0.80535600000000        4.81373000000000
O           -2.76916600000000        1.30218500000000        3.53084200000000
H           -1.85102200000000        0.93461900000000        3.48066800000000
H           -2.65131700000000        2.27956700000000        3.42384500000000
O           -0.87380500000000        2.75951500000000       -3.38416600000000
H           -1.25229800000000        3.66365700000000       -3.24316700000000
H            0.10686100000000        2.89656700000000       -3.37297300000000
O           -0.57011500000000        3.29044300000000       -0.56869900000000
H            0.40545700000000        3.42648800000000       -0.67049800000000
H           -0.83848300000000        2.79821400000000       -1.38497200000000
O            2.70063100000000        0.44506300000000       -5.31140700000000
H            2.50360400000000        1.06155400000000       -6.06089300000000
H            2.78156800000000       -0.44528800000000       -5.73724200000000
O            0.07722400000000       -3.43334300000000        3.58556400000000
H           -0.49615000000000       -2.79425400000000        3.09218900000000
H           -0.13029600000000       -3.26749500000000        4.53952500000000
O            1.94890700000000        2.88641200000000       -4.15050200000000
H            2.09602100000000        2.95556900000000       -3.17367800000000
H            2.64483400000000        2.25458000000000       -4.46209000000000
O           -2.17058800000000       -1.46271300000000        3.71514700000000
H           -2.21344800000000       -2.39789500000000        4.03796200000000
H           -2.96098900000000       -1.02417400000000        4.11957500000000
O            0.51305300000000        5.07392500000000       -1.79847800000000
H           -0.44678700000000        4.83315800000000       -1.83522900000000
H            0.96439800000000        4.37747400000000       -2.33871600000000
O           -2.52444500000000       -0.31129300000000       -2.51873800000000
H           -2.00819100000000        0.13921200000000       -3.23367800000000
H           -1.88541500000000       -0.95285600000000       -2.11792700000000
O           -2.93441600000000        3.68254900000000        0.39163000000000
H           -2.54948500000000        3.57035600000000       -0.51382700000000
H           -3.43657800000000        2.84451500000000        0.55332300000000
O            0.02523200000000        1.06028000000000        5.52546800000000
H           -0.26568900000000        1.87838600000000        6.00157700000000
H           -0.20513500000000        1.22979000000000        4.57741200000000
O           -2.62546700000000       -2.42187000000000        1.92480200000000
H           -3.24522100000000       -1.98427200000000        1.28838700000000
H           -1.77064200000000       -1.93453600000000        1.81348700000000
O           -0.08524400000000        0.40661800000000       -7.50463500000000
H           -0.46390300000000        1.12470000000000       -6.93755000000000
H           -0.50036800000000       -0.42472500000000       -7.16235700000000
O           -1.94848700000000       -1.66440500000000       -4.09568800000000
H           -2.65877300000000       -1.18070400000000       -4.58776300000000
H           -2.15456600000000       -2.62211900000000       -4.24036000000000
O           -0.60006900000000       -3.73525900000000       -3.65371100000000
H           -0.23326700000000       -2.81596500000000       -3.68476600000000
H           -0.05146500000000       -4.19836400000000       -2.97166800000000
O            3.20462900000000       -1.92207400000000       -2.75962700000000
H            2.48846800000000       -1.43120900000000       -3.23583800000000
H            3.43984200000000       -1.33796300000000       -1.99536200000000
O           -3.66379300000000       -1.84330200000000       -1.91049500000000
H           -3.48099600000000       -2.03285300000000       -2.86509800000000
H           -3.19772600000000       -2.56654100000000       -1.42027200000000
O            1.77677200000000        3.02768100000000        4.24156900000000
H            1.54958300000000        2.81023800000000        3.30257200000000
H            0.94007700000000        2.86085100000000        4.74428300000000
O           -3.48209600000000       -0.25782600000000       -0.67358800000000
H           -3.28490300000000        0.56326000000000       -0.15634100000000
H           -2.82016400000000       -0.91963000000000       -0.35036200000000
O            3.70821900000000       -0.77663900000000        0.47937900000000
H            4.09368200000000        0.10693700000000        0.70592300000000
H            3.16202800000000       -1.01888700000000        1.26906500000000
O           -3.65819600000000       -0.00356700000000        1.72502400000000
H           -2.87567300000000       -0.27905400000000        2.26574100000000
H           -3.65057200000000        0.98590500000000        1.76374600000000
O            0.83047100000000        4.03222700000000        1.18747300000000
H            1.03841900000000        4.33087600000000        2.10843800000000
H            1.68453900000000        4.13044600000000        0.69601300000000
O            0.82536400000000       -0.86037500000000       -5.73022000000000
H           -0.03570000000000       -1.16306200000000       -5.34608400000000
H            0.76862000000000        0.12818200000000       -5.71803400000000
O            1.64776200000000        1.37419000000000        1.68783700000000
H            2.46782900000000        0.82280200000000        1.62402400000000
H            1.93640200000000        2.28081300000000        1.41336300000000
O           -1.95091300000000        0.22223600000000       -5.94727900000000
H           -2.27949500000000        1.14391400000000       -6.09944600000000
H           -1.39422100000000        0.28890100000000       -5.13102900000000
O            1.78718500000000        1.05661300000000        4.57949200000000
H            1.81688400000000        0.85236600000000        3.61098100000000
H            2.71190200000000        1.33094500000000        4.80366500000000
O           -3.31383600000000        1.46438500000000       -3.96719400000000
H           -3.43142700000000        0.66312700000000       -4.53707900000000
H           -2.42818500000000        1.82450700000000       -4.22516300000000
O           -1.29446200000000        4.43828400000000        2.02011400000000
H           -1.99482800000000        3.77641600000000        2.24821200000000
H           -1.14426900000000        4.31587500000000        1.04899500000000
O           -1.79367300000000       -1.31895700000000        5.71590600000000
H           -1.23660700000000       -2.13633500000000        5.76260400000000
H           -1.41025400000000       -0.71781200000000        6.40309400000000
O            3.40498600000000        1.91331900000000        3.01868100000000
H            3.76458700000000        0.99815600000000        3.13604700000000
H            3.79043000000000        2.22320700000000        2.16076800000000
O           -2.90352700000000        1.91561700000000       -1.57937600000000
H           -2.56618500000000        2.46074200000000       -2.33412700000000
H           -3.57002500000000        1.30906400000000       -1.98984700000000
O           -1.97157600000000        0.96313400000000        5.47643400000000
H           -2.85624100000000        0.53020000000000        5.37373700000000
H           -2.14768000000000        1.92601600000000        5.32657700000000
O            1.50760500000000        0.78951300000000        6.84237700000000
H            2.13916300000000        0.20405000000000        6.35352400000000
H            1.66942100000000        1.69334600000000        6.47154600000000
O            1.19862400000000       -2.71344400000000       -5.07705100000000
H            2.07114100000000       -2.24967900000000       -5.01188100000000
H            1.34822800000000       -3.58679400000000       -4.63490700000000
O            0.02732300000000        2.77804400000000       -5.36780300000000
H            0.72583600000000        2.12557200000000       -5.62658800000000
H           -0.80441900000000        2.24322300000000       -5.31503500000000
O            2.48458600000000        0.40189200000000       -1.75257500000000
H            3.17883600000000        0.40307900000000       -1.04644100000000
H            2.39764400000000        1.35233100000000       -2.01662100000000
O            2.31737800000000        2.66660200000000       -0.51144300000000
H            3.24621100000000        2.32403700000000       -0.48847600000000
H            2.34278600000000        3.40875300000000       -1.16656200000000
O            1.16735300000000       -1.54216100000000        6.18842900000000
H            0.70502700000000       -2.41679100000000        6.14496900000000
H            0.55195300000000       -0.96153200000000        6.70298300000000
O            1.92877500000000       -3.33149400000000       -1.77298500000000
H            1.63678900000000       -3.16038600000000       -2.70361700000000
H            1.21123300000000       -3.89457900000000       -1.38739200000000
O            2.80166800000000       -0.67399000000000        4.44746300000000
H            2.78567800000000       -0.89264700000000        3.48177900000000
H            2.69778400000000       -1.54788800000000        4.90147000000000
O            4.10597300000000        0.75642800000000       -2.86839700000000
H            4.02536800000000        1.71037400000000       -3.12157700000000
H            3.48603700000000        0.28432200000000       -3.47946800000000
O            1.85300700000000       -2.38383300000000        0.28836600000000
H            2.21453800000000       -3.30440400000000        0.23881000000000
H            2.32264800000000       -1.89370100000000       -0.43262000000000
O           -0.98077400000000       -2.54056500000000       -6.44551300000000
H           -0.74796200000000       -3.01342200000000       -5.60717200000000
H           -1.69353000000000       -1.90545300000000       -6.18240600000000
O           -0.68962500000000        2.60055400000000        3.20419800000000
H           -0.66035900000000        3.45563800000000        3.70278100000000
H           -0.21270800000000        2.79065000000000        2.35742300000000
O           -1.53096200000000        2.35841800000000        0.91683400000000
H           -1.76690500000000        1.83825800000000        0.10789900000000
H           -1.82085400000000        1.78748300000000        1.67222000000000
166
 energy: -277.301785314773 gnorm: 0.373467425361 xtb: 6.7.1 (edcfbbe)
N            0.05005906095630       -0.17692557759353        2.23220645152137
C           -0.43021664434071       -0.28819720345603        0.85721899797664
C            0.35917055825516        0.63363464750873       -0.07408783095819
C           -0.13437474078482        0.59955501547081       -1.51024159953134
C            0.10464696193322       -0.70936694772930       -2.21410617046821
O            0.67569696305483       -1.70043001983643       -1.62839842161737
O           -0.24441670397923       -0.83221808035949       -3.39409745872178
H            1.05106668260843       -0.44410306642044        2.28637029547339
H           -0.04570935445835        0.80071776346199        2.57898910721467
H           -1.49224190802986       -0.00690595181199        0.83659422083595
H           -0.33143746145892       -1.33523703967654        0.53938529147414
H            1.42604107965899        0.38034933260784       -0.04999851324797
H            0.24433019364822        1.66525102188102        0.28722242418200
H           -1.20642799812967        0.83615589477451       -1.53566841304216
H            0.39392260782365        1.37099602477331       -2.08762125332919
H           -0.49110848109403       -0.80144921958055        2.85593574132344
O           -1.51910720260719       -3.78376422419161       -1.70486500664352
H           -1.30454562025697       -2.87336803501215       -1.99807100118407
H           -0.77396739193105       -4.03297822979868       -1.12041970606431
O            1.08482491651872        1.05487597869584       -3.95194795675181
H            0.12011519693355        0.99682892592919       -4.03277270101385
H            1.40211229520736        0.15095068754764       -3.80835103197760
O            1.72966007771431       -3.21316606959072        2.41029366121628
H            1.97799133652335       -2.27923412428262        2.27699325754698
H            0.97255313637358       -3.34814992143445        1.79917582200266
O           -2.05038752753664       -3.52279713190460        0.29637255270454
H           -1.73768828889999       -2.65453870787048       -0.04980339347779
H           -1.42609478057803       -3.74015370503271        1.01248215113421
O            0.75034217805361       -0.78175116769800        4.32703295360201
H            0.91184410973257       -1.67730187422043        3.98137972138704
H           -0.09697165035547       -0.80548027347625        4.80194014146312
O           -2.78145924555704        1.31675822275568        3.48873495237154
H           -1.86758651260843        0.94083215016193        3.48585258737684
H           -2.65160616017648        2.27735828624455        3.42283271705537
O           -0.88581273795815        2.77313233549367       -3.34751645248436
H           -1.25072035785730        3.66594711942949       -3.24830423281287
H            0.09122114852573        2.89450548004266       -3.38114336356107
O           -0.56166658600230        3.31395997668460       -0.60621834985816
H            0.40077204332980        3.42283726190767       -0.67138043833153
H           -0.83201207578987        2.79689876882945       -1.38619269378750
O            2.75158657265998        0.44898905444918       -5.33593274874329
H            2.50957142300498        1.05373981531400       -6.06190363094555
H            2.78340895798046       -0.43770630750136       -5.73969342933143
O            0.03321823786945       -3.44218961709425        3.61312069141332
H           -0.50361523461240       -2.79844609527195        3.10499948281978
H           -0.14333133665678       -3.26895335481747        4.54670501264401
O            2.00022237946964        2.94702251040087       -4.14336063579586
H            2.10459342818297        2.95591466363431       -3.17491580272306
H            2.63662894269757        2.26577891050159       -4.45781713683601
O           -2.17339883156568       -1.45197266360826        3.72168119640611
H           -2.21868910834596       -2.38147678259687        4.02709693407679
H           -2.95405874745924       -1.02620541535024        4.11361730015327
O            0.51932968703567        5.08359019283082       -1.81723013481287
H           -0.43310785413613        4.84094788473970       -1.82921317011219
H            0.95868224995309        4.38773177097948       -2.34392526602013
O           -2.50197237037584       -0.27968717529360       -2.52977802441609
H           -1.99407938434905        0.14594815923099       -3.23371087629624
H           -1.89618679949519       -0.93544627604408       -2.12923919727470
O           -3.00913919183900        3.72425956545259        0.35956432395092
H           -2.55951625867815        3.57539562004449       -0.50232926864442
H           -3.44060141694792        2.86237361481175        0.54560748367956
O           -0.00350157210597        1.08266486687538        5.52521768146506
H           -0.27037788463561        1.87933957721960        6.00200933483479
H           -0.21232677867961        1.23709090402034        4.58095316990757
O           -2.65085795420520       -2.40075360853024        1.93635782103678
H           -3.24982331382279       -1.98569013458973        1.29444485510017
H           -1.78967901986773       -1.93886783435018        1.81250793343385
O           -0.09119913236125        0.41782385907214       -7.52735447975573
H           -0.45852162772106        1.12114373546103       -6.95210244551030
H           -0.48999608693983       -0.41332693097438       -7.17742841161232
O           -1.97655740812739       -1.69577506844133       -4.13493246988060
H           -2.66963673698482       -1.19265409639593       -4.59420742099247
H           -2.16356129130699       -2.63581247247924       -4.24741290804569
O           -0.57029046399472       -3.74624490887609       -3.68858629093267
H           -0.23558893307273       -2.81786779607776       -3.68250720969431
H           -0.05673992265646       -4.19719676232350       -2.98749314461290
O            3.23194573235874       -1.89893128041267       -2.78232972495911
H            2.49253263101325       -1.43563217227459       -3.22509636976591
H            3.43650170259193       -1.34325171725249       -2.00388915459152
O           -3.70696858144163       -1.91077003167860       -1.91695037413500
H           -3.48568665491001       -2.04531877940145       -2.85884116548465
H           -3.20438733726532       -2.58295503369881       -1.42510946076599
O            1.75443297116172        3.13189488259177        4.22890666955219
H            1.55120718677219        2.81394950722670        3.31529101382441
H            0.95300318583008        2.86729924585139        4.73803592460197
O           -3.49902575559856       -0.25221146612399       -0.62629940002494
H           -3.28578754471875        0.56605598892556       -0.14817596051659
H           -2.82978131583384       -0.90588202088922       -0.34574293092592
O            3.71716303048824       -0.76263482764461        0.48920062693702
H            4.09918244977444        0.10447625321035        0.71020446208660
H            3.16820608593037       -1.02024000789182        1.25895852233160
O           -3.66209863621261        0.00075778451882        1.72708600512369
H           -2.88931367152328       -0.27852441931995        2.26717504135361
H           -3.65528495503249        0.97641480856491        1.76834489677225
O            0.85636459244597        4.03595440294010        1.20016415692379
H            1.04151410515448        4.33712691702683        2.10571147619521
H            1.68552731117194        4.13543239093324        0.70143741881012
O            0.81303324440866       -0.84382238607859       -5.73559167197620
H           -0.02574745981917       -1.15834344711975       -5.34685691266022
H            0.76481345167039        0.12735252738180       -5.71771141630257
O            1.66737202975303        1.38775008246646        1.70685570734542
H            2.46094020817834        0.83058469887390        1.62005035166274
H            1.93055984902232        2.27608746961221        1.41034306861230
O           -1.96686469231047        0.23054149198768       -5.93448730463216
H           -2.28132774283599        1.13825710091516       -6.10253310533980
H           -1.39618626878752        0.28293060219895       -5.13684306712219
O            1.82039015442893        1.05538941477546        4.56948960409165
H            1.82133521428297        0.86259779108020        3.61310711598725
H            2.71801089324143        1.33305175923198        4.79574151332345
O           -3.32545239351408        1.47798874791531       -3.99756819667452
H           -3.43459718964287        0.67084709644038       -4.53363501859960
H           -2.43528730010373        1.82599410916112       -4.21794097865322
O           -1.31672725688863        4.47640955481644        2.01964410249967
H           -1.98853003107751        3.79672339922612        2.24008311827596
H           -1.14638731174313        4.32116140331562        1.06459688806251
O           -1.78484592456008       -1.33375070460133        5.77154354838084
H           -1.23510612701717       -2.13528193236561        5.77620518003676
H           -1.40537249397425       -0.71808112395719        6.41540757085194
O            3.45725830516057        1.91915826067431        3.01896236875742
H            3.77222506707700        1.00356194229412        3.13826338830206
H            3.80219324295163        2.22513881471618        2.16359756057442
O           -2.91613030572518        1.93892237941532       -1.58019325283898
H           -2.57107410017181        2.45598478781900       -2.33010850792660
H           -3.55891379602818        1.31734693775228       -1.98240907283719
O           -2.02011010278428        0.97098493846767        5.52959779676831
H           -2.87317871904237        0.53495878697092        5.37891120138539
H           -2.15669740862221        1.91837395117079        5.33438849620837
O            1.56578560797484        0.79807481320363        6.90627519298237
H            2.13020226982056        0.20848967448545        6.36052502665193
H            1.67368746359449        1.67804899717334        6.48359777388967
O            1.22603611806441       -2.74434671518132       -5.06568113253289
H            2.07071467212820       -2.26262873236402       -5.00940756377076
H            1.35882090777953       -3.60088154576000       -4.63554326141303
O            0.01859208194793        2.77899802576258       -5.42595262978883
H            0.72112261473142        2.13260229634199       -5.62797674809800
H           -0.79668945549609        2.24996005077163       -5.32093765397649
O            2.44723087807840        0.39917637678602       -1.71169606857548
H            3.16889747763023        0.39554996866513       -1.05163913897362
H            2.38940261904999        1.33442430272114       -2.00709449207026
O            2.33500230858370        2.68293325966524       -0.51911209435126
H            3.24304464671302        2.32994673458365       -0.49033883609808
H            2.34820467125978        3.41016174485464       -1.16296877884478
O            1.17924184286499       -1.58483649931434        6.26385480313452
H            0.70391878408052       -2.42426096070891        6.15727743783277
H            0.56086461220055       -0.96570414046424        6.70335245105740
O            1.94567440529426       -3.40891385402915       -1.79555808055060
H            1.63830716892637       -3.16929649686448       -2.69405291315127
H            1.20995196477804       -3.90094219215326       -1.38878221386288
O            2.89407158480679       -0.72186435096385        4.43744346564315
H            2.79461898010822       -0.90802691927630        3.48389929579839
H            2.70853011956145       -1.55745421598999        4.89902438915405
O            4.16807680645591        0.76978439725680       -2.92330545673498
H            4.03493103716385        1.71143575979808       -3.12958736502692
H            3.50511183276300        0.29586018919062       -3.47864428159306
O            1.86968696066327       -2.38268535329560        0.29953224848006
H            2.21516979310497       -3.29118246436089        0.23841433827699
H            2.30806697795378       -1.90044159001512       -0.42857958312368
O           -0.99657106859870       -2.55132668102693       -6.45070165749992
H           -0.74828402208910       -3.01045823947768       -5.61941717619876
H           -1.68810483086537       -1.91084522196154       -6.18591556960656
O           -0.65883108669736        2.59144290177093        3.22828858780759
H           -0.65896184050460        3.44543038063263        3.69735154469152
H           -0.22105136219208        2.78836068654208        2.36580163738662
O           -1.51242391647719        2.29105063620206        0.94223327245026
H           -1.76793921573540        1.83090455119954        0.11996426875356
H           -1.82919131148071        1.76567381819738        1.68391003601501
166
 energy: -277.517148740779 gnorm: 0.231841229011 xtb: 6.7.1 (edcfbbe)
N            0.03011533735139       -0.18273439063585        2.21649176109868
C           -0.43903479718626       -0.29629970284087        0.84192558864573
C            0.34938731612923        0.62408611508086       -0.07495371801086
C           -0.13636589665737        0.59736434774333       -1.49802514211034
C            0.11358292334041       -0.71987263536770       -2.19493738463248
O            0.63070401806623       -1.67944172430406       -1.62032624614553
O           -0.22390877572062       -0.83336949959328       -3.39998804366954
H            1.02399672949203       -0.43974459290216        2.28264125047626
H           -0.04300260285148        0.79002558311995        2.56910089209954
H           -1.48709728187257       -0.01575628916307        0.82769872097635
H           -0.32187366956375       -1.33289726328147        0.52842616340289
H            1.39978715198358        0.36422615332189       -0.05602694798683
H            0.24317290528629        1.64605243263279        0.27946216163931
H           -1.19618379911655        0.83140678357921       -1.53348008513069
H            0.38631519534559        1.35717190954598       -2.07426309264782
H           -0.49811603429645       -0.79147652065133        2.85511567344431
O           -1.50931114728018       -3.79248546421425       -1.73532005434293
H           -1.30139854243858       -2.88294653785701       -2.00248356776171
H           -0.78680687973940       -4.03557688565150       -1.13479746033498
O            1.07515697731292        1.04776294089327       -3.94954577900201
H            0.12230663289257        0.99128816609424       -4.01990549376048
H            1.39729280662722        0.15945182785336       -3.80883181379626
O            1.75507215459334       -3.21977308533711        2.41193930338773
H            1.97967826801418       -2.29088335907505        2.27758348456934
H            0.99768094772151       -3.35183132782383        1.81444519158504
O           -2.03180064253803       -3.54961944430098        0.30156051546709
H           -1.74042309431560       -2.67656055581561       -0.03585944885265
H           -1.42814995368140       -3.75138758903503        1.01987292201114
O            0.71787214540650       -0.81576915857112        4.30873478461070
H            0.90157636229583       -1.69795163981070        3.98743326255415
H           -0.10248607434255       -0.80427579828808        4.79973206283310
O           -2.78864520611457        1.33636223334059        3.45699335635108
H           -1.88488374659857        0.94824779593089        3.49494137281632
H           -2.65161007156242        2.28231268311901        3.42481441564495
O           -0.89538746510733        2.78754687936969       -3.31885038966550
H           -1.25044670883359        3.67229628834483       -3.25767625923801
H            0.07519642846224        2.89191819389966       -3.39485879165790
O           -0.56470002220289        3.33814466131761       -0.64109478126519
H            0.39131979881304        3.41534669690779       -0.66292135722762
H           -0.82893860382774        2.79288330265569       -1.38851359028545
O            2.80939493001137        0.45680308049300       -5.36181467986301
H            2.51906200213794        1.04706146744580       -6.06688857639068
H            2.78532572155016       -0.43022732640411       -5.74165058510812
O           -0.01139048415991       -3.45350652018124        3.63486827779191
H           -0.51452483444202       -2.80346198856436        3.11832280643724
H           -0.15504024295564       -3.27285613217088        4.55536754413254
O            2.04828957344856        2.99721763294288       -4.13456865506229
H            2.11328532917541        2.95331430235406       -3.17413375372607
H            2.62799782012707        2.27850965403802       -4.45561440088631