34
 energy: -56.533272430789 gnorm: 0.202362481045 xtb: 6.7.1 (edcfbbe)
C            0.00071700000000       -0.52255800000000        0.67804400000000
C            0.00015500000000        0.09392700000000        2.05036800000000
O           -0.00019500000000       -0.63013100000000        3.03226200000000
O           -0.00079700000000        1.43155900000000        2.21643300000000
C            0.00098900000000        0.52531100000000       -0.44326000000000
N           -0.00030100000000       -0.11659100000000       -1.75665200000000
H            0.90259300000000       -1.16292800000000        0.57888800000000
H           -0.90264000000000       -1.16023800000000        0.57901700000000
H           -0.90200200000000        1.16741300000000       -0.35103700000000
H            0.90366600000000        1.16894900000000       -0.35172000000000
H           -0.85706900000000       -0.70553200000000       -1.86752300000000
H            0.85322800000000       -0.71006900000000       -1.86779500000000
H            0.00165600000000        0.62088700000000       -2.49702600000000
O           -3.19269300000000        0.44195500000000        1.46280900000000
H           -2.37949300000000       -0.03160200000000        1.77112700000000
H           -2.85070500000000        1.25522400000000        1.01308700000000
O           -1.30034200000000       -2.70029400000000        4.51156400000000
H           -0.62397300000000       -2.87527500000000        5.21336000000000
H           -1.40865500000000       -3.56926600000000        4.04921300000000
O           -2.15615800000000        1.43843000000000        5.33741600000000
H           -2.10213000000000        2.33802900000000        4.92703500000000
H           -2.04663600000000        1.60151000000000        6.30799400000000
O           -2.22111400000000       -0.72231900000000        4.89968000000000
H           -1.25713900000000       -0.50261300000000        4.84406800000000
H           -2.61256600000000       -0.33085500000000        4.07862400000000
O            0.41574800000000        1.40840400000000        6.10357200000000
H            0.03726200000000        1.65288600000000        5.22176200000000
H           -0.08917100000000        0.60095300000000        6.37503600000000
O           -1.12156700000000        3.08693600000000        3.10913600000000
H           -0.43069900000000        3.36008900000000        3.76388700000000
H           -1.86052600000000        3.73210000000000        3.24447400000000
O           -2.14541000000000       -2.15268900000000        2.51270700000000
H           -3.10211500000000       -1.92871700000000        2.63584800000000
H           -2.11640400000000       -2.65764800000000        1.66136200000000
34
 energy: -56.574829653706 gnorm: 0.099608277202 xtb: 6.7.1 (edcfbbe)
C            0.00515717449532       -0.51465672268303        0.66161229014450
C            0.02334052995281        0.09665072854341        2.05550000192074
O            0.05063048914394       -0.63730477655972        3.04940577088970
O            0.05201521861440        1.38246892571682        2.15317913139511
C            0.00187918720737        0.53172532352983       -0.44725564234652
N           -0.00285800679727       -0.11497338293140       -1.77043490540168
H            0.89096538796518       -1.15866111934485        0.58690880512544
H           -0.88498645253569       -1.15256414815350        0.59103811108219
H           -0.88340698107788        1.16840565821310       -0.34026399034673
H            0.88672668338488        1.16970461247688       -0.34187691065955
H           -0.84727850737126       -0.70139479010978       -1.87484643120259
H            0.83731139795911       -0.70647978525884       -1.87747414337673
H           -0.00171734780018        0.60831581783837       -2.50671962717713
O           -3.18595304369629        0.42129561050193        1.42557425853818
H           -2.39460930306660       -0.01295733053649        1.80008650259538
H           -2.85116675360319        1.25414152979216        1.04727937249336
O           -1.27008062547036       -2.78959356095328        4.54911641002666
H           -0.59592282221567       -2.92372284815205        5.23182840065113
H           -1.36303065383728       -3.62925709824856        4.07322025154327
O           -2.20050953949236        1.53005408162452        5.36370392064870
H           -2.09777127443813        2.39839159645659        4.94115921128849
H           -2.05753547441378        1.65848990124476        6.31619072971072
O           -2.24924359395229       -0.71666865222357        4.91318496002972
H           -1.29409820639924       -0.54223283915164        4.81367854764921
H           -2.62230496792032       -0.34803486067601        4.09824736006708
O            0.41765987615360        1.41105491875304        6.10680368259850
H            0.05755636656831        1.61836724457594        5.22446522104551
H           -0.06719431470960        0.61113101778851        6.37366252328477
O           -1.16105858403773        3.12259080713916        3.14160798730166
H           -0.44005168577396        3.37817571792069        3.74355886061980
H           -1.86238598401655        3.78827190245944        3.26003750974616
O           -2.17596849640547       -2.12818905036900        2.43134725852932
H           -3.11409965576344       -1.94900356421521        2.62141516515192
H           -2.16449603665064       -2.67830386500797        1.62881940643364
34
 energy: -56.594041607268 gnorm: 0.034204523390 xtb: 6.7.1 (edcfbbe)
C            0.01869318612257       -0.51737597235261        0.64721932253992
C            0.09054433470341        0.12279415243806        2.05743017737579
O            0.10789065625591       -0.63215925883250        3.04890024949221
O            0.08378292031542        1.36059309716110        2.10477151629542
C            0.00556299558542        0.53345422986980       -0.44622148884298
N           -0.00672515791164       -0.11161458043877       -1.78168920070820
H            0.89220345680721       -1.16504582819923        0.57971215592914
H           -0.87148902867662       -1.14490215941487        0.61070852784817
H           -0.87185975474009        1.16441099666728       -0.33068834424688
H            0.88167402725595        1.16780313574135       -0.34001239787055
H           -0.84368745318956       -0.69677567687426       -1.87619347334476
H            0.82344393077528       -0.70381298887079       -1.88612054560796
H           -0.00807225762573        0.60241440909477       -2.51595534066381
O           -3.18019202981622        0.41570073008625        1.40715503757027
H           -2.41502399538166       -0.01275915190018        1.81293150490390
H           -2.85010474944437        1.25977030516949        1.08034303892996
O           -1.25211023158379       -2.87729755318062        4.58740354810144
H           -0.56630787926651       -2.97524305358037        5.24665836885716
H           -1.32251684251562       -3.69089679782450        4.08838586486298
O           -2.25281182667866        1.61850013033306        5.39462016240847
H           -2.09409403394020        2.45552871974913        4.94533205981380
H           -2.07752791337700        1.72966029520753        6.33107124286801
O           -2.27474029881570       -0.71556855919381        4.92982055080514
H           -1.32495233522345       -0.59220000709807        4.77347206908059
H           -2.65546019246452       -0.36058166788225        4.12664607359708
O            0.41622530879123        1.41357472588433        6.10871747166605
H            0.08218950296161        1.57665986486823        5.21605363277022
H           -0.04429029667534        0.61349061746033        6.37846199368698
O           -1.21013583856647        3.15418746984342        3.18172764333204
H           -0.44383356870704        3.40271211549178        3.71489673636605
H           -1.86166965793403        3.86248651671098        3.26570852188061
O           -2.20260615140122       -2.11999688388079        2.36196980005952
H           -3.12275960568205       -1.97492357691214        2.61612533228619
H           -2.21372521995718       -2.71735079534077        1.60439818795783
34
 energy: -56.606006827146 gnorm: 0.062883752738 xtb: 6.7.1 (edcfbbe)
C            0.03037193910519       -0.52793328988956        0.64038059011271
C            0.09328803340256        0.15193252723531        2.05651558866577
O            0.18956933474636       -0.61124251050754        3.04664962074645
O            0.15672598011037        1.38511474443715        2.06565969618488
C            0.00945137292780        0.52610485067563       -0.44674231026584
N           -0.01104126047418       -0.10929762825260       -1.79320341762533
H            0.90333931186553       -1.17431966706642        0.57673408723441
H           -0.86237177840156       -1.14705519326657        0.62899066634326
H           -0.86877533776033        1.15401533078658       -0.32415777945785
H            0.88344920283054        1.16368852733265       -0.34352236665264
H           -0.84778184763597       -0.69417240706202       -1.87881827931646
H            0.81532703841538       -0.70426655807645       -1.89912245479484
H           -0.01635636278884        0.60383945846045       -2.52710824309466
O           -3.17629112004919        0.38632241401998        1.34494474802080
H           -2.43697021209407       -0.01120437984971        1.84811566007055
H           -2.84562086636566        1.29020748811645        1.14363512384317
O           -1.25558376674820       -2.97134068640797        4.63165812315795
H           -0.52585345375079       -3.02756583900580        5.25495715931712
H           -1.26242928623686       -3.76705591011559        4.09063019884856
O           -2.35317439638460        1.70331091087755        5.43268797083683
H           -2.06856100731730        2.50581052000130        4.93928713888680
H           -2.07747347273928        1.81696776303910        6.35299180918313
O           -2.29365802501591       -0.71543683702192        4.94807118664732
H           -1.34449990215299       -0.65131599185594        4.72313878215394
H           -2.70908903477755       -0.36581920520397        4.15830193313116
O            0.40959526287888        1.41985907383877        6.10925608730477
H            0.10844771667846        1.52434093607928        5.19248932018722
H           -0.02017974004416        0.60725599834022        6.39311335006983
O           -1.26699901314933        3.17646815221252        3.23939132014144
H           -0.43740644709877        3.43850394655558        3.68260810514218
H           -1.84725800985907        3.96668255165248        3.26218166952682
O           -2.22435953062567       -2.10741006250565        2.28754959164558
H           -3.13416055837323       -2.01384272384818        2.62584078902051
H           -2.27815676311890       -2.77590930372480        1.58065453478390
34
 energy: -56.614697144354 gnorm: 0.068305418587 xtb: 6.7.1 (edcfbbe)
C            0.05321533013743       -0.53881205113627        0.63654791081990
C            0.15979316773460        0.18000787288180        2.05691066213877
O            0.23765813727268       -0.58393338618908        3.04559424115759
O            0.23548908220217        1.41836788468665        2.02706765790719
C            0.01875446396520        0.51366241590000       -0.45005738979619
N           -0.01586531238701       -0.11130891456354       -1.80627568874012
H            0.91672151460658       -1.19523266302006        0.56752457090263
H           -0.85325733300341       -1.13715341534206        0.66384051177365
H           -0.86179243223568        1.13897000701468       -0.31594907877673
H            0.89265741833298        1.15522429638358       -0.35456788027380
H           -0.85540266510752       -0.69488510931482       -1.87977197514169
H            0.80752395889036       -0.71028817138431       -1.91691150498865
H           -0.02684689223003        0.60263982404351       -2.54046945000229
O           -3.17079731422191        0.44345774047674        1.41230023873123
H           -2.46083368959776       -0.04080312768722        1.81325840519594
H           -2.84421078012581        1.27884196589464        1.13367535610087
O           -1.26752869572998       -3.08791717959737        4.70594426336976
H           -0.47663409427148       -3.08863244703261        5.27622754861950
H           -1.18242784708432       -3.85825131490769        4.10804282490651
O           -2.43882171482158        1.79470897623037        5.47168388970800
H           -2.07934772514713        2.54814429425343        4.92858816060167
H           -2.07967762000198        1.92085228134193        6.37069047496572
O           -2.30733578539532       -0.71957619114879        4.95764418598393
H           -1.37047998527068       -0.70113861118922        4.67108449583255
H           -2.77622336694732       -0.35342670201011        4.19826523899408
O            0.40014209405509        1.42573023296883        6.09834604698982
H            0.12799788248192        1.47411657357678        5.16464204466220
H            0.00056067150727        0.60324624256662        6.40721805222615
O           -1.30325727385681        3.25825397363188        3.25717584723287
H           -0.45882819178036        3.47195453970694        3.66963532560312
H           -1.85545053968693        4.04933601088971        3.27981013636487
O           -2.25789140803407       -2.13971499889034        2.22509261534614
H           -3.13846006999057       -2.04491740400685        2.61248526744274
H           -2.33362898425994       -2.82628644502915        1.54846699414115
34
 energy: -56.621500862176 gnorm: 0.060420187503 xtb: 6.7.1 (edcfbbe)
C            0.07730852835521       -0.53945031384597        0.63656810699857
C            0.26224494797880        0.19857973176970        2.05621076478452
O            0.24763603099639       -0.55846809921484        3.04142200883884
O            0.28688968353441        1.44395568021861        2.01293837666576
C            0.02623238187248        0.50395919131911       -0.45777781700235
N           -0.02253323078978       -0.11597644928332       -1.81644553448647
H            0.92889953952909       -1.21002235283851        0.55409922342655
H           -0.84316070284994       -1.11986887704698        0.70266839779177
H           -0.85736532580926        1.12752774730517       -0.31230954375462
H            0.90212099385588        1.14895697963874       -0.37250222193927
H           -0.86687638809485       -0.69774813821430       -1.88065802122233
H            0.80074125355684       -0.71770258948956       -1.93452926626684
H           -0.03896231292425        0.60097353596176       -2.55105295803138
O           -3.16987560684900        0.42366158215605        1.33248573933895
H           -2.50218660448515       -0.06228117184382        1.83169083515731
H           -2.82390510902935        1.33227318359279        1.22141138954569
O           -1.23140523533380       -3.17778096070932        4.73824467405923
H           -0.45024976284539       -3.15934787819149        5.30172660390462
H           -1.14850847575979       -3.93709948920708        4.15431599448376
O           -2.41820179397749        1.86077763750770        5.48887162869735
H           -2.15137660690637        2.56925666781430        4.92077050256022
H           -2.11343624193665        2.00507398964217        6.37288193176178
O           -2.29792434827979       -0.73699119761891        4.94556950150058
H           -1.38822777948366       -0.72430319427819        4.63558809463256
H           -2.82347464730915       -0.31773425906941        4.23729381950987
O            0.39848191869017        1.41844431398029        6.07641749347072
H            0.13042301949512        1.44551787758170        5.15141057674412
H            0.00790134113526        0.60337231109214        6.42112677765397
O           -1.36237538464267        3.30008081370469        3.31811229889355
H           -0.46729381032162        3.50820494832221        3.64184781190879
H           -1.84610846580109        4.14684260841594        3.28557786025095
O           -2.28563870291154       -2.17067086471638        2.16239401247213
H           -3.13248355164610       -2.07433680802240        2.61044010127638
H           -2.39179555101447       -2.87243915643508        1.51695083637354
34
 energy: -56.625176081945 gnorm: 0.087475274921 xtb: 6.7.1 (edcfbbe)
C            0.09223217479652       -0.52283382061976        0.63819351299389
C            0.27711604635812        0.21554126666667        2.05373025254361
O            0.27090659860369       -0.53578825844675        3.03853809343003
O            0.35048304039462        1.45250313172564        2.01903926795232
C            0.03023117577710        0.50507121875613       -0.46780161950522
N           -0.02980569944287       -0.12144468519530       -1.82145766214439
H            0.93929252106622       -1.19951764818273        0.55333692948861
H           -0.82392024634019       -1.10415331534612        0.72406009033228
H           -0.85427285211934        1.12438411949339       -0.31756952401991
H            0.90552074316703        1.15147234007999       -0.39318486112503
H           -0.87690594623059       -0.70013435740272       -1.87942502081877
H            0.79207507762000       -0.72368963716723       -1.94810588839989
H           -0.05148435239610        0.59553810650463       -2.55614631717851
O           -3.17114400621810        0.42444361590319        1.29649547786244
H           -2.53181727382956       -0.07743410754853        1.84898836874279
H           -2.80149742827124        1.35685412848565        1.26892830334310
O           -1.20087362311733       -3.24269914807379        4.75738178210301
H           -0.43841539901904       -3.21279120813590        5.32044095837010
H           -1.12017745068919       -3.99059878427381        4.18334219390366
O           -2.54359394205279        1.90536633426163        5.53113131245509
H           -2.12803824295615        2.54589357979641        4.86925181562921
H           -2.07353506828745        2.09773326834109        6.38119152187089
O           -2.29699421326090       -0.74548901024493        4.94059829800416
H           -1.40031043068524       -0.75954249195035        4.59672885089122
H           -2.84523928893386       -0.28708765469685        4.27333605082214
O            0.38879839612013        1.40923018738562        6.06381623342275
H            0.14602559145003        1.40863080966875        5.13249971673166
H            0.00126194739907        0.60412313801107        6.42698629940294
O           -1.37052722961804        3.36661873616071        3.32783971062768
H           -0.48702522794311        3.52829038001914        3.64910913996162
H           -1.84270684683852        4.19773033550407        3.29371692572994
O           -2.29614899465697       -2.17701976297113        2.10253067647153
H           -3.12105672114319       -2.10945194460630        2.63423073392729
H           -2.45293882870480       -2.93451186190464        1.50200837617631
34
 energy: -56.626131712560 gnorm: 0.095784700977 xtb: 6.7.1 (edcfbbe)
C            0.10066757080638       -0.50105617486500        0.64118019399813
C            0.21253334654799        0.22434446453240        2.04619619705268
O            0.30855479897957       -0.51719619482125        3.03852391281388
O            0.41166140116747        1.44934276426223        2.03199022914304
C            0.03274934102813        0.51151611496422       -0.47658020165198
N           -0.03430919350524       -0.12653893226174       -1.82064272706232
H            0.95071900184038       -1.17640946499046        0.56017108024238
H           -0.79789632243025       -1.09708818455471        0.72995227438801
H           -0.85143754100152        1.12548479935657       -0.32640700625209
H            0.90562333866245        1.15863635262151       -0.41059199692898
H           -0.88268631501325       -0.70106154400551       -1.87795574649532
H            0.78568036622267       -0.72740727564152       -1.95753737571001
H           -0.06007811872179        0.59026395829483       -2.55400206378501
O           -3.16895882117945        0.47530141478571        1.37495689325096
H           -2.52489790905169       -0.07884822515081        1.83198421609310
H           -2.80687361617443        1.31911475030000        1.22254127917528
O           -1.22177670055100       -3.30344852137762        4.81239102147778
H           -0.41985783475413       -3.23453699206929        5.33458064992933
H           -1.06280687094916       -4.02577777322565        4.18512082085217
O           -2.55396749805720        1.94168930905011        5.54408364905172
H           -2.14500375595129        2.55374616328841        4.85340876560772
H           -2.09817445917420        2.14935002876355        6.38320781119810
O           -2.30504448441618       -0.73281219769057        4.94024217860873
H           -1.40662670319653       -0.80919829163341        4.53755122776153
H           -2.84689145145237       -0.26743910284811        4.29671801276227
O            0.36453389362299        1.40774731951690        6.06261293448084
H            0.15739027064096        1.36337461413026        5.11204649844730
H           -0.00331519054540        0.59906576101560        6.42922164014465
O           -1.42070521730792        3.35449472431908        3.40178927452759
H           -0.47295451749147        3.54525814771858        3.62047622751844
H           -1.80935157276633        4.28171274393336        3.28082460721685
O           -2.31623278313924       -2.22028672730980        2.08825307712289
H           -3.11521145155972       -2.12602690696849        2.61788597084713
H           -2.46954100113141       -2.96007392144385        1.48956647417106
34
 energy: -56.616647931517 gnorm: 0.158490338449 xtb: 6.7.1 (edcfbbe)
C            0.10627453218843       -0.49756428108004        0.64810361301375
C            0.21419592207229        0.22662925491135        2.04150150764611
O            0.31017889273655       -0.50477896948915        3.04578337863745
O            0.44734480431957        1.45630108184085        2.02538913627072
C            0.03349616616885        0.51091273408201       -0.47624547876352
N           -0.03680246981483       -0.13527990897905       -1.81401212705749
H            0.95915395198635       -1.17061821933176        0.56343516650168
H           -0.78949136890384       -1.09796465418007        0.74076828799165
H           -0.85081763933333        1.12522932879086       -0.32938585406535
H            0.90599837191318        1.16006612477679       -0.41890731883961
H           -0.88542387427015       -0.70897873995253       -1.87135130476681
H            0.78260485537132       -0.73567335154392       -1.95607046747370
H           -0.06454171712684        0.58006254314565       -2.54908578148585
O           -3.16379250357386        0.46454782919714        1.35449921087218
H           -2.52443431802310       -0.07610184892030        1.82404766643676
H           -2.80423386534170        1.33480012685765        1.26505954603918
O           -1.24592196712169       -3.35210026986267        4.85115821132475
H           -0.39327108708362       -3.24098110680248        5.33742583297172
H           -1.02395743905696       -4.06063978663236        4.18215533870743
O           -2.47005371529619        1.96505752420167        5.51776925216750
H           -2.21679362558558        2.58378792132435        4.87792652305426
H           -2.15123167670500        2.14893202398108        6.36279777059667
O           -2.30318530385232       -0.73546228783357        4.93044131632493
H           -1.41555790348854       -0.81466189120641        4.52229532127205
H           -2.83636170939248       -0.24841750356010        4.30660675194447
O            0.35477551029967        1.42274019187323        6.05919273794882
H            0.17054553848750        1.35264757685508        5.09873251565090
H           -0.00060173558285        0.60787681468165        6.42621892447824
O           -1.36414494724922        3.47254858238305        3.30928712569030
H           -0.51370284500929        3.54085402943979        3.65609659485657
H           -1.85760252501177        4.22257720442064        3.33257832085273
O           -2.33587287575446       -2.24667889637437        2.08251390486245
H           -3.11396232944641       -2.13538083426554        2.61285289981827
H           -2.48729510352106       -2.96905134275433        1.48418147651880
34
 energy: -56.630434522399 gnorm: 0.079152439467 xtb: 6.7.1 (edcfbbe)
C            0.10856650760493       -0.50263144627473        0.65096435036024
C            0.34413718865986        0.22780517289447        2.04352387111098
O            0.25995698713254       -0.50587738458453        3.04948869379306
O            0.39923213483214        1.47125317589934        2.01134690926800
C            0.03122894155239        0.51236882663357       -0.47332655938616
N           -0.04048231521181       -0.13436540400970       -1.81239340687682
H            0.96247370712407       -1.17096046992521        0.55582655675217
H           -0.80183138060433       -1.09650229862712        0.74921890453169
H           -0.85331666013075        1.13304500874633       -0.32829756333659
H            0.90658691429283        1.16296407846273       -0.42208502511587
H           -0.88926041007064       -0.71084347261471       -1.86689134081418
H            0.77959371920142       -0.73649633730250       -1.95323920889587
H           -0.06840749114326        0.57920122239575       -2.55109387158460
O           -3.16572443935635        0.44039012630831        1.31786730694800
H           -2.53658148410557       -0.08535085792332        1.81642747082049
H           -2.79321965979166        1.36640309608096        1.31540201954800
O           -1.19280293746658       -3.34987703979652        4.81179087379184
H           -0.40430499733940       -3.25731055496291        5.35400187816513
H           -1.05525555173755       -4.07763401996106        4.21275554468070
O           -2.53138557495780        1.96780802245195        5.52328007603573
H           -2.19881705235226        2.56957318513326        4.85950036530284
H           -2.11415973968336        2.16902104824034        6.36028938184376
O           -2.28704477106241       -0.76583299833505        4.90988361565647
H           -1.42303649253728       -0.78711893784130        4.54007204924409
H           -2.84140930069112       -0.22718522265502        4.30925993582367
O            0.36539435310246        1.40716158437661        6.04475138023504
H            0.16535076887375        1.35735587147066        5.10528183694510
H           -0.00713414479866        0.60231352559399        6.42570302699814
O           -1.40820783061805        3.44548049713033        3.34570646346018
H           -0.49306970895586        3.51831592698655        3.63209140119317
H           -1.83899268996636        4.29054406743801        3.33566672781893
O           -2.32538220297513       -2.22626235148804        2.05347132894114
H           -3.10620746632256       -2.14988714282967        2.63755424632054
H           -2.51097292049966       -2.99163149711735        1.47996076041880
34
 energy: -56.631360152403 gnorm: 0.094862249568 xtb: 6.7.1 (edcfbbe)
C            0.11261771081966       -0.48986674880105        0.65282958452578
C            0.29755448427352        0.23824897061511        2.03872464035818
O            0.27393135890191       -0.48788160920544        3.04722776967327
O            0.44704941741460        1.47328543977416        2.01629484423575
C            0.03001782983312        0.51638542571246       -0.47695232602867
N           -0.04804318617509       -0.13720231646242       -1.81140092553095
H            0.96699259444283       -1.15927158521590        0.55876126475764
H           -0.78851630328252       -1.09112417619417        0.74935982226755
H           -0.85388825073610        1.13497887272612       -0.32959276480048
H            0.90403653913540        1.16624070126070       -0.43005228655063
H           -0.89750522013153       -0.71244660866234       -1.86144753586607
H            0.77067372666876       -0.73929035880294       -1.95633620520935
H           -0.07956041143306        0.57475757445380       -2.55058759420467
O           -3.16924832974019        0.46143442821096        1.32934722087401
H           -2.54807980958658       -0.08960776497036        1.84272317654425
H           -2.77611146264452        1.35511804529159        1.29945059675659
O           -1.19716851354935       -3.38170072734958        4.84755251509022
H           -0.40264240626959       -3.27818437632540        5.36874833824028
H           -1.01450999183041       -4.08795390816564        4.21401114002477
O           -2.61784832222887        1.99368600810970        5.54795100558114
H           -2.17069734067552        2.56454830160639        4.82646861429170
H           -2.08550064533134        2.21733247477935        6.36755791052242
O           -2.28011771892520       -0.74091454680466        4.92834440475188
H           -1.39855466784833       -0.84494669993895        4.45485964644646
H           -2.84957055147331       -0.22678680459198        4.33600283969311
O            0.34910132094489        1.40264815999170        6.04078610597400
H            0.16952817099426        1.32649324151832        5.09236005060630
H           -0.01429448800198        0.59844437469811        6.42786920152059
O           -1.43299050551258        3.42605238417648        3.38504171162743
H           -0.49236534863017        3.52464430748197        3.62406051302551
H           -1.81050148307594        4.34832539412165        3.32068191806006
O           -2.34561418108716       -2.27883429907280        2.06792994867432
H           -3.10702587582700       -2.14823451970989        2.60791028905515
H           -2.50563413943494       -2.98314005426181        1.46727456500956
34