16
	Energy:      -9.2636992
N          1.09785        0.90387        0.64414
C          0.78991        1.91461       -0.36824
C          0.63192        1.30584       -1.77422
C          1.86825        0.57889       -2.33319
C          3.06056        1.47779       -2.51974
O          3.51269        1.66595       -3.63762
O          3.66664        2.04382       -1.45998
H          1.11789        1.36150        1.58374
H          0.36392        0.15907        0.64716
H         -0.17043        2.40753       -0.10195
H          1.56918        2.70395       -0.36322
H          0.34869        2.11639       -2.47930
H         -0.20884        0.57908       -1.74403
H          2.14878       -0.27537       -1.68458
H          1.58224        0.15904       -3.32171
H          2.03575        0.48020        0.46697
