28
 energy: -44.593672197780 gnorm: 0.034039006126 xtb: 6.7.1 (edcfbbe)
N           -0.54429392930000        1.23487507010000        0.11390195640000
C            0.58963679530000        2.12155075600000       -0.20913838470000
C            0.57924504080000        2.51624537020000       -1.68434263600000
C            1.05958698110000        1.41264374500000       -2.63594452930000
C            0.02063196170000        0.35094995980000       -3.05288322090000
O            0.04432594480000       -0.04788050500000       -4.22702173590000
O           -0.78031677570000       -0.07737742070000       -2.17430870550000
H           -0.36591847600000        0.68692794110000        0.98126459340000
H           -1.41127029820000        1.76299166710000        0.21304968180000
H            0.53726407440000        3.01730671960000        0.41012327000000
H            1.51725860970000        1.59600012320000        0.01884507360000
H            1.24483025890000        3.37021504960000       -1.81324311620000
H           -0.42329656030000        2.83153807260000       -1.97908899490000
H            1.89465948650000        0.86495945250000       -2.19103226670000
H            1.41973304910000        1.84993835890000       -3.56905433310000
H           -0.67457199660000        0.57548739820000       -0.70974661370000
O            0.04312473820000       -0.22917099020000        2.38445834000000
H            0.22356010190000       -1.16265872580000        2.24069569880000
H           -0.47763346410000       -0.15338106310000        3.19018350700000
O           -2.69715413240000       -2.01782778470000       -2.68097781020000
H           -2.58826664420000       -2.25016997130000       -3.60724011110000
H           -2.02151731240000       -1.33159731780000       -2.50295611960000
O           -1.75551202770000       -1.82995838470000       -5.29897422510000
H           -1.64661202770000       -2.06235838470000       -6.22517422510000
H           -1.07981202770000       -1.14375838470000       -5.12097422510000
O           -2.57982780720000       -0.32000999720000        0.64553478520000
H           -2.60349491000000       -1.25753778640000        0.85576542670000
H           -3.50424659130000       -0.07707394900000        0.43209411870000
28
 energy: -44.595980023282 gnorm: 0.040609831243 xtb: 6.7.1 (edcfbbe)
N           -0.53151163230895        1.23708864084569        0.11182818605306
C            0.59866089128623        2.12423548141827       -0.21204645899086
C            0.58246818222173        2.51909425676552       -1.68699319682402
C            1.06328289136219        1.41834536290093       -2.64133265646432
C            0.02428042179431        0.36027511455588       -3.06083799885526
O            0.04838075764211       -0.02618985949074       -4.24307480804532
O           -0.77363707226298       -0.07439351701700       -2.18874772505273
H           -0.36257603217228        0.68184434459566        0.97521539725365
H           -1.40114909288712        1.75621690390829        0.21810347380218
H            0.54536419258424        3.01945103671691        0.40803160227662
H            1.52683949266711        1.59947524315629        0.01441217415801
H            1.24579898835106        3.37461416388064       -1.81731662194140
H           -0.42221312487083        2.83162772365361       -1.97733849271006
H            1.89683527778287        0.86849917234063       -2.19656413741844
H            1.42404710861519        1.85916687178609       -3.57262545884721
H           -0.67723102354080        0.57633794251605       -0.70625077006399
O            0.07544697149938       -0.22083700507771        2.39380009050335
H            0.23536115710752       -1.15580858748993        2.23726201740773
H           -0.47430569548986       -0.14845072533224        3.18072284005712
O           -2.69379341663168       -2.03789977993651       -2.65970811328878
H           -2.59509710618717       -2.22182305357353       -3.60328676220590
H           -2.03552083882527       -1.33759011138405       -2.47341871103412
O           -1.77979953558574       -1.82892187751875       -5.33219687949181
H           -1.60115316548570       -2.04591301125647       -6.25490878515201
H           -1.08066213435854       -1.19021486062496       -5.06206095831856
O           -2.65278950806605       -0.30542248819055        0.77893927720593
H           -2.62924902378442       -1.29023196769848        0.77726931729191
H           -3.53596586885641       -0.11170639584949        0.39693935719519
28
 energy: -44.596476099726 gnorm: 0.032891217084 xtb: 6.7.1 (edcfbbe)
N           -0.51633367349218        1.23681395236254        0.11025434334123
C            0.60852878875902        2.12570764368291       -0.21418640701179
C            0.58656515648608        2.52128803094560       -1.68913187871922
C            1.06768935506801        1.42409430128179       -2.64785451990174
C            0.02792416365106        0.37082171656025       -3.07142803644637
O            0.05514719141550       -0.00494672823148       -4.26229048945199
O           -0.76709870256235       -0.07058442916219       -2.20767964797271
H           -0.35909028221007        0.67327550707917        0.96978286332878
H           -1.39109722089684        1.74341810698069        0.22559377260503
H            0.55318441219986        3.02020511495477        0.40676241429651
H            1.53809951436137        1.60330657021498        0.01112611353180
H            1.24680513469655        3.37907218338052       -1.82061604640959
H           -0.42044799120562        2.83099844157966       -1.97429208012833
H            1.89889707168516        0.87155363817339       -2.20232509122946
H            1.43100213525491        1.86926648353912       -3.57615959327347
H           -0.67543197645278        0.57524100603679       -0.70130304400018
O            0.11680300847939       -0.21146879090339        2.40524092424488
H            0.24934077920716       -1.14887015328113        2.23448820758298
H           -0.47660486460484       -0.14192185382577        3.16338568733914
O           -2.69094238197721       -2.05703707631051       -2.63433592324732
H           -2.60709662275185       -2.18962274164004       -3.59616527657494
H           -2.04377321245786       -1.34854993191986       -2.44453823461765
O           -1.78494636942152       -1.83737473686345       -5.36052040035628
H           -1.54439654499323       -2.01468927642733       -6.28521246202622
H           -1.10091214542502       -1.21262176859608       -4.99780142630331
O           -2.70784041356248       -0.34924022473898        0.70927981708802
H           -2.68676234898409       -1.29902277495547        0.80001640919276
H           -3.58709989866556       -0.12824319131628        0.45372520361951
28
 energy: -44.597454163644 gnorm: 0.011171410868 xtb: 6.7.1 (edcfbbe)
N           -0.51569800638856        1.22904628830657        0.11076260002048
C            0.60822335522138        2.11998301634332       -0.21519288942830
C            0.58771538773952        2.51818300856350       -1.68983822192173
C            1.06831880285019        1.42182922585035       -2.65071823877787
C            0.02664045880653        0.36921964150004       -3.07538567550325
O            0.05408283631997       -0.01071487909581       -4.26426221782765
O           -0.76877894863917       -0.07141821791402       -2.21025606856505
H           -0.35246956381357        0.66852977141531        0.97166933255752
H           -1.39195685709356        1.73565366637047        0.22717176202948
H            0.55280748269333        3.01445367324583        0.40574391212502
H            1.53957973813714        1.60007579055871        0.00969169728710
H            1.24740813430676        3.37665639345754       -1.81999710890155
H           -0.41901430069374        2.82861641448178       -1.97478756447994
H            1.89928004061998        0.86860255784740       -2.20534692148687
H            1.43348348780157        1.86754141161916       -3.57794255586891
H           -0.66907164475176        0.56792270993283       -0.70076010840928
O            0.11918788575003       -0.21090386221220        2.40314995810437
H            0.26048965460179       -1.14772126086810        2.24159596345024
H           -0.47044304067121       -0.13677031743338        3.16163352729564
O           -2.70566757710834       -2.03793298725413       -2.63739435225318
H           -2.60360037848910       -2.20237912295675       -3.58488689208014
H           -2.03478326407879       -1.35385986326814       -2.44655354386662
O           -1.74289772836514       -1.84593797232280       -5.33191280580023
H           -1.56046132100268       -2.00011825046410       -6.26430381109645
H           -1.11763808512286       -1.15845344327013       -5.02683069920686
O           -2.72464684002375       -0.34558748553417        0.73393065474799
H           -2.69453973794213       -1.30647160446624        0.77293629801338
H           -3.60543790906312       -0.12717528383253        0.44189916834285
28
 energy: -44.597846133159 gnorm: 0.020610477616 xtb: 6.7.1 (edcfbbe)
N           -0.51344066811903        1.21796312280614        0.11163826121336
C            0.60676103760653        2.11402384719824       -0.21672241256770
C            0.58548930734671        2.51690844630007       -1.69037652263692
C            1.06725688382632        1.42402339474966       -2.65507418274746
C            0.02356402435828        0.37337821985633       -3.08121805222641
O            0.04358429425162        0.00175598434717       -4.27236587292599
O           -0.77176799721834       -0.06928786393152       -2.21633502068235
H           -0.34081645522604        0.66072488798815        0.97382828059734
H           -1.39274951996281        1.72126259821663        0.23204947537009
H            0.55003310038766        3.00783162741038        0.40500037646356
H            1.54134548079371        1.59835149945475        0.00596689036101
H            1.24346610949493        3.37700666266317       -1.81864881764204
H           -0.42164798881990        2.82674080496215       -1.97432973670593
H            1.89852427497785        0.86881804106070       -2.21254537881969
H            1.43258669158394        1.87230226723506       -3.58092377704782
H           -0.66124107735138        0.55790439992534       -0.69913620695698
O            0.13577405174587       -0.20901339043726        2.39884542786311
H            0.28598994453719       -1.14553146760514        2.24670639739447
H           -0.45751219734681       -0.13053533869954        3.15247045974163
O           -2.71213074300820       -2.03245618603180       -2.63011063608737
H           -2.60808888216794       -2.20756624502395       -3.57245095655857
H           -2.03037209216154       -1.35810388153631       -2.44336694091458
O           -1.74637738441761       -1.81884214082028       -5.32865730683631
H           -1.54046218343358       -1.98362183525190       -6.25254502106878
H           -1.08705309745343       -1.17387494241177       -5.00627809758645
O           -2.75956723401479       -0.34025450801640        0.77650339716215
H           -2.71831495598728       -1.31345114841151        0.73502565619972
H           -3.63272066262080       -0.12558783739618        0.41686551614513
28
 energy: -44.598213233228 gnorm: 0.010609607032 xtb: 6.7.1 (edcfbbe)
N           -0.50982074195844        1.20926076866899        0.11134031447395
C            0.60659417987662        2.10984471740450       -0.21764841642910
C            0.58298157858246        2.51586256917929       -1.69045866111185
C            1.06694988850053        1.42656162480812       -2.65805339801725
C            0.02340500104971        0.37763632924321       -3.08718134925105
O            0.04538276575010        0.00822805764861       -4.27929726034768
O           -0.76767947947710       -0.07224627005565       -2.22279638833278
H           -0.33200192592880        0.65236888218351        0.97339760857302
H           -1.39121496296913        1.70814487907978        0.23604140666253
H            0.54785282515590        3.00242648282122        0.40570021680364
H            1.54314012033198        1.59671652052029        0.00303461079539
H            1.23931077004037        3.37749824433351       -1.81676372865800
H           -0.42490977848291        2.82427408149417       -1.97335110241913
H            1.89816809532490        0.87028070637042       -2.21676300083129
H            1.43220149516846        1.87763375564485       -3.58256144832841
H           -0.65746484865232        0.55049075822466       -0.69897244563277
O            0.15177395575100       -0.20775200045361        2.39718626824490
H            0.30830477873111       -1.14409442996941        2.25073358676971
H           -0.44967541638346       -0.12775540744728        3.14421752843660
O           -2.70903490172929       -2.04001081782758       -2.61780694457622
H           -2.62044222803273       -2.20092815464420       -3.56589599714260
H           -2.03305856304169       -1.35812602426297       -2.43766201642405
O           -1.73668131366993       -1.81650790101705       -5.32663632513100
H           -1.51655236876733       -1.96339787445023       -6.25192777843243
H           -1.08929053668837       -1.16624247456014       -4.98499481549939
O           -2.78672589018036       -0.34526582361194        0.76840466041199
H           -2.74499332332808       -1.30935595884777        0.73306298108554
H           -3.65640711337168       -0.12467622187679        0.40946709280805
28
 energy: -44.598615417129 gnorm: 0.014874004710 xtb: 6.7.1 (edcfbbe)
N           -0.50060756861787        1.18254750668157        0.11083680661307
C            0.60460266631556        2.09714962096561       -0.21953362398715
C            0.57418897174981        2.51161474543070       -1.68996840678677
C            1.06555461382885        1.43230067780637       -2.66500745537331
C            0.02899852570623        0.38093283521005       -3.10041804042620
O            0.04796648397635        0.02666802259687       -4.29831538965031
O           -0.75882876536991       -0.07987352155994       -2.24041981541272
H           -0.30622602273503        0.62680147282807        0.97238182389464
H           -1.38764929507995        1.66876133936251        0.24751334535997
H            0.53914818830218        2.98576381865424        0.40891965853668
H            1.54692408541660        1.59172408126260       -0.00482199877262
H            1.22475461806787        3.37848193541547       -1.81071715766342
H           -0.43611745017484        2.81474803482003       -1.97003683522164
H            1.89841656938602        0.87618427995164       -2.22693958537735
H            1.42914497491658        1.89148856374211       -3.58622258385539
H           -0.64655693712081        0.52798453827038       -0.69954051356579
O            0.19660982464552       -0.20397256673631        2.39323350732171
H            0.37580756536670       -1.13960969975196        2.26461716657333
H           -0.42997407747510       -0.12166033470896        3.12065629668192
O           -2.71020555850544       -2.04820589291845       -2.58891671940026
H           -2.64570563479263       -2.19641806344585       -3.54289085653965
H           -2.03442805046981       -1.36168155316120       -2.42374344318729
O           -1.71360009749976       -1.80183247013987       -5.31853724488781
H           -1.45538092324198       -1.91153853523914       -6.24307008121269
H           -1.09061228270954       -1.14311303749668       -4.93352162459056
O           -2.86613124210010       -0.34395373382344        0.76015420201329
H           -2.80218378651185       -1.30409011131839        0.66002175218642
H           -3.72779733367099       -0.10633293409715        0.42810201523046
28
 energy: -44.598905278296 gnorm: 0.007511280072 xtb: 6.7.1 (edcfbbe)
N           -0.49553945462043        1.15669622023155        0.11110168532836
C            0.59966097203860        2.08527504819212       -0.21911526440511
C            0.56384537049359        2.50812585782488       -1.68694902406005
C            1.06252323534801        1.43845179252596       -2.66860700131668
C            0.03094371882120        0.38581000651591       -3.11009618347434
O            0.04883348551556        0.04200422272155       -4.31085511495512
O           -0.74945697790559       -0.08999703988591       -2.25072159530745
H           -0.28353578350212        0.60320319553615        0.97220537685552
H           -1.38690504095492        1.63306515463215        0.25610127724650
H            0.52700670968063        2.96961262147001        0.41459865994501
H            1.54743941943090        1.58744788292023       -0.00991543376753
H            1.20847833195893        3.38020273870834       -1.80255136045550
H           -0.44868349569489        2.80568385279500       -1.96505894168131
H            1.89836896832264        0.88365111992154       -2.23455794808952
H            1.42309086821202        1.90542084211029       -3.58715893730930
H           -0.63603347962899        0.50630675049096       -0.70192326199768
O            0.22868622678004       -0.20562284089623        2.38612524787775
H            0.43953879890358       -1.13906634682403        2.27771127861809
H           -0.40820400854970       -0.12404188049321        3.10348257475811
O           -2.71838741043569       -2.04128770929880       -2.57102374652850
H           -2.65651212697118       -2.20717698326054       -3.51926133724501
H           -2.03056424595062       -1.36344999449808       -2.41569954785140
O           -1.70386891859585       -1.76890364135805       -5.30577008461030
H           -1.42694840463796       -1.88486114489912       -6.21935694949015
H           -1.06328615843907       -1.13329078957249       -4.91435232921046
O           -2.92128423437092       -0.33580153280415        0.75342383394237
H           -2.85595323498350       -1.28199625431923        0.62927243933794
H           -3.77314106866049       -0.08459212988571        0.39276688634650
28
 energy: -44.599099196939 gnorm: 0.011872571238 xtb: 6.7.1 (edcfbbe)
N           -0.49105808588622        1.13261496043885        0.11159291076616
C            0.59416020755725        2.07492959430872       -0.21710832105510
C            0.55293504383425        2.50535540510415       -1.68239854894659
C            1.05997368284492        1.44495695097451       -2.66946239538711
C            0.03372932273066        0.39018079536445       -3.11625789227770
O            0.05721296793599        0.04907879457939       -4.31695789016514
O           -0.73594898028511       -0.10361827183615       -2.25624197738744
H           -0.26451860749133        0.57974331053048        0.97073570205118
H           -1.38649489147720        1.59923467293507        0.26303134966361
H            0.51342656312468        2.95473595064647        0.42178309356701
H            1.54721641446640        1.58523060591244       -0.01262845680745
H            1.19029505400616        3.38333988968436       -1.79410839903260
H           -0.46227192943755        2.79565558539643       -1.95855698207967
H            1.89989089969816        0.89375674474192       -2.23853914028172
H            1.41675167310629        1.91910907798621       -3.58585375149067
H           -0.62621552990865        0.48614295427903       -0.70525698493640
O            0.26026402297912       -0.20825788149565        2.38219943135866
H            0.49680385335596       -1.13868426522129        2.29121367683034
H           -0.38640332996082       -0.13012948963321        3.09027642864868
O           -2.71494171780903       -2.04472342094223       -2.54995640010883
H           -2.67604774198372       -2.20905809346300       -3.50129380801707
H           -2.02602706055264       -1.36434379580757       -2.40932456654927
O           -1.68874650669681       -1.76115946758394       -5.29404476086536
H           -1.40361250397069       -1.86444267806060       -6.20486797061477
H           -1.06842438588940       -1.10691698151277       -4.90282152991474
O           -2.96851523520271       -0.31631781001732        0.75844909442830
H           -2.89239069564518       -1.26119115989911        0.56270287033348
H           -3.81093044183813       -0.05435295880830        0.36751041677112
28
 energy: -44.599393694059 gnorm: 0.012114988193 xtb: 6.7.1 (edcfbbe)
N           -0.48680317063544        1.11348891648809        0.11249045378827
C            0.58922605650355        2.06823372220766       -0.21233165431045
C            0.54255985188599        2.50370707307429       -1.67552933465580
C            1.05923752742356        1.45081416522387       -2.66534695298963
C            0.04688636859944        0.38343154602691       -3.11294217196847
O            0.06401382889275        0.05667055099959       -4.31785071774994
O           -0.72486741323127       -0.11303733825986       -2.25686194119469
H           -0.25150379920215        0.55941362139912        0.96811716067690
H           -1.38554751551730        1.57139922087279        0.26641558819920
H            0.49953756666766        2.94372825537947        0.43103378071808
H            1.54674188804843        1.58652198584132       -0.01088633433082
H            1.17091246721059        3.38851797829809       -1.78521770547423
H           -0.47589007082094        2.78454789078620       -1.94989890735492
H            1.90580806218880        0.90813046646110       -2.23674754534001
H            1.40969877198990        1.93099301542515       -3.58109744208633
H           -0.61633710560122        0.47003962880916       -0.70943712694172
O            0.28462034116384       -0.21362837461638        2.38296426192488
H            0.53599783861837       -1.14012062650167        2.30189679530867
H           -0.36488780122312       -0.14223597916225        3.08757333950764
O           -2.72152950648597       -2.03230521326747       -2.54140461541156
H           -2.67696003064297       -2.22491862078131       -3.48452730435836
H           -2.01862416468497       -1.36493988299089       -2.40749050799670
O           -1.69278838360986       -1.75672830831332       -5.29088846613765
H           -1.39964472531243       -1.86478683136375       -6.19722813669722
H           -1.07866229576529       -1.09288809071807       -4.90571141968381
O           -2.99579236613325       -0.29043667154252        0.72911015323589
H           -2.90390155177702       -1.22960816389366        0.50568187393005
H           -3.84138860694432       -0.02313491728018        0.35993007589379
28
 energy: -44.599864085035 gnorm: 0.007968955660 xtb: 6.7.1 (edcfbbe)
N           -0.47691034290869        1.07945737076073        0.11583710382976
C            0.58022044343715        2.05859573296752       -0.20077660613252
C            0.52269255636631        2.50242250628564       -1.66041397821934
C            1.05581583874549        1.46405039941282       -2.65665939887437
C            0.06005146090235        0.38182473944167       -3.10724437961778
O            0.07521450370329        0.06533088943477       -4.31392355404982
O           -0.69847828932339       -0.13521152355087       -2.25027182366864
H           -0.22821794736192        0.52274643084872        0.96377812611538
H           -1.38354374676662        1.51894868907234        0.27233410426135
H            0.47255292059788        2.92630824156811        0.45021262453355
H            1.54683131745960        1.59394358914977       -0.00383481424312
H            1.13324061039386        3.40017065687536       -1.76737546947809
H           -0.50203207154490        2.76498833106604       -1.93066377234021
H            1.91473013901416        0.93622347820474       -2.23317162821824
H            1.39398167860746        1.95527366612453       -3.57128626328482
H           -0.59474759851372        0.44091623635421       -0.71590667289566
O            0.33096933971117       -0.22855795556545        2.38919151281266
H            0.60404378224384       -1.14692182337348        2.32016623588183
H           -0.32681006398863       -0.17385757831079        3.08811543785485
O           -2.72209593258411       -2.01946498175814       -2.52281785867480
H           -2.68528636601106       -2.24307070243932       -3.45982040950557
H           -2.00490891467486       -1.36507224298744       -2.40416937374127
O           -1.71282525176539       -1.75160020179074       -5.29222677482852
H           -1.39697877436568       -1.88226269971103       -6.18950291664918
H           -1.09759465466387       -1.08142074286688       -4.91526282011251
O           -3.03343528226317       -0.23313773229354        0.66187162535103
H           -2.91968615369786       -1.15698656124676        0.41666513232492
H           -3.88668113914206        0.03723280692916        0.32097181007045
28
 energy: -44.600479399089 gnorm: 0.013510981436 xtb: 6.7.1 (edcfbbe)
N           -0.46180720563682        1.03087016423330        0.12093754777373
C            0.56641399787946        2.04544321392122       -0.18576020449283
C            0.49354889159962        2.49959983914190       -1.64122677620164
C            1.04928372077252        1.48216891693179       -2.64806049594837
C            0.07621708843033        0.37997137524193       -3.10352747588752
O            0.08330124918082        0.07996628706807       -4.31417795459725
O           -0.66169049030278       -0.16580095741107       -2.24443007474999
H           -0.19341182010143        0.47303985193412        0.95975565640236
H           -1.38404084773843        1.43888515979924        0.28239902843675
H            0.43329576310744        2.90336611901034        0.47421010285021
H            1.54705104774370        1.60726199146172        0.00619710802508
H            1.07983324502502        3.41468944829326       -1.74335731819282
H           -0.53927232226923        2.73775701859749       -1.90551356500811
H            1.92389312786710        0.97326188897971       -2.23194409454708
H            1.37126725814986        1.98932023736840       -3.56028288301366
H           -0.56102800108215        0.39837844781982       -0.72204907580316
O            0.38992576267274       -0.25293525527196        2.39581212839065
H            0.71572903330289       -1.15950307883916        2.35445152016288
H           -0.27058692083818       -0.21887427957289        3.09212068677247
O           -2.71821913445051       -2.01137885681560       -2.48730533880412
H           -2.70375770236818       -2.25236750308782       -3.42258947176091
H           -1.99293103879540       -1.36350279639418       -2.39058413773637
O           -1.73569173441236       -1.73484166707544       -5.29002288387255
H           -1.39442515591852       -1.90557700009081       -6.17283964284686
H           -1.10480401499571       -1.07408030194954       -4.92406059705253
O           -3.09177128939728       -0.15028715928488        0.57980838457241
H           -2.94558481166226       -1.05523849719628        0.26927826439329
H           -3.95062563415390        0.12127641178933        0.25657676123755
28
 energy: -44.601359900231 gnorm: 0.013746064571 xtb: 6.7.1 (edcfbbe)
N           -0.44203464489899        0.98362410506556        0.13016553705299
C            0.54992629973853        2.03740714242467       -0.16566257021192
C            0.46015607881020        2.49691392850193       -1.61840056088126
C            1.04002092926954        1.50125371225901       -2.63553407889189
C            0.09249823161735        0.37517288692746       -3.09357248880323
O            0.08452754597692        0.08883959081031       -4.30736843034895
O           -0.61816396607238       -0.19941274769395       -2.22880286368797
H           -0.15910438049029        0.42673619906057        0.95896784785242
H           -1.38732651769783        1.34831367284867        0.29149409221518
H            0.38705912728918        2.88634568979712        0.49995382052408
H            1.54646043174469        1.63314991758199        0.02577917307313
H            1.01897610868808        3.42978047272184       -1.71722234576078
H           -0.58053813990397        2.70752864813186       -1.87638899361963
H            1.93130643848545        1.01517057257135       -2.22614838229503
H            1.34322592893214        2.02387016736704       -3.54567182162499
H           -0.51705133287476        0.35468278539692       -0.72351365756606
O            0.44835024457492       -0.29146607209610        2.41377577120301
H            0.80978347847472       -1.18386929194661        2.38530464926586
H           -0.20823924971508       -0.28378008158983        3.11555450606765
O           -2.70966014231211       -2.00461238057791       -2.44943387859567
H           -2.72018162059459       -2.24453827504185       -3.38688097297091
H           -1.98104844252935       -1.36206077691397       -2.37008486975338
O           -1.76895769199641       -1.73031125178758       -5.29136776573802
H           -1.42934923055978       -1.96033216854228       -6.16332858928301
H           -1.11457046826188       -1.08095621059033       -4.95316903912604
O           -3.12005428793707       -0.03841879944233        0.47240505440626
H           -2.94870051347621       -0.91894450267706        0.10931019999873
H           -3.98719815267120        0.22078208603560        0.15365585600133
28
 energy: -44.602144340629 gnorm: 0.011360925787 xtb: 6.7.1 (edcfbbe)
N           -0.42338305087335        0.95591203527426        0.14059352706273
C            0.53763838300058        2.03396937190790       -0.15216037241278
C            0.43629255852572        2.49295795426085       -1.60464608586608
C            1.02969146352412        1.51224421517594       -2.62857667585647
C            0.09340356074201        0.37891320435209       -3.08986773884383
O            0.07801682269763        0.09044048856255       -4.30176066215597
O           -0.58259076406343       -0.22614518708261       -2.21553062814771