46
 energy: -75.161006911922 gnorm: 0.000257011699 xtb: 6.7.1 (edcfbbe)
N           -1.48560645099524        0.18434185878508        0.84940020046635
C           -2.46170516404744        1.01912127067571        0.12478516358564
C           -2.86835986304252        0.38899382666336       -1.20337249182447
C           -1.72721665292267        0.32110043290300       -2.22245213318688
C           -1.55191137155924       -1.03772951368004       -2.89578306621626
O           -0.86613619755516       -1.07611662879495       -3.95184395358588
O           -2.03485245947132       -2.06368468536356       -2.36112098996544
H           -1.45285858211215        0.46291857722105        1.84716344888150
H           -1.74247291617481       -0.82360554211659        0.78754286340258
H           -3.35194224421813        1.12839748720092        0.74454527620181
H           -2.02979653673911        2.00498310697593       -0.04761870755492
H           -3.69284377953777        0.96243708211016       -1.62647263489838
H           -3.24490565281939       -0.61823281382961       -1.01979363762424
H           -0.76413433681860        0.52703123154277       -1.75102198928935
H           -1.84572315993008        1.05814474412778       -3.01763432068052
H           -0.52941481024217        0.27679951523640        0.44815924027689
O            0.32566558629908       -3.95844111443207        1.08550454961250
H            0.03047054829458       -4.83972646269356        1.32916604413071
H           -0.48420524825014       -3.43774450616121        0.90887535623729
O           -1.91910484358257       -2.51658017668879        0.37543882053465
H           -1.77993217716546       -2.40198788494997       -0.58195552195753
H           -2.81385255206378       -2.88089942238394        0.43868128603956
O            1.43887073699852       -3.81067114814222       -1.42973717855879
H            1.16595702731105       -3.85780096911200       -0.48956397032266
H            0.67394741382609       -4.16105547201529       -1.93100947714717
O           -1.60357660665742        0.97495545811681        3.51941755529553
H           -1.08727152325798        1.70972077825864        3.86185020958220
H           -1.64909744119718        0.30236598732074        4.20505788960026
O           -0.83753229892939       -4.49197677391631       -2.81536419121510
H           -0.69936521332221       -4.47972187719357       -3.77481533491851
H           -1.31406391225631       -3.65310025787731       -2.64192281523476
O            1.58552050606313       -1.25378527515937       -2.23667728112475
H            1.63503515917893       -2.19524866304178       -1.93762494089852
H            0.92485273215497       -1.23908878029709       -2.93864491279926
O            1.08257867794562        0.44582354059960       -0.16949672672252
H            1.31395622310947       -0.14359599960595       -0.91452713745109
H            1.81600773118762        0.38906986545703        0.44984329270859
O           -0.58981554033544       -3.42062361377797       -5.39374040137764
H           -0.72660038216754       -2.56923160083727       -4.92863166053755
H            0.14043942810291       -3.27803414275511       -6.00344022136668
O           -4.32588060901487       -3.11965753512904       -0.96952225318951
H           -3.70555587046261       -2.83659347453479       -1.65687088693371
H           -4.77452705318886       -3.89756059309204       -1.31047736626920
O           -0.92307969232135        1.27962897386596       -5.43069435718325
H           -0.03389617654905        1.45730005972035       -5.75342357417258
H           -0.87677260454813        0.41863182579580       -4.97401433522337
