
                                 *****************
                                 * O   R   C   A *
                                 *****************

                                            #,                                       
                                            ###                                      
                                            ####                                     
                                            #####                                    
                                            ######                                   
                                           ########,                                 
                                     ,,################,,,,,                         
                               ,,#################################,,                 
                          ,,##########################################,,             
                       ,#########################################, ''#####,          
                    ,#############################################,,   '####,        
                  ,##################################################,,,,####,       
                ,###########''''           ''''###############################       
              ,#####''   ,,,,##########,,,,          '''####'''          '####       
            ,##' ,,,,###########################,,,                        '##       
           ' ,,###''''                  '''############,,,                           
         ,,##''                                '''############,,,,        ,,,,,,###''
      ,#''                                            '''#######################'''  
     '                                                          ''''####''''         
             ,#######,   #######,   ,#######,      ##                                
            ,#'     '#,  ##    ##  ,#'     '#,    #''#        ,####,   ,####,        
            ##       ##  ##   ,#'  ##            #'  '#       #'       #'  '#        
            ##       ##  #######   ##           ,######,      #####,   #    #        
            '#,     ,#'  ##    ##  '#,     ,#' ,#      #,     #,   #   #,  ,#        
             '#######'   ##     ##  '#######'  #'      '#     '####' # '####'        



                #########################################################
                #                        -***-                          #
                #          Department of theory and spectroscopy        #
                #                                                       #
                #                      Frank Neese                      #
                #                                                       #
                #     Directorship, Architecture, Infrastructure        #
                #                    SHARK, DRIVERS                     #
                #        Core code/Algorithms in most modules           #
                #                                                       #
                #        Max Planck Institute fuer Kohlenforschung      #
                #                Kaiser Wilhelm Platz 1                 #
                #                 D-45470 Muelheim/Ruhr                 #
                #                      Germany                          #
                #                                                       #
                #                  All rights reserved                  #
                #                        -***-                          #
                #########################################################


                         Program Version 6.0.1  -  RELEASE   -


 With contributions from (in alphabetic order):
[Max-Planck-Institut fuer Kohlenforschung]                               
  Daniel Aravena         : Magnetic Suceptibility                        
  Michael Atanasov       : Ab Initio Ligand Field Theory (pilot matlab implementation)
  Alexander A. Auer      : GIAO ZORA, VPT2 properties, NMR spectrum      
  Ute Becker             : All parallelization in ORCA, NUMFREQ, NUMCALC 
  Giovanni Bistoni       : ED, misc. LED, open-shell LED, HFLD           
  Martin Brehm           : Molecular dynamics                            
  Dmytro Bykov           : pre 5.0 version of the SCF Hessian            
  Marcos Casanova-Páez   : Triplet and SCS-CIS(D). UHF-(DLPNO)-IP/EA/STEOM-CCSD. UHF-CVS-IP/STEOM-CCSD   
  Vijay G. Chilkuri      : MRCI spin determinant printing, contributions to CSF-ICE 
  Pauline Colinet        : FMM embedding                                 
  Dipayan Datta          : RHF DLPNO-CCSD density                        
  Achintya Kumar Dutta   : EOM-CC, STEOM-CC                              
  Nicolas Foglia         : Exact transition moments, OPA infrastructure, MCD improvements    
  Dmitry Ganyushin       : Spin-Orbit,Spin-Spin,Magnetic field MRCI      
  Miquel Garcia-Rates    : C-PCM and meta-GGA Hessian, CCSD/C-PCM, Gaussian charge scheme 
  Tiago L. C. Gouveia    : GS-ROHF, GS-ROCIS                             
  Yang Guo               : DLPNO-NEVPT2, F12-NEVPT2, CIM, IAO-localization        
  Andreas Hansen         : Spin unrestricted coupled pair/coupled cluster methods 
  Ingolf Harden          : AUTO-CI MPn and infrastructure                
  Benjamin Helmich-Paris : MC-RPA, TRAH-(SCF,CASSCF), AVAS, COSX integrals, SCF dyn. polar. 
  Lee Huntington         : MR-EOM, pCC                                   
  Robert Izsak           : Overlap fitted RIJCOSX, COSX-SCS-MP3, EOM     
  Riya Kayal             : Wick's Theorem for AUTO-CI, AUTO-CI UHF-CCSDT 
  Emily Kempfer          : AUTO-CI, RHF CISDT and CCSDT                  
  Christian Kollmar      : KDIIS, OOCD, Brueckner-CCSD(T), CCSD density, CASPT2, CASPT2-K, improved NEVPT2 
  Axel Koslowski         : Symmetry handling                             
  Simone Kossmann        : meta-GGA functionals, TD-DFT gradient, OOMP2, (MP2 Hessian; deprecated post 5.0) 
  Lucas Lang             : DCDCAS                                        
  Marvin Lechner         : AUTO-CI (C++ implementation), FIC-MRCC        
  Spencer Leger          : CASSCF response                               
  Dagmar Lenk            : GEPOL surface, SMD, ORCA-2-JSON               
  Dimitrios Liakos       : Extrapolation schemes; Compound Job, initial MDCI parallelization 
  Dimitrios Manganas     : Further ROCIS development; embedding schemes. LFT, Crystal Embedding 
  Dimitrios Pantazis     : SARC Basis sets                               
  Anastasios Papadopoulos: AUTO-CI, single reference methods and gradients 
  Taras Petrenko         : pre 6.0 DFT Hessian and TD-DFT gradient, (ASA, deprecated), ECA, 1-Electron XAS/XES, NRVS 
  Peter Pinski           : DLPNO-MP2, DLPNO-MP2 Gradient                 
  Christoph Reimann      : Effective Core Potentials                     
  Marius Retegan         : Local ZFS, SOC                                
  Christoph Riplinger    : Optimizer, TS searches, QM/MM, DLPNO-CCSD(T), (RO)-DLPNO pert. Triples 
  Michael Roemelt        : Original ROCIS implementation                 
  Masaaki Saitow         : Open-shell DLPNO-CCSD energy and density      
  Barbara Sandhoefer     : DKH picture change effects                    
  Kantharuban Sivalingam : CASSCF convergence/infrastructure, NEVPT2 and variants, FIC-MRCI 
  Bernardo de Souza      : ESD, SOC TD-DFT                               
  Georgi L. Stoychev     : AutoAux, RI-MP2 NMR, DLPNO-MP2 response, X2C  
  Van Anh Tran           : RI-MP2 g-tensors                              
  Willem Van den Heuvel  : Paramagnetic NMR                              
  Zikuan Wang            : NOTCH, Electric field optimization            
  Frank Wennmohs         : Technical directorship and infrastructure     
  Hang Xu                : AUTO-CI-Response properties                   
                                                                         
[FACCTs GmbH]                                                            
  Markus Bursch, Miquel Garcia-Rates, Christoph Riplinger, Bernardo de Souza, Georgi L. Stoychev 
                                                                 
  APM, Basis sets (HGBS, AHGBS, def-TZVP (Ac-Lr), def2-XVPD (La-Lu)), CI-OPT, improved COSX, DLPNO-Multilevel,           
  DOCKER, DRACO, updates on ESD, GOAT, IRC, LR-CPCM, MBIS, meta-GGA TD-DFT gradient, ML-optimized integration grids, 
  MM, NACMEs, nearIR, NEB, NEB-TS, NL-DFT gradient (VV10), 2- and 3-layer-ONIOM, interface openCOSMO-RS, QMMM,   
  Crystal-QMMM, SF, symmetry and pop. for TD-DFT, r2SCAN hybrids, SOLVATOR                                   
                                                                         
[Other institutions]                                                     
  V. Asgeirsson          : NEB                                           
  Christoph Bannwarth    : sTDA-DFT, sTD-DFT, PBEh-3c, B97-3c, D3        
  Sebastian Ehlert       : rSCAN, r2SCAN, r2SCAN-3c, D4, dhf basis sets  
  Marvin Friede          : D4 for Fr, Ra, Ac-Lr                          
  Lars Goerigk           : TD-DFT with DH, B97 family of functionals     
  Stefan Grimme          : VdW corrections, initial TS optimization, DFT functionals, gCP, sTDA/sTD-DF 
  Waldemar Hujo          : DFT-NL                                        
  H. Jonsson             : NEB                                           
  Holger Kruse           : gCP                                           
  Marcel Mueller         : wB97X-3c, vDZP basis set                      
  Hagen Neugebauer       : wr2SCAN                                       
  Tobias Risthaus        : range-separated hybrid DFT                    
  Lukas Wittmann         : regularized MP2, r2SCAN double-hybrids, wr2SCAN        
                                                                         
We gratefully acknowledge several colleagues who have allowed us to      
interface, adapt or use parts of their codes:                            
  Ed Valeev, F. Pavosevic, A. Kumar             : LibInt (2-el integral package), F12 methods 
  Garnet Chan, S. Sharma, J. Yang, R. Olivares  : DMRG                   
  Ulf Ekstrom                                   : XCFun DFT Library      
  Mihaly Kallay                                 : mrcc  (arbitrary order and MRCC methods)
  Frank Weinhold                                : gennbo (NPA and NBO analysis)           
  Simon Mueller                                 : openCOSMO-RS                            
  Christopher J. Cramer and Donald G. Truhlar   : smd solvation model                     
  S Lehtola, MJT Oliveira, MAL Marques          : LibXC Library                           
  Liviu Ungur et al                             : ANISO software                          


 Your calculation uses the libint2 library for the computation of 2-el integrals
 For citations please refer to: http://libint.valeyev.net

 Your ORCA version has been built with support for libXC version: 6.2.2
 For citations please refer to: https://libxc.gitlab.io

 This ORCA versions uses:
   CBLAS   interface :  Fast vector & matrix operations
   LAPACKE interface :  Fast linear algebra routines
   SCALAPACK package :  Parallel linear algebra routines
   Shared memory     :  Shared parallel matrices
   BLAS/LAPACK       :  OpenBLAS 0.3.27  USE64BITINT DYNAMIC_ARCH NO_AFFINITY SkylakeX SINGLE_THREADED
        Core in use  :  SkylakeX
   Copyright (c) 2011-2014, The OpenBLAS Project


NOTE: MaxCore=5000 MB was set to SCF,MP2,MDCI,CIPSI,MRCI and CIS
      => If you want to overwrite this, your respective input block should be placed after the MaxCore statement
Your calculation utilizes the atom-pairwise dispersion correction
based on EEQ partial charges (D4)


Warning: RI is on but no J-basis has been assigned. Assigning Def2/J (nothing to worry about!)
================================================================================

----- Orbital basis set information -----
Your calculation utilizes the basis: def2-TZVP
   F. Weigend and R. Ahlrichs, Phys. Chem. Chem. Phys. 7, 3297 (2005).

----- AuxJ basis set information -----
Your calculation utilizes the auxiliary basis: def2/J
   F. Weigend, Phys. Chem. Chem. Phys. 8, 1057 (2006).

================================================================================
                                        WARNINGS
                       Please study these warnings very carefully!
================================================================================

WARNING: Old DensityContainer found on disk!
         Will remove this file - 
         If you want to keep old densities, please start your calculation with a different basename. 


WARNING: Geometry Optimization
  ===> : Switching off AutoStart
         For restart on a previous wavefunction, please use MOREAD

================================================================================
                                       INPUT FILE
================================================================================
NAME = 02_Aminobutyric-acid_zwitterion.inp
|  1> ! Opt B3LYP D4 def2-TZVP TightSCF TightOpt CPCM(water)
|  2> 
|  3> %maxcore 5000
|  4> 
|  5> %pal
|  6> nprocs 10
|  7> end
|  8> 
|  9> %geom
| 10>     MaxIter 500
| 11> end
| 12> 
| 13> * xyz 0 1
| 14>   N           0.57813603998673     -0.87981341735551      0.47970377328592
| 15>   C           1.13702266837286     -0.81745642227194     -0.91059984954827
| 16>   C           0.82241856845081      0.51879640451787     -1.56109598418075
| 17>   C           1.55856261250801      0.68378626141338     -2.88632982429372
| 18>   C           3.08298978154003      0.83879482690969     -2.77376448067692
| 19>   O           3.56050567000528      1.15080525842297     -1.64892700159557
| 20>   O           3.74088941642588      0.66477636593685     -3.83162056614123
| 21>   H           1.06469824295940     -0.18953728413942      1.09000156219219
| 22>   H          -0.42121904305153     -0.67386608868841      0.48605660940512
| 23>   H           0.70935228039790     -1.64764949028359     -1.47060510795931
| 24>   H           2.21017795653953     -0.96854252056668     -0.81413340844249
| 25>   H           1.11032312306640      1.32818759626592     -0.88835122481990
| 26>   H          -0.25643402438966      0.59352198434526     -1.72434731043151
| 27>   H           1.34917816868597     -0.15302274772907     -3.55729273674010
| 28>   H           1.19112973620014      1.57995149754856     -3.39449772905283
| 29>   H           0.70158737065765     -1.80516837714289      0.89115922983909
| 30>   O           2.19862868597523      0.90934743901309      1.92720679173590
| 31>   H           2.43629915145740      1.65226602654777      1.35557599692562
| 32>   O           6.43525524206956      1.19104674880963     -3.80529415219302
| 33>   H           6.59049800093998      1.26701419152410     -2.84725092721205
| 34>   H           1.85321242445128      1.31055059111625      2.73567433190351
| 35>   H           5.46746182693811      1.00117325459221     -3.84645203427002
| 36>   O           6.13907852398093      1.32290656856018     -0.95875812043516
| 37>   H           5.18264312878651      1.23834901012570     -1.22570853558110
| 38>   H           6.36868444704498      0.48071232252800     -0.54887930171314
| 39> *
| 40> 
| 41>                          ****END OF INPUT****
================================================================================

                       *****************************
                       * Geometry Optimization Run *
                       *****************************

Geometry optimization settings:
Update method            Update   .... BFGS
Choice of coordinates    CoordSys .... (2022) Redundant Internals
Initial Hessian          InHess   .... Almloef's Model
Max. no of cycles        MaxIter  .... 500

Convergence Tolerances:
Energy Change            TolE     ....  1.0000e-06 Eh
Max. Gradient            TolMAXG  ....  1.0000e-04 Eh/bohr
RMS Gradient             TolRMSG  ....  3.0000e-05 Eh/bohr
Max. Displacement        TolMAXD  ....  1.0000e-03 bohr
RMS Displacement         TolRMSD  ....  6.0000e-04 bohr
Strict Convergence                .... False

------------------------------------------------------------------------------
                        ORCA OPTIMIZATION COORDINATE SETUP
------------------------------------------------------------------------------

The optimization will be done in redundant internal coordinates (2022)
Making redundant internal coordinates   ...  (2022 redundants) done
Evaluating the initial hessian          ...  (Almloef) done
Evaluating the coordinates              ...  done
Calculating the B-matrix                .... done
Calculating the G-matrix                .... done
Diagonalizing the G-matrix              .... done
Small eigenvalue found = 3.705e-03
Small eigenvalue found = 1.292e-02
Small eigenvalue found = 1.735e-02
The first mode is                       ....   55
The number of degrees of freedom        ....   69

    -----------------------------------------------------------------
                    Redundant Internal Coordinates


    -----------------------------------------------------------------
         Definition                    Initial Value    Approx d2E/dq
    -----------------------------------------------------------------
      1. B(C   1,N   0)                  1.4997         0.373947   
      2. B(C   2,C   1)                  1.5191         0.388824   
      3. B(C   3,C   2)                  1.5249         0.380615   
      4. B(C   4,C   3)                  1.5364         0.364871   
      5. B(O   5,C   4)                  1.2612         0.898181   
      6. B(O   6,C   4)                  1.2578         0.909328   
      7. B(H   7,N   0)                  1.0420         0.384769   
      8. B(H   8,N   0)                  1.0204         0.416526   
      9. B(H   9,C   1)                  1.0889         0.361543   
     10. B(H  10,C   1)                  1.0880         0.362724   
     11. B(H  11,C   2)                  1.0911         0.358594   
     12. B(H  12,C   2)                  1.0937         0.355252   
     13. B(H  13,C   3)                  1.0928         0.356373   
     14. B(H  14,C   3)                  1.0938         0.355135   
     15. B(H  15,N   0)                  1.0202         0.416787   
     16. B(O  16,H   7)                  1.7872         0.024897   
     17. B(H  17,H   7)                  2.3117         0.000775   
     18. B(H  17,O  16)                  0.9670         0.506671   
     19. B(H  19,O  18)                  0.9735         0.494784   
     20. B(H  20,O  16)                  0.9664         0.507906   
     21. B(H  21,O   6)                  1.7591         0.027609   
     22. B(H  21,O  18)                  0.9871         0.470682   
     23. B(O  22,H  19)                  1.9425         0.014075   
     24. B(H  23,H  19)                  2.1476         0.001416   
     25. B(H  23,O   5)                  1.6787         0.037093   
     26. B(H  23,O  22)                  0.9966         0.454567   
     27. B(H  24,O  22)                  0.9644         0.511674   
     28. A(H   7,N   0,H   8)          108.6623         0.295846   
     29. A(C   1,N   0,H  15)          111.4999         0.327477   
     30. A(C   1,N   0,H   7)          109.9633         0.323201   
     31. A(C   1,N   0,H   8)          111.2453         0.327443   
     32. A(H   8,N   0,H  15)          107.4019         0.299622   
     33. A(H   7,N   0,H  15)          107.9481         0.295875   
     34. A(N   0,C   1,H   9)          107.3792         0.322646   
     35. A(N   0,C   1,H  10)          106.2363         0.322819   
     36. A(H   9,C   1,H  10)          109.0935         0.291354   
     37. A(N   0,C   1,C   2)          110.8770         0.363631   
     38. A(C   2,C   1,H   9)          111.6588         0.326674   
     39. A(C   2,C   1,H  10)          111.3695         0.326850   
     40. A(C   1,C   2,H  11)          109.5019         0.326234   
     41. A(C   1,C   2,C   3)          111.5512         0.367019   
     42. A(C   1,C   2,H  12)          109.1660         0.325732   
     43. A(H  11,C   2,H  12)          107.5553         0.290030   
     44. A(C   3,C   2,H  12)          109.8209         0.324591   
     45. A(C   3,C   2,H  11)          109.1585         0.325091   
     46. A(C   2,C   3,C   4)          115.2280         0.363047   
     47. A(C   2,C   3,H  14)          109.2834         0.324574   
     48. A(H  13,C   3,H  14)          106.1271         0.289733   
     49. A(C   2,C   3,H  13)          110.9914         0.324759   
     50. A(C   4,C   3,H  13)          108.2002         0.322516   
     51. A(C   4,C   3,H  14)          106.5400         0.322332   
     52. A(O   5,C   4,O   6)          125.8926         0.491537   
     53. A(C   3,C   4,O   6)          116.3198         0.420013   
     54. A(C   3,C   4,O   5)          117.7728         0.419091   
     55. A(C   4,O   5,H  23)          127.1287         0.257184   
     56. A(C   4,O   6,H  21)          119.6038         0.246751   
     57. A(O  16,H   7,H  17)           23.0570         0.110702   
     58. A(N   0,H   7,O  16)          167.9488         0.198326   
     59. A(N   0,H   7,H  17)          150.7108         0.129331   
     60. A(H  17,O  16,H  20)          105.2733         0.319249   
     61. A(H   7,O  16,H  20)          114.8580         0.205417   
     62. A(H   7,O  16,H  17)          110.5719         0.205353   
     63. A(H   7,H  17,O  16)           46.3711         0.131923   
     64. A(H  19,O  18,H  21)          102.2625         0.314103   
     65. A(O  22,H  19,H  23)           27.6244         0.110863   
     66. A(O  18,H  19,H  23)          129.6033         0.137934   
     67. A(O  18,H  19,O  22)          157.2112         0.190714   
     68. L(O   6,H  21,O  18,H  19, 2) 179.9093         0.206138   
     69. L(O   6,H  21,O  18,H  19, 1) 177.1269         0.206138   
     70. A(H  23,O  22,H  24)          105.5600         0.314038   
     71. A(H  19,O  22,H  24)          109.4356         0.191490   
     72. A(H  19,O  22,H  23)           87.7173         0.188781   
     73. A(O   5,H  23,H  19)          116.3459         0.116224   
     74. A(H  19,H  23,O  22)           64.6583         0.137004   
     75. D(C   2,C   1,N   0,H   8)     54.4083         0.012818   
     76. D(C   2,C   1,N   0,H  15)    174.2776         0.012818   
     77. D(H   9,C   1,N   0,H  15)     52.0503         0.012818   
     78. D(H   9,C   1,N   0,H   7)    171.7504         0.012818   
     79. D(H   9,C   1,N   0,H   8)    -67.8190         0.012818   
     80. D(C   2,C   1,N   0,H   7)    -66.0224         0.012818   
     81. D(H  11,C   2,C   1,H   9)    170.1018         0.012023   
     82. D(C   3,C   2,C   1,N   0)    171.3477         0.012023   
     83. D(H  11,C   2,C   1,H  10)    -67.6677         0.012023   
     84. D(H  11,C   2,C   1,N   0)     50.4038         0.012023   
     85. D(C   3,C   2,C   1,H  10)     53.2761         0.012023   
     86. D(C   3,C   2,C   1,H   9)    -68.9544         0.012023   
     87. D(C   4,C   3,C   2,H  12)    170.0611         0.011544   
     88. D(C   4,C   3,C   2,H  11)     52.3740         0.011544   
     89. D(C   4,C   3,C   2,C   1)    -68.7699         0.011544   
     90. D(H  13,C   3,C   2,H  12)    -66.5310         0.011544   
     91. D(H  13,C   3,C   2,H  11)    175.7819         0.011544   
     92. D(H  13,C   3,C   2,C   1)     54.6379         0.011544   
     93. D(O   6,C   4,C   3,C   2)    163.9988         0.009990   
     94. D(O   5,C   4,C   3,H  14)    104.0703         0.009990   
     95. D(O   5,C   4,C   3,H  13)   -142.1851         0.009990   
     96. D(O   6,C   4,C   3,H  13)     39.1254         0.009990   
     97. D(O   5,C   4,C   3,C   2)    -17.3116         0.009990   
     98. D(H  23,O   5,C   4,O   6)     -7.7152         0.064052   
     99. D(H  23,O   5,C   4,C   3)    173.7347         0.064052   
    100. D(H  21,O   6,C   4,O   5)     -5.5832         0.065876   
    101. D(H  21,O   6,C   4,C   3)    172.9855         0.065876   
    102. D(H  17,H   7,N   0,C   1)     14.3336         0.194785   
    103. D(O  16,H   7,N   0,H  15)     87.2948         0.194785   
    104. D(O  16,H   7,N   0,H   8)   -156.5234         0.194785   
    105. D(O  16,H   7,N   0,C   1)    -34.5445         0.194785   
    106. D(H  17,H   7,N   0,H   8)   -107.6454         0.194785   
    107. D(H  20,O  16,H   7,H  17)    118.9454         0.001869   
    108. D(H  20,O  16,H   7,N   0)   -170.8373         0.001869   
    109. D(H  17,O  16,H   7,N   0)     70.2172         0.001869   
    110. D(H   7,H  17,O  16,H  20)   -124.6059         0.323428   
    111. D(O  16,H  17,H   7,N   0)   -156.3225         0.001506   
    112. D(H  19,O  18,O   6,C   4)     12.9145         0.001501   
    113. D(H  23,H  19,O  18,H  21)     -5.6837         0.304241   
    114. D(O  22,H  19,O  18,H  21)     -3.9763         0.304241   
    115. D(H  24,O  22,H  19,H  23)    105.7010         0.001615   
    116. D(H  24,O  22,H  19,O  18)    102.8632         0.001615   
    117. D(H  23,O  22,H  19,O  18)     -2.8378         0.001615   
    118. D(H  19,O  22,O   5,C   4)     13.7250         0.001501   
    119. D(H  24,O  22,O   5,C   4)    -96.0672         0.001501   
    120. D(H  19,H  23,O  22,H  24)   -109.5471         0.271604   
    121. D(O   5,H  23,H  19,O  22)    177.9334         0.001520   
    122. D(O   5,H  23,H  19,O  18)     -3.4928         0.001520   
    123. D(O  22,H  23,H  19,O  18)    178.5738         0.001520   
    124. D(H  19,H  23,O   5,C   4)     15.1074         0.002267   
    -----------------------------------------------------------------

Number of atoms                         .... 25
Number of degrees of freedom            .... 124


         *************************************************************
         *                GEOMETRY OPTIMIZATION CYCLE   1            *
         *************************************************************
---------------------------------
CARTESIAN COORDINATES (ANGSTROEM)
---------------------------------
  N      0.578136   -0.879813    0.479704
  C      1.137023   -0.817456   -0.910600
  C      0.822419    0.518796   -1.561096
  C      1.558563    0.683786   -2.886330
  C      3.082990    0.838795   -2.773764
  O      3.560506    1.150805   -1.648927
  O      3.740889    0.664776   -3.831621
  H      1.064698   -0.189537    1.090002
  H     -0.421219   -0.673866    0.486057
  H      0.709352   -1.647649   -1.470605
  H      2.210178   -0.968543   -0.814133
  H      1.110323    1.328188   -0.888351
  H     -0.256434    0.593522   -1.724347
  H      1.349178   -0.153023   -3.557293
  H      1.191130    1.579951   -3.394498
  H      0.701587   -1.805168    0.891159
  O      2.198629    0.909347    1.927207
  H      2.436299    1.652266    1.355576
  O      6.435255    1.191047   -3.805294
  H      6.590498    1.267014   -2.847251
  H      1.853212    1.310551    2.735674
  H      5.467462    1.001173   -3.846452
  O      6.139079    1.322907   -0.958758
  H      5.182643    1.238349   -1.225709
  H      6.368684    0.480712   -0.548879

----------------------------
CARTESIAN COORDINATES (A.U.)
----------------------------
  NO LB      ZA    FRAG     MASS         X           Y           Z
   0 N     7.0000    0    14.007    1.092519   -1.662606    0.906509
   1 C     6.0000    0    12.011    2.148661   -1.544769   -1.720784
   2 C     6.0000    0    12.011    1.554146    0.980383   -2.950044
   3 C     6.0000    0    12.011    2.945257    1.292169   -5.454373
   4 C     6.0000    0    12.011    5.826006    1.585093   -5.241655
   5 O     8.0000    0    15.999    6.728381    2.174707   -3.116020
   6 O     8.0000    0    15.999    7.069256    1.256245   -7.240714
   7 H     1.0000    0     1.008    2.011988   -0.358174    2.059804
   8 H     1.0000    0     1.008   -0.795989   -1.273422    0.918514
   9 H     1.0000    0     1.008    1.340482   -3.113606   -2.779041
  10 H     1.0000    0     1.008    4.176631   -1.830280   -1.538489
  11 H     1.0000    0     1.008    2.098207    2.509911   -1.678741
  12 H     1.0000    0     1.008   -0.484590    1.121594   -3.258544
  13 H     1.0000    0     1.008    2.549577   -0.289171   -6.722309
  14 H     1.0000    0     1.008    2.250909    2.985676   -6.414671
  15 H     1.0000    0     1.008    1.325808   -3.411274    1.684047
  16 O     8.0000    0    15.999    4.154806    1.718418    3.641893
  17 H     1.0000    0     1.008    4.603938    3.122330    2.561667
  18 O     8.0000    0    15.999   12.160870    2.250752   -7.190964
  19 H     1.0000    0     1.008   12.454236    2.394310   -5.380524
  20 H     1.0000    0     1.008    3.502064    2.476582    5.169675
  21 H     1.0000    0     1.008   10.332006    1.891943   -7.268741
  22 O     8.0000    0    15.999   11.601177    2.499931   -1.811790
  23 H     1.0000    0     1.008    9.793776    2.340140   -2.316253
  24 H     1.0000    0     1.008   12.035069    0.908415   -1.037232

--------------------------------
INTERNAL COORDINATES (ANGSTROEM)
--------------------------------
 N      0   0   0     0.000000000000     0.00000000     0.00000000
 C      1   0   0     1.499728916135     0.00000000     0.00000000
 C      2   1   0     1.519109139583   110.87697938     0.00000000
 C      3   2   1     1.524917846135   111.55124918   171.34765175
 C      4   3   2     1.536416872351   115.22797827   291.23006485
 O      5   4   3     1.261202318209   117.77284903   342.68836809
 O      5   4   3     1.257844923628   116.31983933   163.99883950
 H      1   2   3     1.041963199251   109.96334922   293.97764869
 H      1   2   3     1.020375050021   111.24527831    54.40832249
 H      2   1   3     1.088911557645   107.37921099   237.77272328
 H      2   1   3     1.088023462926   106.23628353   121.14826621
 H      3   2   1     1.091140983143   109.50189964    50.40381762
 H      3   2   1     1.093690004015   109.16595828   292.89701452
 H      4   3   2     1.092832280350   110.99144983    54.63791868
 H      4   3   2     1.093779533762   109.28337065   171.34568714
 H      1   2   3     1.020204697781   111.49988001   174.27759794
 O      8   1   2     1.787248858092   167.94877766   325.45554325
 H     17   8   1     0.967045522942   110.57186554    70.21722486
 O      7   5   4     2.745407219040   118.60240075   173.27498177
 H     19   7   5     0.973508185618   100.42207506    12.91447167
 H     17   8   1     0.966383012313   114.85802568   189.16266950
 H     19   7   5     0.987101823236     1.84087203   194.10359603
 O     20  19   7     1.942500600576   157.21124774   355.98459093
 H     23  20  19     0.996584753052    87.71727761   357.16220637
 H     23  20  19     0.964370610291   109.43561129   102.86322388

---------------------------
INTERNAL COORDINATES (A.U.)
---------------------------
 N      0   0   0     0.000000000000     0.00000000     0.00000000
 C      1   0   0     2.834076926617     0.00000000     0.00000000
 C      2   1   0     2.870700241348   110.87697938     0.00000000
 C      3   2   1     2.881677105924   111.55124918   171.34765175
 C      4   3   2     2.903407116279   115.22797827   291.23006485
 O      5   4   3     2.383326980882   117.77284903   342.68836809
 O      5   4   3     2.376982424600   116.31983933   163.99883950
 H      1   2   3     1.969025088209   109.96334922   293.97764869
 H      1   2   3     1.928229398427   111.24527831    54.40832249
 H      2   1   3     2.057744628011   107.37921099   237.77272328
 H      2   1   3     2.056066372211   106.23628353   121.14826621
 H      3   2   1     2.061957631639   109.50189964    50.40381762
 H      3   2   1     2.066774582995   109.16595828   292.89701452
 H      4   3   2     2.065153720170   110.99144983    54.63791868
 H      4   3   2     2.066943769698   109.28337065   171.34568714
 H      1   2   3     1.927907479346   111.49988001   174.27759794
 O      8   1   2     3.377410874957   167.94877766   325.45554325
 H     17   8   1     1.827451197395   110.57186554    70.21722486
 O      7   5   4     5.188067770076   118.60240075   173.27498177
 H     19   7   5     1.839663859950   100.42207506    12.91447167
 H     17   8   1     1.826199233746   114.85802568   189.16266950
 H     19   7   5     1.865352112210     1.84087203   194.10359603
 O     20  19   7     3.670794150066   157.21124774   355.98459093
 H     23  20  19     1.883272252510    87.71727761   357.16220637
 H     23  20  19     1.822396345052   109.43561129   102.86322388

---------------------
BASIS SET INFORMATION
---------------------
There are 4 groups of distinct atoms

 Group   1 Type N   : 11s6p2d1f contracted to 5s3p2d1f pattern {62111/411/11/1}
 Group   2 Type C   : 11s6p2d1f contracted to 5s3p2d1f pattern {62111/411/11/1}
 Group   3 Type O   : 11s6p2d1f contracted to 5s3p2d1f pattern {62111/411/11/1}
 Group   4 Type H   : 5s1p contracted to 3s1p pattern {311/1}

Atom   0N    basis set group =>   1
Atom   1C    basis set group =>   2
Atom   2C    basis set group =>   2
Atom   3C    basis set group =>   2
Atom   4C    basis set group =>   2
Atom   5O    basis set group =>   3
Atom   6O    basis set group =>   3
Atom   7H    basis set group =>   4
Atom   8H    basis set group =>   4
Atom   9H    basis set group =>   4
Atom  10H    basis set group =>   4
Atom  11H    basis set group =>   4
Atom  12H    basis set group =>   4
Atom  13H    basis set group =>   4
Atom  14H    basis set group =>   4
Atom  15H    basis set group =>   4
Atom  16O    basis set group =>   3
Atom  17H    basis set group =>   4
Atom  18O    basis set group =>   3
Atom  19H    basis set group =>   4
Atom  20H    basis set group =>   4
Atom  21H    basis set group =>   4
Atom  22O    basis set group =>   3
Atom  23H    basis set group =>   4
Atom  24H    basis set group =>   4
---------------------------------
AUXILIARY/J BASIS SET INFORMATION
---------------------------------
There are 4 groups of distinct atoms

 Group   1 Type N   : 12s5p4d2f1g contracted to 6s4p3d1f1g pattern {711111/2111/211/2/1}
 Group   2 Type C   : 12s5p4d2f1g contracted to 6s4p3d1f1g pattern {711111/2111/211/2/1}
 Group   3 Type O   : 12s5p4d2f1g contracted to 6s4p3d1f1g pattern {711111/2111/211/2/1}
 Group   4 Type H   : 5s2p1d contracted to 3s1p1d pattern {311/2/1}

Atom   0N    basis set group =>   1
Atom   1C    basis set group =>   2
Atom   2C    basis set group =>   2
Atom   3C    basis set group =>   2
Atom   4C    basis set group =>   2
Atom   5O    basis set group =>   3
Atom   6O    basis set group =>   3
Atom   7H    basis set group =>   4
Atom   8H    basis set group =>   4
Atom   9H    basis set group =>   4
Atom  10H    basis set group =>   4
Atom  11H    basis set group =>   4
Atom  12H    basis set group =>   4
Atom  13H    basis set group =>   4
Atom  14H    basis set group =>   4
Atom  15H    basis set group =>   4
Atom  16O    basis set group =>   3
Atom  17H    basis set group =>   4
Atom  18O    basis set group =>   3
Atom  19H    basis set group =>   4
Atom  20H    basis set group =>   4
Atom  21H    basis set group =>   4
Atom  22O    basis set group =>   3
Atom  23H    basis set group =>   4
Atom  24H    basis set group =>   4
--------------------------------------------------------------------------
WARNING: There was an error initializing an OpenFabrics device.

  Local host:   ga03
  Local device: mlx5_0
--------------------------------------------------------------------------


           ************************************************************
           *        Program running with 10 parallel MPI-processes    *
           *              working on a common directory               *
           ************************************************************
------------------------------------------------------------------------------
                             ORCA STARTUP CALCULATIONS
                           -- RI-GTO INTEGRALS CHOSEN --
------------------------------------------------------------------------------
------------------------------------------------------------------------------
                   ___                                                        
                  /   \      - P O W E R E D   B Y -                         
                 /     \                                                     
                 |  |  |   _    _      __       _____    __    __             
                 |  |  |  | |  | |    /  \     |  _  \  |  |  /  |          
                  \  \/   | |  | |   /    \    | | | |  |  | /  /          
                 / \  \   | |__| |  /  /\  \   | |_| |  |  |/  /          
                |  |  |   |  __  | /  /__\  \  |    /   |      \           
                |  |  |   | |  | | |   __   |  |    \   |  |\   \          
                \     /   | |  | | |  |  |  |  | |\  \  |  | \   \       
                 \___/    |_|  |_| |__|  |__|  |_| \__\ |__|  \__/        
                                                                              
                      - O R C A' S   B I G   F R I E N D -                    
                                      &                                       
                       - I N T E G R A L  F E E D E R -                       
                                                                              
 v1 FN, 2020, v2 2021, v3 2022-2024                                           
------------------------------------------------------------------------------


----------------------
SHARK INTEGRAL PACKAGE
----------------------

Number of atoms                             ...     25
Number of basis functions                   ...    400
Number of shells                            ...    170
Maximum angular momentum                    ...      3
Integral batch strategy                     ... SHARK/LIBINT Hybrid
RI-J (if used) integral strategy            ... SPLIT-RIJ (Revised 2003 algorithm where possible)
Printlevel                                  ...      1
Contraction scheme used                     ... SEGMENTED contraction
Prescreening option                         ... SCHWARTZ
   Thresh                                   ... 2.500e-11
   Tcut                                     ... 2.500e-12
   Tpresel                                  ... 2.500e-12 
Coulomb Range Separation                    ... NOT USED
Exchange Range Separation                   ... NOT USED
Multipole approximations                    ... NOT USED
Finite Nucleus Model                        ... NOT USED
CABS basis                                  ... NOT available
Auxiliary Coulomb fitting basis             ... AVAILABLE
   # of basis functions in Aux-J            ...    655
   # of shells in Aux-J                     ...    225
   Maximum angular momentum in Aux-J        ...      4
Auxiliary J/K fitting basis                 ... NOT available
Auxiliary Correlation fitting basis         ... NOT available
Auxiliary 'external' fitting basis          ... NOT available

Checking pre-screening integrals            ... done (  0.0 sec) Dimension = 170
Check shell pair data                       ... done (  0.0 sec)
Shell pair information
Shell pair cut-off parameter TPreSel        ...   2.5e-12
Total number of shell pairs                 ...     14535
Shell pairs after pre-screening             ...     11355
Total number of primitive shell pairs       ...     42460
Primitive shell pairs kept                  ...     23497
          la=0 lb=0:   3573 shell pairs
          la=1 lb=0:   3414 shell pairs
          la=1 lb=1:    849 shell pairs
          la=2 lb=0:   1442 shell pairs
          la=2 lb=1:    710 shell pairs
          la=2 lb=2:    161 shell pairs
          la=3 lb=0:    688 shell pairs
          la=3 lb=1:    338 shell pairs
          la=3 lb=2:    142 shell pairs
          la=3 lb=3:     38 shell pairs

Calculating one electron integrals          ... done (  0.0 sec)
Calculating RI/J V-Matrix + Cholesky decomp.... done (  0.0 sec)
Calculating Nuclear repulsion               ... done (  0.0 sec) ENN=    586.783919454713 Eh

Diagonalization of the overlap matrix:
Smallest eigenvalue                        ... 1.336e-04
Time for diagonalization                   ...    0.015 sec
Threshold for overlap eigenvalues          ... 1.000e-07
Number of eigenvalues below threshold      ... 0
Time for construction of square roots      ...    0.008 sec
Total time needed                          ...    0.026 sec

-------------------
DFT GRID GENERATION
-------------------

General Integration Accuracy     IntAcc      ... 4.388
Radial Grid Type                 RadialGrid  ... OptM3 with GC (2021)
Angular Grid (max. ang.)         AngularGrid ... 4 (Lebedev-302)
Angular grid pruning method      GridPruning ... 4 (adaptive)
Weight generation scheme         WeightScheme... mBecke (2022)
Basis function cutoff            BFCut       ... 1.0000e-11
Integration weight cutoff        WCut        ... 1.0000e-14
Partially contracted basis set               ... off
Rotationally invariant grid construction     ... off
Angular grids for H and He will be reduced by one unit

Total number of grid points                  ...   108642
Total number of batches                      ...     1710
Average number of points per batch           ...       63
Average number of grid points per atom       ...     4346

--------------------
COSX GRID GENERATION
--------------------

GRIDX 1
-------
General Integration Accuracy     IntAcc      ... 3.816
Radial Grid Type                 RadialGrid  ... OptM3 with GC (2021)
Angular Grid (max. ang.)         AngularGrid ... 1 (Lebedev-50)
Angular grid pruning method      GridPruning ... 4 (adaptive)
Weight generation scheme         WeightScheme... mBecke (2022)
Basis function cutoff            BFCut       ... 1.0000e-11
Integration weight cutoff        WCut        ... 1.0000e-14
Partially contracted basis set               ... on
Rotationally invariant grid construction     ... off
Angular grids for H and He will be reduced by one unit

Total number of grid points                  ...    13924
Total number of batches                      ...      122
Average number of points per batch           ...      114
Average number of grid points per atom       ...      557
UseSFitting                                  ... on

GRIDX 2
-------
General Integration Accuracy     IntAcc      ... 4.020
Radial Grid Type                 RadialGrid  ... OptM3 with GC (2021)
Angular Grid (max. ang.)         AngularGrid ... 2 (Lebedev-110)
Angular grid pruning method      GridPruning ... 4 (adaptive)
Weight generation scheme         WeightScheme... mBecke (2022)
Basis function cutoff            BFCut       ... 1.0000e-11
Integration weight cutoff        WCut        ... 1.0000e-14
Partially contracted basis set               ... on
Rotationally invariant grid construction     ... off
Angular grids for H and He will be reduced by one unit

Total number of grid points                  ...    29381
Total number of batches                      ...      241
Average number of points per batch           ...      121
Average number of grid points per atom       ...     1175
UseSFitting                                  ... on

GRIDX 3
-------
General Integration Accuracy     IntAcc      ... 4.338
Radial Grid Type                 RadialGrid  ... OptM3 with GC (2021)
Angular Grid (max. ang.)         AngularGrid ... 3 (Lebedev-194)
Angular grid pruning method      GridPruning ... 4 (adaptive)
Weight generation scheme         WeightScheme... mBecke (2022)
Basis function cutoff            BFCut       ... 1.0000e-11
Integration weight cutoff        WCut        ... 1.0000e-14
Partially contracted basis set               ... on
Rotationally invariant grid construction     ... off
Angular grids for H and He will be reduced by one unit

Total number of grid points                  ...    64038
Total number of batches                      ...      513
Average number of points per batch           ...      124
Average number of grid points per atom       ...     2562
UseSFitting                                  ... on
Initializing property integral containers    ... done (  0.0 sec)

SHARK setup successfully completed in   1.0 seconds

Maximum memory used throughout the entire STARTUP-calculation: 38.1 MB
[ga03:3476826] 9 more processes have sent help message help-mpi-btl-openib.txt / error in device init
[ga03:3476826] Set MCA parameter "orte_base_help_aggregate" to 0 to see all help / error messages
--------------------------------------------------------------------------
WARNING: There was an error initializing an OpenFabrics device.

  Local host:   ga03
  Local device: mlx5_0
--------------------------------------------------------------------------


           ************************************************************
           *        Program running with 10 parallel MPI-processes    *
           *              working on a common directory               *
           ************************************************************
-------------------------------------------------------------------------------
                                 ORCA GUESS
                   Start orbitals & Density for SCF / CASSCF
-------------------------------------------------------------------------------

------------
SCF SETTINGS
------------
Hamiltonian:
 Density Functional     Method          .... DFT(GTOs)
 Exchange Functional    Exchange        .... B88
   X-Alpha parameter    XAlpha          ....  0.666667
   Becke's b parameter  XBeta           ....  0.004200
 Correlation Functional Correlation     .... LYP
 LDA part of GGA corr.  LDAOpt          .... VWN-5
 Gradients option       PostSCFGGA      .... off
 Hybrid DFT is turned on
   Fraction HF Exchange ScalHFX         ....  0.200000
   Scaling of DF-GGA-X  ScalDFX         ....  0.720000
   Scaling of DF-GGA-C  ScalDFC         ....  0.810000
   Scaling of DF-LDA-C  ScalLDAC        ....  1.000000
   Perturbative correction              ....  0.000000
   NL short-range parameter             ....  4.800000
 RI-approximation to the Coulomb term is turned on
   Number of AuxJ basis functions       .... 655
   RIJ-COSX (HFX calculated with COS-X)).... on


General Settings:
 Integral files         IntName         .... 02_Aminobutyric-acid_zwitterion
 Hartree-Fock type      HFTyp           .... RHF
 Total Charge           Charge          ....    0
 Multiplicity           Mult            ....    1
 Number of Electrons    NEL             ....   86
 Basis Dimension        Dim             ....  400
 Nuclear Repulsion      ENuc            ....    586.7839194547 Eh

Convergence Acceleration:
 AO-DIIS                CNVDIIS         .... on
   Start iteration      DIISMaxIt       ....    12
   Startup error        DIISStart       ....  0.200000
   # of expansion vecs  DIISMaxEq       ....     5
   Bias factor          DIISBfac        ....   1.050
   Max. coefficient     DIISMaxC        ....  10.000
 MO-DIIS                CNVKDIIS        .... off
 Trust-Rad. Augm. Hess. CNVTRAH         .... auto
   Auto Start mean grad. ratio tolernc. ....  1.125000
   Auto Start start iteration           ....    50
   Auto Start num. interpolation iter.  ....    10
   Max. Number of Micro iterations      ....    24
   Max. Number of Macro iterations      .... Maxiter - #DIIS iter
   Number of Davidson start vectors     ....     2
   Converg. threshold    (grad. norm)   ....   1.000e-05
   Grad. Scal. Fac. for Micro threshold ....   0.100
   Minimum threshold for Micro iter.    ....   1.000e-02
   NR start threshold (gradient norm)   ....   1.000e-04
   Initial trust radius                 ....   0.400
   Minimum AH scaling param. (alpha)    ....   1.000
   Maximum AH scaling param. (alpha)    .... 1000.000
   Quad. conv. algorithm                .... NR
   White noise on init. David. guess    .... on
   Maximum white noise                  ....   0.010
   Pseudo random numbers                .... off
   Inactive MOs                         .... canonical
   Orbital update algorithm             .... Taylor
   Preconditioner                       .... Diag
   Full preconditioner red. dimension   ....   250
 SOSCF                  CNVSOSCF        .... on
   Start iteration      SOSCFMaxIt      ....   150
   Startup grad/error   SOSCFStart      ....  0.003300
   Hessian update       SOSCFHessUp     .... L-BFGS
 Level Shifting         CNVShift        .... on
   Level shift para.    LevelShift      ....    0.2500
   Turn off err/grad.   ShiftErr        ....    0.0010
 Zerner damping         CNVZerner       .... off
 Static damping         CNVDamp         .... on
   Fraction old density DampFac         ....    0.7000
   Max. Damping (<1)    DampMax         ....    0.9800
   Min. Damping (>=0)   DampMin         ....    0.0000
   Turn off err/grad.   DampErr         ....    0.1000

SCF Procedure:
 Maximum # iterations   MaxIter         ....   125
 SCF integral mode      SCFMode         .... Direct
   Integral package                     .... SHARK and LIBINT hybrid scheme
 Reset frequency        DirectResetFreq ....    20
 Integral Threshold     Thresh          ....  2.500e-11 Eh
 Primitive CutOff       TCut            ....  2.500e-12 Eh

Convergence Tolerance:
 Convergence Check Mode ConvCheckMode   .... Total+1el-Energy
 Convergence forced     ConvForced      .... 0
 Energy Change          TolE            ....  1.000e-08 Eh
 1-El. energy change                    ....  1.000e-05 Eh
 Orbital Gradient       TolG            ....  1.000e-05
 Orbital Rotation angle TolX            ....  1.000e-05
 DIIS Error             TolErr          ....  5.000e-07

------------------------------
INITIAL GUESS: MODEL POTENTIAL
------------------------------
Loading Hartree-Fock densities                     ... done
Calculating cut-offs                               ... done
Initializing the effective Hamiltonian             ... done
Setting up the integral package (SHARK)            ... done
Starting the Coulomb interaction                   ... done (   0.1 sec)
Making the grid                                    ... done (   0.1 sec)
Mapping shells                                     ... done
Starting the XC term evaluation                    ... done (   0.0 sec)
  promolecular density results
     # of electrons  =     85.990701700
     EX              =    -72.582091436
     EC              =     -2.924347877
     EX+EC           =    -75.506439313
Transforming the Hamiltonian                       ... done (   0.0 sec)
Diagonalizing the Hamiltonian                      ... done (   0.0 sec)
Back transforming the eigenvectors                 ... done (   0.0 sec)
Now organizing SCF variables                       ... done
                      ------------------
                      INITIAL GUESS DONE (   0.2 sec)
                      ------------------
             **** ENERGY FILE WAS UPDATED (02_Aminobutyric-acid_zwitterion.en.tmp) ****
Finished Guess after   0.6 sec
Maximum memory used throughout the entire GUESS-calculation: 25.6 MB
[ga03:3476959] 9 more processes have sent help message help-mpi-btl-openib.txt / error in device init
[ga03:3476959] Set MCA parameter "orte_base_help_aggregate" to 0 to see all help / error messages
--------------------------------------------------------------------------
WARNING: There was an error initializing an OpenFabrics device.

  Local host:   ga03
  Local device: mlx5_0
--------------------------------------------------------------------------


           ************************************************************
           *        Program running with 10 parallel MPI-processes    *
           *              working on a common directory               *
           ************************************************************

-------------------------------------------------------------------------------------------
                                      ORCA LEAN-SCF
                              memory conserving SCF solver
-------------------------------------------------------------------------------------------

--------------------
CPCM SOLVATION MODEL
--------------------
CPCM parameters:
  Epsilon                                         ...      80.1510
  Refrac                                          ...       1.3328
  Rsolv                                           ...       1.3000
  Surface type                                    ... GAUSSIAN VDW
  Discretization scheme                           ... Constant charge density
    Threshold for H atoms                         ...       5.0000 (charges/Ang^2)
    Threshold for non-H atoms                     ...       5.0000 (charges/Ang^2)
  Epsilon function type                           ...         CPCM
Solvent:                                          ... WATER
Radii:
  Scheme                                          ... Element-dependent radii
  Radius for N  used is    3.5149 Bohr (=   1.8600 Ang.)
  Radius for C  used is    3.8550 Bohr (=   2.0400 Ang.)
  Radius for O  used is    3.4469 Bohr (=   1.8240 Ang.)
  Radius for H  used is    2.4944 Bohr (=   1.3200 Ang.)
Calculating surface                               ...        done! (  0.0s)
Cavity surface points                             ...         2096
Cavity Volume                                     ...    1382.8671
Cavity Surface-area                               ...     849.1129
Calculating surface distance matrix               ...        done! (  0.0s)
Performing Cholesky decomposition & store         ...        done! (  0.1s)
Overall time for CPCM initialization              ...                 0.1s

----------------------------------------D-I-I-S--------------------------------------------
Iteration    Energy (Eh)           Delta-E    RMSDP     MaxDP     DIISErr   Damp  Time(sec)
-------------------------------------------------------------------------------------------
               ***  Starting incremental Fock matrix formation  ***
    1    -591.7966864101518922     0.00e+00  1.78e-03  1.09e-01  3.61e-01  0.700   1.7
    2    -592.0731737254687914    -2.76e-01  1.30e-03  9.97e-02  1.50e-01  0.700   1.1
                               ***Turning on AO-DIIS***
    3    -592.1675479794092780    -9.44e-02  4.49e-04  2.33e-02  3.94e-02  0.700   1.1
[ga03:3477048] 9 more processes have sent help message help-mpi-btl-openib.txt / error in device init
[ga03:3477048] Set MCA parameter "orte_base_help_aggregate" to 0 to see all help / error messages
    4    -592.2266534689252921    -5.91e-02  5.35e-04  1.84e-02  1.67e-02  0.000   1.0
    5    -592.3616683093033544    -1.35e-01  2.69e-04  2.67e-02  9.37e-03  0.000   1.1
                              *** Initializing SOSCF ***
---------------------------------------S-O-S-C-F--------------------------------------
Iteration    Energy (Eh)           Delta-E    RMSDP     MaxDP     MaxGrad    Time(sec)
--------------------------------------------------------------------------------------
    6    -592.3623125838952319    -6.44e-04  9.40e-05  8.51e-03  2.38e-03     1.1
               *** Restarting incremental Fock matrix formation ***
    7    -592.3623195796720893    -7.00e-06  6.05e-05  4.31e-03  2.64e-04     1.7
    8    -592.3623224482934120    -2.87e-06  1.34e-05  6.75e-04  1.50e-04     1.3
    9    -592.3623243015978233    -1.85e-06  1.27e-05  8.76e-04  9.43e-05     1.2
   10    -592.3623243108298766    -9.23e-09  3.00e-06  1.34e-04  1.04e-04     1.2
                 **** Energy Check signals convergence ****

               *****************************************************
               *                     SUCCESS                       *
               *           SCF CONVERGED AFTER  10 CYCLES          *
               *****************************************************

Recomputing exchange energy using gridx3       ... done (    2.377 sec)
Old exchange energy                            :    -14.767043510 Eh
New exchange energy                            :    -14.767038717 Eh
Exchange energy change after final integration :      0.000004793 Eh
Total energy after final integration           :   -592.362319518 Eh
             **** ENERGY FILE WAS UPDATED (02_Aminobutyric-acid_zwitterion.en.tmp) ****

----------------
TOTAL SCF ENERGY
----------------

Total Energy       :       -592.36231951768343 Eh          -16118.99819 eV

Components:
Nuclear Repulsion  :        586.78391945471287 Eh           15967.20221 eV
Electronic Energy  :      -1179.03234807881927 Eh          -32083.10126 eV
One Electron Energy:      -1977.05264283647193 Eh          -53798.33747 eV
Two Electron Energy:        798.02029475765266 Eh           21715.23620 eV
CPCM Dielectric    :         -0.11389568672355 Eh              -3.09926 eV

Virial components:
Potential Energy   :      -1182.20967451238721 Eh          -32169.56071 eV
Kinetic Energy     :        589.84735499470378 Eh           16050.56252 eV
Virial Ratio       :          2.00426375485400

DFT components:
N(Alpha)           :       43.000120589049 electrons
N(Beta)            :       43.000120589049 electrons
N(Total)           :       86.000241178098 electrons
E(X)               :      -58.761787572235 Eh       
E(C)               :       -3.463258240635 Eh       
E(XC)              :      -62.225045812870 Eh       

CPCM Solvation Model Properties:
Surface-charge          :         -0.02318068077587
Corrected charge        :         -0.00000000000000
Outlying charge corr.   :          0.00003449690036 Eh               0.00094 eV
Free-energy (cav+disp)  :  This term is not implemented in the current solvation scheme

---------------
SCF CONVERGENCE
---------------

  Last Energy change         ...    9.2321e-09  Tolerance :   1.0000e-08
  Last MAX-Density change    ...    1.3434e-04  Tolerance :   1.0000e-07
  Last RMS-Density change    ...    3.0042e-06  Tolerance :   5.0000e-09
  Last DIIS Error            ...    2.3795e-03  Tolerance :   5.0000e-07
  Last Orbital Gradient      ...    1.0353e-04  Tolerance :   1.0000e-05
  Last Orbital Rotation      ...    1.2299e-04  Tolerance :   1.0000e-05


----------------
ORBITAL ENERGIES
----------------

  NO   OCC          E(Eh)            E(eV) 
   0   2.0000     -19.144379      -520.9450 
   1   2.0000     -19.104515      -519.8603 
   2   2.0000     -19.081521      -519.2346 
   3   2.0000     -19.075757      -519.0777 
   4   2.0000     -19.071264      -518.9555 
   5   2.0000     -14.409024      -392.0895 
   6   2.0000     -10.259749      -279.1820 
   7   2.0000     -10.219204      -278.0787 
   8   2.0000     -10.171187      -276.7721 
   9   2.0000     -10.163623      -276.5662 
  10   2.0000      -1.034252       -28.1434 
  11   2.0000      -1.027802       -27.9679 
  12   2.0000      -0.987871       -26.8813 
  13   2.0000      -0.981026       -26.6951 
  14   2.0000      -0.965839       -26.2818 
  15   2.0000      -0.942791       -25.6547 
  16   2.0000      -0.792804       -21.5733 
  17   2.0000      -0.701759       -19.0958 
  18   2.0000      -0.620470       -16.8839 
  19   2.0000      -0.570264       -15.5177 
  20   2.0000      -0.555254       -15.1092 
  21   2.0000      -0.543353       -14.7854 
  22   2.0000      -0.525994       -14.3130 
  23   2.0000      -0.502313       -13.6686 
  24   2.0000      -0.493861       -13.4386 
  25   2.0000      -0.479006       -13.0344 
  26   2.0000      -0.459868       -12.5136 
  27   2.0000      -0.437416       -11.9027 
  28   2.0000      -0.427463       -11.6318 
  29   2.0000      -0.421022       -11.4566 
  30   2.0000      -0.407491       -11.0884 
  31   2.0000      -0.387723       -10.5505 
  32   2.0000      -0.375978       -10.2309 
  33   2.0000      -0.367835       -10.0093 
  34   2.0000      -0.364536        -9.9195 
  35   2.0000      -0.351918        -9.5762 
  36   2.0000      -0.342109        -9.3093 
  37   2.0000      -0.333079        -9.0635 
  38   2.0000      -0.299798        -8.1579 
  39   2.0000      -0.285010        -7.7555 
  40   2.0000      -0.265268        -7.2183 
  41   2.0000      -0.252162        -6.8617 
  42   2.0000      -0.245968        -6.6931 
  43   0.0000       0.014314         0.3895 
  44   0.0000       0.037570         1.0223 
  45   0.0000       0.041802         1.1375 
  46   0.0000       0.047050         1.2803 
  47   0.0000       0.058573         1.5938 
  48   0.0000       0.076998         2.0952 
  49   0.0000       0.096160         2.6167 
  50   0.0000       0.099002         2.6940 
  51   0.0000       0.112923         3.0728 
  52   0.0000       0.117032         3.1846 
  53   0.0000       0.130006         3.5376 
*Only the first 10 virtual orbitals were printed.

                    ********************************
                    * MULLIKEN POPULATION ANALYSIS *
                    ********************************

-----------------------
MULLIKEN ATOMIC CHARGES
-----------------------
   0 N :   -0.252822
   1 C :   -0.160796
   2 C :   -0.129711
   3 C :   -0.205451
   4 C :    0.322020
   5 O :   -0.591261
   6 O :   -0.585422
   7 H :    0.307788
   8 H :    0.314928
   9 H :    0.154315
  10 H :    0.154307
  11 H :    0.098668
  12 H :    0.121513
  13 H :    0.106446
  14 H :    0.125417
  15 H :    0.320659
  16 O :   -0.693592
  17 H :    0.374323
  18 O :   -0.769879
  19 H :    0.328547
  20 H :    0.375778
  21 H :    0.331865
  22 O :   -0.750736
  23 H :    0.353488
  24 H :    0.349607
Sum of atomic charges:    0.0000000

--------------------------------
MULLIKEN REDUCED ORBITAL CHARGES
--------------------------------
  0 N s       :     3.429025  s :     3.429025
      pz      :     1.229823  p :     3.778486
      px      :     1.262860
      py      :     1.285803
      dz2     :     0.008970  d :     0.043141
      dxz     :     0.007743
      dyz     :     0.015378
      dx2y2   :     0.008947
      dxy     :     0.002102
      f0      :     0.000512  f :     0.002171
      f+1     :     0.000432
      f-1     :     0.000288
      f+2     :     0.000276
      f-2     :     0.000187
      f+3     :     0.000263
      f-3     :     0.000214

  1 C s       :     3.273381  s :     3.273381
      pz      :     0.754143  p :     2.780776
      px      :     1.022494
      py      :     1.004139
      dz2     :     0.025196  d :     0.098713
      dxz     :     0.015484
      dyz     :     0.023796
      dx2y2   :     0.019788
      dxy     :     0.014450
      f0      :     0.001634  f :     0.007926
      f+1     :     0.001429
      f-1     :     0.001589
      f+2     :     0.001026
      f-2     :     0.000742
      f+3     :     0.001014
      f-3     :     0.000492

  2 C s       :     3.192982  s :     3.192982
      pz      :     0.942479  p :     2.844053
      px      :     0.987863
      py      :     0.913711
      dz2     :     0.017570  d :     0.086659
      dxz     :     0.008776
      dyz     :     0.029620
      dx2y2   :     0.020954
      dxy     :     0.009738
      f0      :     0.000879  f :     0.006017
      f+1     :     0.000705
      f-1     :     0.001163
      f+2     :     0.001258
      f-2     :     0.000720
      f+3     :     0.000822
      f-3     :     0.000471

  3 C s       :     3.206828  s :     3.206828
      pz      :     0.973469  p :     2.916889
      px      :     0.914610
      py      :     1.028811
      dz2     :     0.014521  d :     0.076036
      dxz     :     0.016004
      dyz     :     0.018912
      dx2y2   :     0.016686
      dxy     :     0.009915
      f0      :     0.001212  f :     0.005697
      f+1     :     0.000992
      f-1     :     0.000501
      f+2     :     0.001437
      f-2     :     0.000413
      f+3     :     0.000647
      f-3     :     0.000496

  4 C s       :     3.060700  s :     3.060700
      pz      :     0.729494  p :     2.345492
      px      :     0.864085
      py      :     0.751913
      dz2     :     0.082624  d :     0.246432
      dxz     :     0.055262
      dyz     :     0.060606
      dx2y2   :     0.023648
      dxy     :     0.024292
      f0      :     0.007895  f :     0.025355
      f+1     :     0.004423
      f-1     :     0.003321
      f+2     :     0.004197
      f-2     :     0.003496
      f+3     :     0.000873
      f-3     :     0.001150

  5 O s       :     3.840692  s :     3.840692
      pz      :     1.443746  p :     4.724582
      px      :     1.706358
      py      :     1.574479
      dz2     :     0.008217  d :     0.024392
      dxz     :     0.006301
      dyz     :     0.006673
      dx2y2   :     0.001939
      dxy     :     0.001262
      f0      :     0.000426  f :     0.001595
      f+1     :     0.000404
      f-1     :     0.000307
      f+2     :     0.000199
      f-2     :     0.000210
      f+3     :     0.000032
      f-3     :     0.000017

  6 O s       :     3.821277  s :     3.821277
      pz      :     1.510647  p :     4.737495
      px      :     1.637849
      py      :     1.589000
      dz2     :     0.007804  d :     0.025063
      dxz     :     0.007050
      dyz     :     0.005994
      dx2y2   :     0.001979
      dxy     :     0.002236
      f0      :     0.000361  f :     0.001587
      f+1     :     0.000433
      f-1     :     0.000214
      f+2     :     0.000222
      f-2     :     0.000279
      f+3     :     0.000037
      f-3     :     0.000041

  7 H s       :     0.647427  s :     0.647427
      pz      :     0.014561  p :     0.044784
      px      :     0.012668
      py      :     0.017555

  8 H s       :     0.651466  s :     0.651466
      pz      :     0.006270  p :     0.033607
      px      :     0.020419
      py      :     0.006918

  9 H s       :     0.824351  s :     0.824351
      pz      :     0.006197  p :     0.021333
      px      :     0.005179
      py      :     0.009957

 10 H s       :     0.823768  s :     0.823768
      pz      :     0.003253  p :     0.021925
      px      :     0.014053
      py      :     0.004619

 11 H s       :     0.879236  s :     0.879236
      pz      :     0.007518  p :     0.022096
      px      :     0.005202
      py      :     0.009377

 12 H s       :     0.856934  s :     0.856934
      pz      :     0.004539  p :     0.021553
      px      :     0.012842
      py      :     0.004172

 13 H s       :     0.871684  s :     0.871684
      pz      :     0.008087  p :     0.021869
      px      :     0.004680
      py      :     0.009103

 14 H s       :     0.852416  s :     0.852416
      pz      :     0.006675  p :     0.022167
      px      :     0.005530
      py      :     0.009962

 15 H s       :     0.645929  s :     0.645929
      pz      :     0.008985  p :     0.033411
      px      :     0.006396
      py      :     0.018031

 16 O s       :     3.798524  s :     3.798524
      pz      :     1.429532  p :     4.875572
      px      :     1.853134
      py      :     1.592905
      dz2     :     0.001004  d :     0.018244
      dxz     :     0.001847
      dyz     :     0.008687
      dx2y2   :     0.003871
      dxy     :     0.002834
      f0      :     0.000099  f :     0.001253
      f+1     :     0.000319
      f-1     :     0.000219
      f+2     :     0.000196
      f-2     :     0.000253
      f+3     :     0.000096
      f-3     :     0.000071

 17 H s       :     0.580961  s :     0.580961
      pz      :     0.013745  p :     0.044716
      px      :     0.014328
      py      :     0.016644

 18 O s       :     3.784222  s :     3.784222
      pz      :     1.501637  p :     4.966319
      px      :     1.519206
      py      :     1.945476
      dz2     :     0.010006  d :     0.018224
      dxz     :     0.000728
      dyz     :     0.001070
      dx2y2   :     0.005027
      dxy     :     0.001393
      f0      :     0.000379  f :     0.001114
      f+1     :     0.000132
      f-1     :     0.000059
      f+2     :     0.000044
      f-2     :     0.000018
      f+3     :     0.000309
      f-3     :     0.000172

 19 H s       :     0.619850  s :     0.619850
      pz      :     0.026434  p :     0.051603
      px      :     0.010710
      py      :     0.014459

 20 H s       :     0.579288  s :     0.579288
      pz      :     0.017585  p :     0.044934
      px      :     0.015081
      py      :     0.012267

 21 H s       :     0.612482  s :     0.612482
      pz      :     0.009456  p :     0.055653
      px      :     0.031861
      py      :     0.014336

 22 O s       :     3.798453  s :     3.798453
      pz      :     1.816069  p :     4.932787
      px      :     1.525950
      py      :     1.590768
      dz2     :     0.002541  d :     0.018339
      dxz     :     0.001269
      dyz     :     0.003847
      dx2y2   :     0.008849
      dxy     :     0.001833
      f0      :     0.000270  f :     0.001157
      f+1     :     0.000125
      f-1     :     0.000065
      f+2     :     0.000334
      f-2     :     0.000114
      f+3     :     0.000220
      f-3     :     0.000029

 23 H s       :     0.589335  s :     0.589335
      pz      :     0.013971  p :     0.057177
      px      :     0.033493
      py      :     0.009714

 24 H s       :     0.604682  s :     0.604682
      pz      :     0.015685  p :     0.045711
      px      :     0.011660
      py      :     0.018366



                     *******************************
                     * LOEWDIN POPULATION ANALYSIS *
                     *******************************

----------------------
LOEWDIN ATOMIC CHARGES
----------------------
   0 N :    0.172789
   1 C :   -0.241412
   2 C :   -0.263156
   3 C :   -0.235222
   4 C :   -0.623659
   5 O :   -0.079504
   6 O :   -0.093874
   7 H :    0.189445
   8 H :    0.216363
   9 H :    0.144244
  10 H :    0.144589
  11 H :    0.140256
  12 H :    0.141822
  13 H :    0.144465
  14 H :    0.152324
  15 H :    0.217693
  16 O :   -0.277635
  17 H :    0.178972
  18 O :   -0.407943
  19 H :    0.128351
  20 H :    0.184282
  21 H :    0.126635
  22 O :   -0.353257
  23 H :    0.133171
  24 H :    0.160260

-------------------------------
LOEWDIN REDUCED ORBITAL CHARGES
-------------------------------
  0 N s       :     2.982267  s :     2.982267
      pz      :     1.228204  p :     3.686430
      px      :     1.225541
      py      :     1.232684
      dz2     :     0.033792  d :     0.148932
      dxz     :     0.028146
      dyz     :     0.046561
      dx2y2   :     0.031583
      dxy     :     0.008850
      f0      :     0.002008  f :     0.009583
      f+1     :     0.001833
      f-1     :     0.001410
      f+2     :     0.001001
      f-2     :     0.001717
      f+3     :     0.000833
      f-3     :     0.000780

  1 C s       :     2.797856  s :     2.797856
      pz      :     0.861297  p :     2.966245
      px      :     1.036904
      py      :     1.068044
      dz2     :     0.112599  d :     0.427514
      dxz     :     0.067033
      dyz     :     0.106364
      dx2y2   :     0.086427
      dxy     :     0.055091
      f0      :     0.010252  f :     0.049797
      f+1     :     0.009680
      f-1     :     0.009106
      f+2     :     0.004672
      f-2     :     0.007245
      f+3     :     0.005572
      f-3     :     0.003271

  2 C s       :     2.777819  s :     2.777819
      pz      :     1.019654  p :     3.054671
      px      :     1.024006
      py      :     1.011012
      dz2     :     0.077176  d :     0.391196
      dxz     :     0.055176
      dyz     :     0.115427
      dx2y2   :     0.099639
      dxy     :     0.043780
      f0      :     0.006475  f :     0.039469
      f+1     :     0.005058
      f-1     :     0.006955
      f+2     :     0.004835
      f-2     :     0.006738
      f+3     :     0.005673
      f-3     :     0.003735

  3 C s       :     2.784706  s :     2.784706
      pz      :     1.015721  p :     3.054715
      px      :     1.011534
      py      :     1.027460
      dz2     :     0.063847  d :     0.359569
      dxz     :     0.082189
      dyz     :     0.089845
      dx2y2   :     0.079405
      dxy     :     0.044284
      f0      :     0.007552  f :     0.036231
      f+1     :     0.006054
      f-1     :     0.002884
      f+2     :     0.006087
      f-2     :     0.004799
      f+3     :     0.004648
      f-3     :     0.004207

  4 C s       :     2.769393  s :     2.769393
      pz      :     0.963593  p :     2.693597
      px      :     0.985443
      py      :     0.744560
      dz2     :     0.321738  d :     1.001954
      dxz     :     0.279190
      dyz     :     0.205295
      dx2y2   :     0.106317
      dxy     :     0.089413
      f0      :     0.045816  f :     0.158715
      f+1     :     0.028164
      f-1     :     0.017682
      f+2     :     0.029782
      f-2     :     0.025605
      f+3     :     0.005541
      f-3     :     0.006125

  5 O s       :     3.414907  s :     3.414907
      pz      :     1.522118  p :     4.598501
      px      :     1.594098
      py      :     1.482285
      dz2     :     0.021737  d :     0.060845
      dxz     :     0.019471
      dyz     :     0.012222
      dx2y2   :     0.004714
      dxy     :     0.002701
      f0      :     0.001547  f :     0.005250
      f+1     :     0.001513
      f-1     :     0.000946
      f+2     :     0.000568
      f-2     :     0.000532
      f+3     :     0.000085
      f-3     :     0.000059

  6 O s       :     3.421657  s :     3.421657
      pz      :     1.543412  p :     4.606744
      px      :     1.576691
      py      :     1.486641
      dz2     :     0.019886  d :     0.060241
      dxz     :     0.020783
      dyz     :     0.009691
      dx2y2   :     0.006474
      dxy     :     0.003407
      f0      :     0.001293  f :     0.005232
      f+1     :     0.001708
      f-1     :     0.000598
      f+2     :     0.000872
      f-2     :     0.000536
      f+3     :     0.000140
      f-3     :     0.000085

  7 H s       :     0.681267  s :     0.681267
      pz      :     0.040400  p :     0.129287
      px      :     0.037244
      py      :     0.051643

  8 H s       :     0.682410  s :     0.682410
      pz      :     0.018639  p :     0.101227
      px      :     0.061859
      py      :     0.020729

  9 H s       :     0.794899  s :     0.794899
      pz      :     0.017149  p :     0.060858
      px      :     0.016629
      py      :     0.027080

 10 H s       :     0.793324  s :     0.793324
      pz      :     0.009807  p :     0.062087
      px      :     0.038558
      py      :     0.013722

 11 H s       :     0.799309  s :     0.799309
      pz      :     0.020643  p :     0.060434
      px      :     0.015302
      py      :     0.024489

 12 H s       :     0.799098  s :     0.799098
      pz      :     0.013486  p :     0.059081
      px      :     0.033049
      py      :     0.012545

 13 H s       :     0.796119  s :     0.796119
      pz      :     0.020649  p :     0.059415
      px      :     0.013227
      py      :     0.025539

 14 H s       :     0.787926  s :     0.787926
      pz      :     0.017109  p :     0.059750
      px      :     0.015413
      py      :     0.027228

 15 H s       :     0.680955  s :     0.680955
      pz      :     0.025764  p :     0.101353
      px      :     0.019198
      py      :     0.056391

 16 O s       :     3.445563  s :     3.445563
      pz      :     1.411091  p :     4.801474
      px      :     1.795343
      py      :     1.595040
      dz2     :     0.002727  d :     0.028297
      dxz     :     0.003451
      dyz     :     0.014882
      dx2y2   :     0.003655
      dxy     :     0.003582
      f0      :     0.000182  f :     0.002300
      f+1     :     0.000418
      f-1     :     0.000526
      f+2     :     0.000458
      f-2     :     0.000441
      f+3     :     0.000177
      f-3     :     0.000099

 17 H s       :     0.661793  s :     0.661793
      pz      :     0.046329  p :     0.159235
      px      :     0.044939
      py      :     0.067967

 18 O s       :     3.465430  s :     3.465430
      pz      :     1.513663  p :     4.913854
      px      :     1.508188
      py      :     1.892003
      dz2     :     0.016545  d :     0.026576
      dxz     :     0.000494
      dyz     :     0.000449
      dx2y2   :     0.007680
      dxy     :     0.001409
      f0      :     0.000930  f :     0.002083
      f+1     :     0.000431
      f-1     :     0.000046
      f+2     :     0.000011
      f-2     :     0.000005
      f+3     :     0.000461
      f-3     :     0.000199

 19 H s       :     0.694463  s :     0.694463
      pz      :     0.100766  p :     0.177186
      px      :     0.031909
      py      :     0.044511

 20 H s       :     0.656988  s :     0.656988
      pz      :     0.066982  p :     0.158730
      px      :     0.048532
      py      :     0.043217

 21 H s       :     0.682949  s :     0.682949
      pz      :     0.028415  p :     0.190416
      px      :     0.116985
      py      :     0.045016

 22 O s       :     3.464868  s :     3.464868
      pz      :     1.754671  p :     4.858859
      px      :     1.509620
      py      :     1.594568
      dz2     :     0.003264  d :     0.027441
      dxz     :     0.002301
      dyz     :     0.005656
      dx2y2   :     0.014150
      dxy     :     0.002070
      f0      :     0.000453  f :     0.002089
      f+1     :     0.000140
      f-1     :     0.000006
      f+2     :     0.000542
      f-2     :     0.000146
      f+3     :     0.000544
      f-3     :     0.000259

 23 H s       :     0.668820  s :     0.668820
      pz      :     0.044307  p :     0.198009
      px      :     0.124182
      py      :     0.029519

 24 H s       :     0.677212  s :     0.677212
      pz      :     0.051805  p :     0.162528
      px      :     0.034414
      py      :     0.076309



                      *****************************
                      * MAYER POPULATION ANALYSIS *
                      *****************************

  NA   - Mulliken gross atomic population
  ZA   - Total nuclear charge
  QA   - Mulliken gross atomic charge
  VA   - Mayer's total valence
  BVA  - Mayer's bonded valence
  FA   - Mayer's free valence

  ATOM       NA         ZA         QA         VA         BVA        FA
  0 N      7.2528     7.0000    -0.2528     3.4755     3.4755    -0.0000
  1 C      6.1608     6.0000    -0.1608     3.8112     3.8112    -0.0000
  2 C      6.1297     6.0000    -0.1297     3.8046     3.8046     0.0000
  3 C      6.2055     6.0000    -0.2055     3.8442     3.8442     0.0000
  4 C      5.6780     6.0000     0.3220     4.2935     4.2935     0.0000
  5 O      8.5913     8.0000    -0.5913     1.8213     1.8213     0.0000
  6 O      8.5854     8.0000    -0.5854     1.8505     1.8505     0.0000
  7 H      0.6922     1.0000     0.3078     0.9568     0.9568    -0.0000
  8 H      0.6851     1.0000     0.3149     0.9015     0.9015    -0.0000
  9 H      0.8457     1.0000     0.1543     0.9621     0.9621     0.0000
 10 H      0.8457     1.0000     0.1543     0.9824     0.9824    -0.0000
 11 H      0.9013     1.0000     0.0987     1.0033     1.0033    -0.0000
 12 H      0.8785     1.0000     0.1215     0.9658     0.9658     0.0000
 13 H      0.8936     1.0000     0.1064     0.9899     0.9899     0.0000
 14 H      0.8746     1.0000     0.1254     0.9723     0.9723     0.0000
 15 H      0.6793     1.0000     0.3207     0.8954     0.8954    -0.0000
 16 O      8.6936     8.0000    -0.6936     1.8341     1.8341    -0.0000
 17 H      0.6257     1.0000     0.3743     0.8797     0.8797     0.0000
 18 O      8.7699     8.0000    -0.7699     1.6789     1.6789     0.0000
[...]
      f0      :     0.001379  f :     0.005229
      f+1     :     0.001744
      f-1     :     0.000601
      f+2     :     0.000827
      f-2     :     0.000484
      f+3     :     0.000126
      f-3     :     0.000068

  7 H s       :     0.680551  s :     0.680551
      pz      :     0.041589  p :     0.129701
      px      :     0.034650
      py      :     0.053462

  8 H s       :     0.682202  s :     0.682202
      pz      :     0.018652  p :     0.101211
      px      :     0.062377
      py      :     0.020181

  9 H s       :     0.794921  s :     0.794921
      pz      :     0.017556  p :     0.060838
      px      :     0.016731
      py      :     0.026550

 10 H s       :     0.793299  s :     0.793299
      pz      :     0.009781  p :     0.062100
      px      :     0.038580
      py      :     0.013738

 11 H s       :     0.800747  s :     0.800747
      pz      :     0.021074  p :     0.060455
      px      :     0.015449
      py      :     0.023933

 12 H s       :     0.799196  s :     0.799196
      pz      :     0.013419  p :     0.059088
      px      :     0.033100
      py      :     0.012569

 13 H s       :     0.796000  s :     0.796000
      pz      :     0.020994  p :     0.059427
      px      :     0.013362
      py      :     0.025070

 14 H s       :     0.787911  s :     0.787911
      pz      :     0.016694  p :     0.059693
      px      :     0.015451
      py      :     0.027548

 15 H s       :     0.680997  s :     0.680997
      pz      :     0.025353  p :     0.101329
      px      :     0.019587
      py      :     0.056388

 16 O s       :     3.446372  s :     3.446372
      pz      :     1.666402  p :     4.798729
      px      :     1.538012
      py      :     1.594315
      dz2     :     0.001742  d :     0.028363
      dxz     :     0.005756
      dyz     :     0.007014
      dx2y2   :     0.001913
      dxy     :     0.011939
      f0      :     0.000468  f :     0.002293
      f+1     :     0.000125
      f-1     :     0.000088
      f+2     :     0.000142
      f-2     :     0.000814
      f+3     :     0.000463
      f-3     :     0.000193

 17 H s       :     0.661835  s :     0.661835
      pz      :     0.056905  p :     0.159260
      px      :     0.058394
      py      :     0.043960

 18 O s       :     3.465450  s :     3.465450
      pz      :     1.515819  p :     4.914089
      px      :     1.501873
      py      :     1.896397
      dz2     :     0.016482  d :     0.026560
      dxz     :     0.000602
      dyz     :     0.000414
      dx2y2   :     0.007913
      dxy     :     0.001149
      f0      :     0.000918  f :     0.002081
      f+1     :     0.000453
      f-1     :     0.000034
      f+2     :     0.000011
      f-2     :     0.000004
      f+3     :     0.000503
      f-3     :     0.000159

 19 H s       :     0.694388  s :     0.694388
      pz      :     0.100764  p :     0.177186
      px      :     0.031880
      py      :     0.044543

 20 H s       :     0.657037  s :     0.657037
      pz      :     0.043700  p :     0.158716
      px      :     0.048011
      py      :     0.067005

 21 H s       :     0.682906  s :     0.682906
      pz      :     0.028443  p :     0.190537
      px      :     0.117695
      py      :     0.044399

 22 O s       :     3.464835  s :     3.464835
      pz      :     1.754854  p :     4.858842
      px      :     1.507216
      py      :     1.596772
      dz2     :     0.003319  d :     0.027452
      dxz     :     0.002145
      dyz     :     0.005755
      dx2y2   :     0.014138
      dxy     :     0.002095
      f0      :     0.000445  f :     0.002090
      f+1     :     0.000152
      f-1     :     0.000005
      f+2     :     0.000533
      f-2     :     0.000151
      f+3     :     0.000552
      f-3     :     0.000252

 23 H s       :     0.668729  s :     0.668729
      pz      :     0.043709  p :     0.198189
      px      :     0.124851
      py      :     0.029629

 24 H s       :     0.677105  s :     0.677105
      pz      :     0.052023  p :     0.162479
      px      :     0.034366
      py      :     0.076090



                      *****************************
                      * MAYER POPULATION ANALYSIS *
                      *****************************

  NA   - Mulliken gross atomic population
  ZA   - Total nuclear charge
  QA   - Mulliken gross atomic charge
  VA   - Mayer's total valence
  BVA  - Mayer's bonded valence
  FA   - Mayer's free valence

  ATOM       NA         ZA         QA         VA         BVA        FA
  0 N      7.2526     7.0000    -0.2526     3.4748     3.4748     0.0000
  1 C      6.1697     6.0000    -0.1697     3.8273     3.8273    -0.0000
  2 C      6.1213     6.0000    -0.1213     3.7834     3.7834    -0.0000
  3 C      6.2076     6.0000    -0.2076     3.8471     3.8471    -0.0000
  4 C      5.6763     6.0000     0.3237     4.2903     4.2903     0.0000
  5 O      8.5915     8.0000    -0.5915     1.8221     1.8221     0.0000
  6 O      8.5856     8.0000    -0.5856     1.8514     1.8514     0.0000
  7 H      0.6872     1.0000     0.3128     0.9494     0.9494     0.0000
  8 H      0.6847     1.0000     0.3153     0.9012     0.9012     0.0000
  9 H      0.8461     1.0000     0.1539     0.9627     0.9627    -0.0000
 10 H      0.8442     1.0000     0.1558     0.9796     0.9796    -0.0000
 11 H      0.9072     1.0000     0.0928     1.0183     1.0183     0.0000
 12 H      0.8793     1.0000     0.1207     0.9654     0.9654    -0.0000
 13 H      0.8932     1.0000     0.1068     0.9896     0.9896     0.0000
 14 H      0.8746     1.0000     0.1254     0.9723     0.9723    -0.0000
 15 H      0.6795     1.0000     0.3205     0.8954     0.8954    -0.0000
 16 O      8.6919     8.0000    -0.6919     1.8385     1.8385     0.0000
 17 H      0.6274     1.0000     0.3726     0.8831     0.8831     0.0000
 18 O      8.7701     8.0000    -0.7701     1.6782     1.6782    -0.0000
 19 H      0.6713     1.0000     0.3287     0.9554     0.9554     0.0000
 20 H      0.6233     1.0000     0.3767     0.8726     0.8726    -0.0000
 21 H      0.6682     1.0000     0.3318     0.9820     0.9820     0.0000
 22 O      8.7511     8.0000    -0.7511     1.7351     1.7351     0.0000
 23 H      0.6459     1.0000     0.3541     0.9540     0.9540    -0.0000
 24 H      0.6503     1.0000     0.3497     0.8947     0.8947     0.0000

  Mayer bond orders larger than 0.100000
B(  0-N ,  1-C ) :   0.8923 B(  0-N ,  7-H ) :   0.8307 B(  0-N ,  8-H ) :   0.8828 
B(  0-N , 15-H ) :   0.8830 B(  1-C ,  2-C ) :   0.9663 B(  1-C ,  9-H ) :   0.9551 
B(  1-C , 10-H ) :   0.9660 B(  2-C ,  3-C ) :   0.9584 B(  2-C , 11-H ) :   0.9603 
B(  2-C , 12-H ) :   0.9547 B(  3-C ,  4-C ) :   0.9770 B(  3-C , 13-H ) :   0.9634 
B(  3-C , 14-H ) :   0.9468 B(  4-C ,  5-O ) :   1.6062 B(  4-C ,  6-O ) :   1.6741 
B(  5-O , 23-H ) :   0.1550 B(  6-O , 21-H ) :   0.1432 B(  7-H , 16-O ) :   0.1097 
B( 16-O , 17-H ) :   0.8627 B( 16-O , 20-H ) :   0.8645 B( 18-O , 19-H ) :   0.8598 
B( 18-O , 21-H ) :   0.8164 B( 22-O , 23-H ) :   0.7719 B( 22-O , 24-H ) :   0.8829 


-------
TIMINGS
-------

Total SCF time: 0 days 0 hours 0 min 8 sec 

Total time                  ....       8.371 sec
Sum of individual times     ....       8.313 sec  ( 99.3%)

SCF preparation             ....       0.573 sec  (  6.8%)
Fock matrix formation       ....       7.277 sec  ( 86.9%)
  Startup                   ....       0.018 sec  (  0.2% of F)
  Split-RI-J                ....       0.406 sec  (  5.6% of F)
  Chain of spheres X        ....       5.570 sec  ( 76.5% of F)
  XC integration            ....       0.627 sec  (  8.6% of F)
    Basis function eval.    ....       0.171 sec  ( 27.3% of XC)
    Density eval.           ....       0.160 sec  ( 25.5% of XC)
    XC-Functional eval.     ....       0.026 sec  (  4.1% of XC)
    XC-Potential eval.      ....       0.203 sec  ( 32.4% of XC)
  CPCM terms                ....       0.617 sec  (  8.5% of F)
Diagonalization             ....       0.000 sec  (  0.0%)
Density matrix formation    ....       0.030 sec  (  0.4%)
Total Energy calculation    ....       0.025 sec  (  0.3%)
Population analysis         ....       0.194 sec  (  2.3%)
Orbital Transformation      ....       0.039 sec  (  0.5%)
Orbital Orthonormalization  ....       0.000 sec  (  0.0%)
DIIS solution               ....       0.047 sec  (  0.6%)
SOSCF solution              ....       0.129 sec  (  1.5%)
Finished LeanSCF after   8.6 sec

Maximum memory used throughout the entire LEANSCF-calculation: 50.2 MB


-------------------------------------------------------------------------------
                          DFT DISPERSION CORRECTION                            
                                                                               
                                DFTD4 V3.4.0                                   
-------------------------------------------------------------------------------
The B3LYP functional is recognized
Active option DFTDOPT                   ...         5   

-------------------------   ----------------
Dispersion correction           -0.026675510
-------------------------   ----------------


-------------------------   --------------------
FINAL SINGLE POINT ENERGY      -592.389337306260
-------------------------   --------------------

                                *** OPTIMIZATION RUN DONE ***

--------------------------------------------------------------------------
WARNING: There was an error initializing an OpenFabrics device.

  Local host:   ga03
  Local device: mlx5_0
--------------------------------------------------------------------------


           ************************************************************
           *        Program running with 10 parallel MPI-processes    *
           *              working on a common directory               *
           ************************************************************

------------------------------------------------------------------------------
                              ORCA PROPERTY CALCULATIONS
------------------------------------------------------------------------------

GBWName                                 ... 02_Aminobutyric-acid_zwitterion.gbw
Number of atoms                         ...     25
Number of basis functions               ...    400
Max core memory                         ...   5000 MB

Electric properties:
Dipole moment                           ... YES
Quadrupole moment                       ...  NO
Static polarizability (Dipole/Dipole)   ...  NO
Static polarizability (Dipole/Quad.)    ...  NO
Static polarizability (Quad./Quad.)     ...  NO
Static polarizability (Velocity)        ...  NO

Atomic electric properties:
Dipole moment                           ...  NO
Quadrupole moment                       ...  NO
Static polarizability                   ...  NO

Choice of electric origin               ... Center of mass
Position of electric origin             ...     5.710175     1.104496    -2.837678

General magnetic properties:
Magnetizability                         ...  NO

EPR properties:
g-Tensor (aka g-matrix)                 ...  NO
Zero-Field splitting spin-orbit         ...  NO
Zero-field splitting spin-spin          ...  NO
Hyperfine couplings                     ...  NO (   0 nuclei)
Quadrupole couplings                    ...  NO (   0 nuclei)
Contact density                         ...  NO (   0 nuclei)

NMR properties:
Chemical shifts                         ...  NO (   0 nuclei)
Spin-rotation constants                 ...  NO (   0 nuclei)
Spin-spin couplings                     ...  NO (   0 nuclei,    0 pairs)

Choice of magnetic origin               ... GIAO
Position of magnetic origin             ...     0.000000     0.000000     0.000000

Properties with geometric perturbations:
SCF Hessian                             ...  NO
IR spectrum                             ...  NO
VCD spectrum                            ...  NO
X-ray spectroscopy properties:
SCF XES/XAS/RIXS spectra                ...  NO


-------------
DIPOLE MOMENT
-------------

Method             : SCF
Type of density    : Electron Density
Multiplicity       :   1
Irrep              :   0
Energy             :  -592.3626617967317998 Eh
Relativity type    : 
Basis              : AO
                                X                 Y                 Z
Electronic contribution:      1.006478896       0.412689934      -1.495132208
Nuclear contribution   :     -8.990120794      -3.538544585       8.083509417
                        -----------------------------------------
Total Dipole Moment    :     -7.983641898      -3.125854651       6.588377210
                        -----------------------------------------
Magnitude (a.u.)       :     10.812780378
Magnitude (Debye)      :     27.483903540



--------------------
Rotational spectrum 
--------------------
 
Rotational constants in cm-1:             0.043481             0.017540             0.013523 
Rotational constants in MHz :          1303.536190           525.832338           405.422544 

Dipole components along the rotational axes: 
x,y,z [a.u.] :   -10.771104     0.281142    -0.905808 
x,y,z [Debye]:   -27.377972     0.714606    -2.302381 

 

Dipole moment calculation done in   0.1 sec 

Maximum memory used throughout the entire PROP-calculation: 28.0 MB
[ga03:3503247] 9 more processes have sent help message help-mpi-btl-openib.txt / error in device init
[ga03:3503247] Set MCA parameter "orte_base_help_aggregate" to 0 to see all help / error messages
--------------------------------------------------------------------------
WARNING: There was an error initializing an OpenFabrics device.

  Local host:   ga03
  Local device: mlx5_0
--------------------------------------------------------------------------
[ga03:3503291] 9 more processes have sent help message help-mpi-btl-openib.txt / error in device init
[ga03:3503291] Set MCA parameter "orte_base_help_aggregate" to 0 to see all help / error messages

--------------------------------
SUGGESTED CITATIONS FOR THIS RUN
--------------------------------

Below you find a list of papers that are relevant to this ORCA run
We neither can nor want to force you to cite these papers, but we appreciate if you do
You receive ORCA, which is the product of decades of hard work by many enthusiastic individuals, for free
The only thing we kindly ask in return is that you cite our papers,
We deeply appreciate it, if you show your appreciation for ORCA by not just citing the generic ORCA reference.

Please note that relegating all ORCA citations to the supporting information does *not* help us.
SI sections are not indexed - citations you put there will not count into any citation statistics
But we need these citations in order to attract the funding resources that allow us to do what we are doing

Therefore, if you are a happy ORCA user, please consider citing a few of the papers listed below in the main body of your paper

In addition to the list printed below, the program has created the file 02_Aminobutyric-acid_zwitterion.bibtex that contains the list in bibtex format
You can import this file easily into all common literature databanks and citation aid programs


List of essential papers. We consider these as the minimum necessary citations

  1. Neese,F.
     Software update: the ORCA program system, version 5.0
     WIRES Comput. Molec. Sci., 2022 12(1)e1606
     doi.org/10.1002/wcms.1606

List of papers to cite with high priority. The work reported in these papers was absolutely
necessary for this run to complete.
Our perspective: the developers of density functionals and basis sets usually get cited in chemistry papers
Good! But without the algorithms to do something with them, the functionals or basis sets would not do anything.
Hence, in our opinion, the algorithm design and method developments papers are equally worthy of getting cited

  1. Neese,F.
     An improvement of the resolution of the identity approximation for the formation of the Coulomb matrix
     J. Comp. Chem., 2003 24(14)1740-1747
     doi.org/10.1002/jcc.10318
  2. Neese,F.; Wennmohs,F.; Hansen,A.; Becker,U.
     Efficient, approximate and parallel Hartree-Fock and hybrid DFT calculations. A 'chain-of-spheres' algorithm for the Hartree-Fock exchange
     Chem. Phys., 2009 356(1-3)98-109
     doi.org/10.1016/j.chemphys.2008.10.036
  3. Garcia-Rates,M.; Neese,F.
     Effect of the Solute Cavity on the Solvation Energy and its Derivatives within the Framework of the Gaussian Charge Scheme
     J. Comput. Chem., 2020 41 922-939
     doi.org/10.1002/jcc.26139
  4. Helmich-Paris,B.; de Souza,B.; Neese,F.; Izsák,R.
     An improved chain of spheres for exchange algorithm
     J. Chem. Phys., 2021 155 104109
     doi.org/doi: 10.1063/5.0058766.
  5. Neese,F.
     The SHARK Integral Generation and Digestion System
     J. Comp. Chem., 2022  1-16
     doi.org/10.1002/jcc.26942
  6. Caldeweyher,E.; Bannwarth,C.; Grimme,S.
     Extension of the D3 dispersion coefficient model
     J. Chem. Phys., 2017 147 034112
     doi.org/10.1063/1.4993215
  7. Caldeweyher,E.; Ehlert,S.; Hansen,A.; Neugebauer,H.; Spicher,S.; Bannwarth,C.; Grimme,S.
     A generally applicable atomic-charge dependent London dispersion correction
     J. Chem. Phys., 2019 150 154122
     doi.org/10.1063/1.5090222
  8. Caldeweyher,E.; Mewes,J.; Ehlert,S.; Grimme,S.
     Extension and evaluation of the D4 London-dispersion model for periodic systems
     Phys. Chem. Chem. Phys., 2020 22(16)8499-8512
     doi.org/10.1039/D0CP00502A
  9. Wittmann,L.; Gordiy,I.; Friede,M.; Helmich-Paris,B.; Grimme,S.; Hansen,A.; Bursch,M.
     Extension of the D3 and D4 London Dispersion Corrections to the full Actinides Series
     Phys. Chem. Chem. Phys., 2024 26(32)21379-21394
     doi.org/https://doi.org/10.1039/D4CP01514B 

List of suggested additional citations. These are papers that are important in the 'surrounding' of 
of this run, or papers that preceded the highly important papers. If you like your results we are grateful for a citation.

  1. Izsak,R.; Neese,F.
     An overlap fitted chain of spheres exchange method
     J. Chem. Phys., 2011 135 144105
     doi.org/10.1063/1.3646921
  2. Izsak,R.; Hansen,A.; Neese,F.
     The resolution of identity and chain of spheres approximations for the LPNO-CCSD singles Fock term
     Molec. Phys., 2012 110 2413-2417
     doi.org/10.1080/00268976.2012.687466
  3. Neese,F.
     The ORCA program system
     WIRES Comput. Molec. Sci., 2012 2(1)73-78
     doi.org/10.1002/wcms.81
  4. Izsak,R.; Neese,F.; Klopper,W.
     Robust fitting techniques in the chain of spheres approximation to the Fock exchange: The role of the complementary space
     J. Chem. Phys., 2013 139 
     doi.org/10.1063/1.4819264
  5. Neese,F.
     Software update: the ORCA program system, version 4.0
     WIRES Comput. Molec. Sci., 2018 8(1)1-6
     doi.org/10.1002/wcms.1327
  6. Neese,F.; Wennmohs,F.; Becker,U.; Riplinger,C.
     The ORCA quantum chemistry program package
     J. Chem. Phys., 2020 152 Art. No. L224108
     doi.org/10.1063/5.0004608

List of optional additional citations

  1. Neese,F.
     Approximate second-order SCF convergence for spin unrestricted wavefunctions
     Chem. Phys. Lett., 2000 325(1-3)93-98
     doi.org/10.1016/s0009-2614(00)00662-x

Timings for individual modules:

Sum of individual times          ...      896.938 sec (=  14.949 min)
Startup calculation              ...       63.762 sec (=   1.063 min)   7.1 %
SCF iterations                   ...      503.638 sec (=   8.394 min)  56.2 %
Property calculations            ...        0.579 sec (=   0.010 min)   0.1 %
SCF Gradient evaluation          ...      328.627 sec (=   5.477 min)  36.6 %
Geometry relaxation              ...        0.333 sec (=   0.006 min)   0.0 %
                             ****ORCA TERMINATED NORMALLY****
TOTAL RUN TIME: 0 days 0 hours 15 minutes 20 seconds 696 msec
