34
 energy: -56.608341969166 gnorm: 0.165813941805 xtb: 6.7.1 (edcfbbe)
H            1.42053100000000       -0.69343900000000       -0.45759400000000
C            0.31562500000000       -0.64091500000000       -0.57275600000000
H            0.37944700000000        0.34125600000000       -2.37510200000000
H           -0.02020400000000       -1.57726700000000       -1.06978300000000
N           -0.04283300000000        0.48932200000000       -1.43082700000000
H           -0.10434400000000       -1.52577500000000        1.34227500000000
C           -0.35607200000000       -0.58177200000000        0.80987700000000
O           -0.15503900000000        1.84564400000000        1.27779400000000
C            0.09900500000000        0.57829600000000        1.65429800000000
H            0.33459400000000        1.38391400000000       -1.05046800000000
O            0.66999200000000        0.37333800000000        2.71201200000000
H           -1.08151800000000        0.54834700000000       -1.53303300000000
H           -1.45918500000000       -0.54094800000000        0.69330800000000
O           -0.20943400000000        4.14441400000000        3.69792800000000
H            0.45515700000000        3.41449800000000        3.61949500000000
H           -0.28214100000000        4.51324600000000        2.78180000000000
O            1.73748900000000        3.41431400000000       -3.11768500000000
H            0.92978000000000        3.02605000000000       -3.53895400000000
H            1.44776100000000        3.65658300000000       -2.20227500000000
O            2.88216800000000       -2.13103300000000        3.16591000000000
H            3.08302800000000       -2.75591000000000        3.90739100000000
H            2.77761500000000       -2.71356300000000        2.37197000000000
O            0.44698000000000       -2.41941200000000        4.19065400000000
H            1.16412200000000       -2.17540800000000        4.82844700000000
H            0.89980700000000       -2.97838700000000        3.51013300000000
O            3.37109800000000       -1.67500000000000       -0.70407400000000
H            3.61406600000000       -0.72916200000000       -0.53985700000000
H            3.21025500000000       -2.05008300000000        0.19817600000000
O            2.81466200000000        2.43122400000000        1.66190600000000
H            2.00092100000000        1.97353100000000        1.99198700000000
H            2.91865500000000        3.21402900000000        2.25941300000000
O           -0.76746900000000        3.70885900000000       -2.29637400000000
H           -1.20965300000000        4.57776300000000       -2.12290800000000
H           -0.58165300000000        3.34091900000000       -1.39598200000000
34
 energy: -56.631540863478 gnorm: 0.085655320595 xtb: 6.7.1 (edcfbbe)
H            1.39592657909122       -0.69405774174567       -0.45636337743318
C            0.30665161271052       -0.65364365220928       -0.57587298031601
H            0.37862712979967        0.36141707305632       -2.36819353859441
H           -0.01584054393670       -1.57881583405208       -1.06846770637584
N           -0.04388338162032        0.48775364728669       -1.43447957068548
H           -0.11499378562323       -1.49324409606186        1.35766168664334
C           -0.36123201972778       -0.58049857839028        0.80105407280611
O           -0.12960188731737        1.79442956330716        1.19936283454793
C            0.07775304210690        0.59606579634699        1.65884964649421
H            0.31508126366088        1.36703678640305       -1.02718760894837
O            0.69823186787233        0.40752996308990        2.71199126007507
H           -1.06841099943874        0.55835828977486       -1.53453215371462
H           -1.45185171848663       -0.53715563328960        0.69096047888614
O           -0.17526029453253        4.17101237245870        3.70021954013028
H            0.41274801607588        3.39899467593551        3.61090963991779
H           -0.29056688314853        4.49558730734935        2.78983233316260
O            1.77474573132741        3.34965202002711       -3.11178594090898
H            0.94169023413696        3.07255283333885       -3.54671767259283
H            1.47890478153602        3.67668319046170       -2.24038786463698
O            2.94289585107418       -2.14843497511526        3.14418364027847
H            3.12105898861451       -2.74772779190063        3.88926257739558
H            2.79348975879782       -2.73151106595021        2.38167085815785
O            0.39919378734530       -2.48086089019146        4.24181170711695
H            1.11997804794042       -2.14099778095077        4.80964370548199
H            0.87131549934802       -2.95402863767454        3.52914721668452
O            3.34573805477095       -1.65563106532848       -0.69376374754240
H            3.65232180034327       -0.74432923609287       -0.53687443190386
H            3.23809228498712       -2.03593743550862        0.19365282235828
O            2.80643590473678        2.43201094732696        1.66504909000515
H            2.00684300963632        1.98038736278401        1.99051871390087
H            2.92246294501829        3.19650704720138        2.25221126961316
O           -0.81552376945389        3.68651283086767       -2.25961611049789
H           -1.21093104783125        4.56514886703244       -2.13356280634463
H           -0.61887685981425        3.36670684041294       -1.36308558316092
34
 energy: -56.638665548711 gnorm: 0.050620138358 xtb: 6.7.1 (edcfbbe)
H            1.37507092703882       -0.70343802366693       -0.46148221019598
C            0.29847109900889       -0.67271070708729       -0.58120328854204
H            0.38404989291139        0.39209397921817       -2.35736422004222
H           -0.02347228375611       -1.58399263019478       -1.06905546666767
N           -0.04549764433926        0.48620419537385       -1.43517719083039
H           -0.12803252706666       -1.46679349119036        1.37285224763576
C           -0.35972936194030       -0.58188447943175        0.78916472906947
O           -0.18437486555046        1.74807487720132        1.14338893225223
C            0.15212289466747        0.63881034324584        1.58934078950871
H            0.28932653090713        1.34572428497180       -0.98087923294993
O            0.69449039452014        0.45738803488142        2.70245285683318
H           -1.05719252871029        0.56978845711132       -1.53487073240856
H           -1.44119385885617       -0.51051987210289        0.69750966755964
O           -0.15586085661103        4.17935461675668        3.69554180176824
H            0.37361942652390        3.38366706541355        3.60580037764964
H           -0.29297811787804        4.48903848710777        2.80109651179700
O            1.78686999996462        3.32848552804757       -3.12116524793058
H            0.95243942935768        3.09933083330306       -3.54467687817884
H            1.52120087402889        3.67317621368189       -2.26839547947136
O            2.95032934223904       -2.18370030048770        3.13199395162445
H            3.18357138453426       -2.74259711655352        3.87313313859284
H            2.82138115945750       -2.76323971735518        2.38820818075773
O            0.36549871368363       -2.50612399798259        4.26776075705732
H            1.06128672023582       -2.11991769468364        4.80730467420489
H            0.84160716316248       -2.94095306951970        3.55685101984944
O            3.33898152805740       -1.63456617875255       -0.67811216085119
H            3.69551780110177       -0.75370725712067       -0.53983314289752
H            3.27074309214143       -2.01763719855850        0.19341921481238
O            2.79436238344394        2.43782109803682        1.66241553897271
H            2.02618201508238        1.96696981480370        1.99554809693868
H            2.92946842815488        3.17722689217892        2.24996037407966
O           -0.81654982659769        3.67857300197104       -2.21571919056435
H           -1.22779611195190        4.53770626901194       -2.14844218018464
H           -0.67070021696645        3.37982074237156       -1.32026423924896
34
 energy: -56.646478401124 gnorm: 0.050587619728 xtb: 6.7.1 (edcfbbe)
H            1.37174799175450       -0.71344694912632       -0.46061707342382
C            0.29237651855520       -0.68383639764718       -0.57872153055632
H            0.39643164344832        0.41395173394598       -2.34403766120253
H           -0.03151279760335       -1.59240100492281       -1.07606866593833
N           -0.05012485643953        0.48475121524855       -1.42560112632136
H           -0.13043843506359       -1.46471405467417        1.38853884583386
C           -0.36756450058113       -0.58853242040202        0.79133507020343
O           -0.14965939716862        1.76731499085346        1.03616240670269
C            0.10690325394440        0.67358402251729        1.57127794586732
H            0.26828473640144        1.33729751406669       -0.93934126013728
O            0.72445716477459        0.51809606869882        2.64860419662529
H           -1.06219593801788        0.56759284232544       -1.53678667913054
H           -1.44879741375930       -0.51354556339089        0.69735344099773
O           -0.11476679535656        4.21321683597976        3.70350791397542
H            0.32679202163100        3.34357621302537        3.59780739054311
H           -0.30959999055269        4.48276225518126        2.79659465017353
O            1.81188676671540        3.26813913777637       -3.12074677362347
H            0.94126346038752        3.13745609829279       -3.55482173231478
H            1.56306146439864        3.69487032897607       -2.28572238656784
O            2.94498906605029       -2.20974707362995        3.12025639027333
H            3.24441349392986       -2.73516469660253        3.87278447165492
H            2.83615142476737       -2.81192295052821        2.38711981247312
O            0.32152525879701       -2.56020830130257        4.31136527728515
H            1.01397012452736       -2.07066963186097        4.80671733418556
H            0.82635437579406       -2.92058212323659        3.56164129488039
O            3.30561126275111       -1.60966525695291       -0.67144349098641
H            3.75311416979871       -0.75245619583566       -0.54547619862135
H            3.31486890323973       -2.00953265365512        0.20753991789981
O            2.77621357996648        2.44816532809677        1.64046773670766
H            2.04947421563527        1.93647914514663        2.02303587495774
H            2.94919544526258        3.16451058772806        2.25550551994712
O           -0.81372712074010        3.65719452936502       -2.17818544906379
H           -1.24328867710033        4.52046970506191       -2.17571442800116
H           -0.71419742014946        3.39446972148198       -1.25722903529869
34
 energy: -56.647470540723 gnorm: 0.068136183017 xtb: 6.7.1 (edcfbbe)
H            1.36304208837351       -0.73047467250657       -0.46098619067493
C            0.27979755694871       -0.69732202957133       -0.57669786980096
H            0.41918286759350        0.44736840958757       -2.32347271369357
H           -0.04717918327737       -1.60431302726120       -1.08460127752729
N           -0.05779826969714        0.48281074792413       -1.41347944243743
H           -0.13151796533056       -1.44810345713429        1.41488182071272
C           -0.37890135363401       -0.58776206882259        0.79503110698874
O           -0.10670980033047        1.80186542452850        0.88203624644154
C            0.05523467941309        0.72490564451347        1.54017877989282
H            0.23181338557125        1.32703577670524       -0.88016606069855
O            0.75084696907508        0.61699546282208        2.58220243581055
H           -1.07067091579890        0.55937149585931       -1.54827579483041
H           -1.46135402143562       -0.51621801766876        0.69789263841333
O           -0.14642691435214        4.16866881099594        3.68693251902081
H            0.33397673373338        3.35610698111156        3.60052274524162
H           -0.31570865588314        4.49137423708619        2.80219191824532
O            1.81215561042602        3.29504479013849       -3.15131051203542
H            0.96489733074040        3.11687745644519       -3.54877250311637
H            1.61969120835516        3.68217758667631       -2.29621929810419
O            2.94437440322604       -2.25120195553662        3.09854518290480
H            3.31745475184204       -2.72841048986679        3.86796399423290
H            2.85859518997072       -2.89325197587165        2.38470412558658
O            0.29776668744821       -2.51838364784572        4.30099744463173
H            0.93652377405376       -2.09349210094984        4.85111471865592
H            0.78678141305089       -2.91903583359259        3.58675504766857
O            3.36407362853485       -1.59812595639422       -0.65509788106340
H            3.77148172810510       -0.73837837601650       -0.55936432876847
H            3.34737752123783       -1.99041417146922        0.21741953804405
O            2.75768818199589        2.45652404356708        1.62239596752710
H            2.08426696146905        1.89251154405660        2.06429031669435
H            2.97299854109653        3.14685166121750        2.26746341487685
O           -0.82847116877589        3.62660485055667       -2.12669907654204
H           -1.26260047384208        4.49632287482037       -2.19042394034565
H           -0.75946948990488        3.41294298189634       -1.18085107195241
34
 energy: -56.654406569392 gnorm: 0.032772343003 xtb: 6.7.1 (edcfbbe)
H            1.35846711521609       -0.74487700270102       -0.46850433513143
C            0.27372779328308       -0.70362629317712       -0.58350625883194
H            0.43471191301696        0.46227646771306       -2.31726168423208
H           -0.06079413164921       -1.61200671183184       -1.08638814558908
N           -0.06110122327789        0.47860337256612       -1.41530756432146
H           -0.12896274553582       -1.42055959535389        1.42632346573826
C           -0.37873562132330       -0.57141157627307        0.78912004612372
O           -0.13595799477505        1.82023573074073        0.85307135394242
C            0.10165759100942        0.75453970234239        1.48500677876075
H            0.20697277108685        1.32044967252033       -0.85505060927975
O            0.73772111082113        0.66555025089079        2.55743659614090
H           -1.07371859962352        0.54577739420603       -1.56631440625861
H           -1.46420197351762       -0.50336440682563        0.70047513619483
O           -0.11793664260749        4.18689723489523        3.69157639041984
H            0.30448248984027        3.32676711355729        3.58940340989940
H           -0.32647204391778        4.48746521736841        2.80031941424304
O            1.82789574148656        3.25320261236154       -3.15564856066255
H            0.95015412429312        3.14395460034812       -3.55229881334835
H            1.65815867798389        3.68913663708899       -2.30799744970562
O            2.94761168519957       -2.27586580190111        3.09121238300268
H            3.33197101575108       -2.73542750509720        3.86211725739830
H            2.87049433903468       -2.93422036789010        2.38672624456055
O            0.26090129616349       -2.56621197031981        4.33480055840044
H            0.89115058676449       -2.04802890342878        4.85728761718856
H            0.79020166344945       -2.89332496660371        3.58754579444258
O            3.35859464241997       -1.58335744347684       -0.64627833297861
H            3.80437356238786       -0.73391518026060       -0.56827980964743
H            3.38077206561572       -1.97649653096224        0.23162719387150
O            2.77395885326328        2.43386001565615        1.64411893669298
H            2.09115777818784        1.88078989347174        2.06669574461038
H            2.97567659784031        3.13914441893887        2.26805503494130
O           -0.84255516950722        3.61397832279162       -2.10398643604406
H           -1.27095410344351        4.47866926418297       -2.16815207687709
H           -0.76621016493871        3.40886933446370       -1.16084287366542
34
 energy: -56.655616118028 gnorm: 0.070237677404 xtb: 6.7.1 (edcfbbe)
H            1.34563114439622       -0.76178725147333       -0.48372535070469
C            0.26026910104407       -0.70570444143795       -0.59442910478229
H            0.45740753130373        0.48164231735159       -2.31233580271052
H           -0.08601757991645       -1.61855349518272       -1.08087567991206
N           -0.07246046164336        0.46939244205232       -1.43112987544698
H           -0.12527869223262       -1.36507483961406        1.43741449103199
C           -0.38414091067197       -0.53597343662783        0.77858613611514
O           -0.13765463211343        1.85032509972247        0.80599664461961
C            0.11669757987823        0.80064760235979        1.43291468203788
H            0.14501100666176        1.31137627056977       -0.83173827366449
O            0.73307912374859        0.73327574890262        2.51258772961154
H           -1.08117555734456        0.51407546474858       -1.61485458305100
H           -1.47110384471502       -0.48177423833799        0.69917455562044
O           -0.06459845055651        4.21663276451409        3.69885170493755
H            0.24273145119142        3.26775087339444        3.56421790270182
H           -0.34377674087318        4.48023726520991        2.80051914927581
O            1.83207020800398        3.23201900151770       -3.16788530081284
H            0.94118514612728        3.16854146937255       -3.55422928730850
H            1.70383841856189        3.66846799734791       -2.31776454512101
O            2.95987043830744       -2.32951720117985        3.08836875115225
H            3.34672536888291       -2.77318708055111        3.84774276598453
H            2.90599207112078       -2.99186376250316        2.38935721047448
O            0.24088597276564       -2.53584353990489        4.33340892979276
H            0.82307800410027       -2.02727084591160        4.89139918999419
H            0.77666093397323       -2.88021389957742        3.62114321247912
O            3.32398173277300       -1.54742520081071       -0.63007783044899
H            3.88335689579286       -0.72842620584443       -0.58466396118618
H            3.44271213411613       -1.94429675920031        0.25876107396469
O            2.79432403812601        2.41650459168708        1.66557887098156
H            2.11664996031421        1.85990552410031        2.08162126868487
H            2.99382912416853        3.12399134959431        2.28203326818495
O           -0.84307354422521        3.59613782470211       -2.06364759533932
H           -1.29237066078691        4.43725728662567       -2.12672159313025
H           -0.78112331028189        3.38620430438556       -1.12849675402765
34
 energy: -56.659129622763 gnorm: 0.066567899041 xtb: 6.7.1 (edcfbbe)
H            1.33515995833283       -0.77595334900410       -0.49961452667545
C            0.24979000940174       -0.70182804166768       -0.60405080336897
H            0.48149719656113        0.49906202980385       -2.30686976561117
H           -0.11026023844669       -1.62046316020091       -1.07020006360699
N           -0.07993091395240        0.46201937360569       -1.44956773586518
H           -0.11616830397795       -1.30844456804084        1.44586046111468
C           -0.38491937306046       -0.49788696295084        0.77038912063656
O           -0.13034406002912        1.87712420344616        0.77347734365287
C            0.12207923004171        0.83797325530007        1.39494139740975
H            0.08492497550469        1.30531255242524       -0.81798676558076
O            0.72351251941262        0.79062569414296        2.47725808144694
H           -1.08331964847916        0.48364781985916       -1.66760893076047
H           -1.47302721036391       -0.46122434864611        0.69739204568384
O           -0.10790509194298        4.15408881176444        3.67616039559697
H            0.26350874388008        3.28322097283109        3.56118010375799
H           -0.33310155637854        4.49278137400777        2.80841143314157
O            1.84145381013010        3.19498414347986       -3.17217458384802
H            0.93047636203571        3.20001055445733       -3.55467352607043
H            1.74594194742213        3.66072842773932       -2.32980689373816
O            2.93863020345519       -2.38149392031875        3.08461155439947
H            3.35841661868047       -2.80225458913126        3.82835867444151
H            2.92433933155063       -3.04784046149917        2.39118672140237
O            0.19348821978369       -2.59341506826763        4.37523904123136
H            0.74894143563472       -1.96099709731822        4.90097314391632
H            0.78200373973915       -2.84396940426092        3.63393385761381
O            3.39621537712088       -1.53920110367673       -0.61051137877263
H            3.89577309591151       -0.71280643114256       -0.59036143330208
H            3.45559369456249       -1.91805055714988        0.26694122157933
O            2.82086573607395        2.40403837537053        1.68686540139145
H            2.14226063295357        1.84823953424438        2.09032892208946
H            3.01483020105709        3.11400821550402        2.29761867747481
O           -0.83150440309151        3.57759574314553       -2.02663070818472
H           -1.30642783006838        4.39733253884359       -2.09958538271375
H           -0.78958140945766        3.37050844330680       -1.09438309988417
34
 energy: -56.659883852141 gnorm: 0.075932860835 xtb: 6.7.1 (edcfbbe)
H            1.33070679340881       -0.77621762699181       -0.50565539459433
C            0.24503179595629       -0.69859820445144       -0.60222084439583
H            0.48704003011079        0.50046656313890       -2.30338741288809
H           -0.12229942322155       -1.62170892186863       -1.05590621895516
N           -0.08577036370455        0.45888654025966       -1.45704201141725
H           -0.10698878184006       -1.28994168515271        1.46428777982590
C           -0.37792990794423       -0.48857356684046        0.77784610682511
O           -0.13184851893842        1.89207403283414        0.70137387633611
C            0.11390943735911        0.85833760610084        1.38189264439890
H            0.06097655203058        1.30615309461434       -0.83394333103369
O            0.70025517370338        0.84906276276981        2.48060446149072
H           -1.08471118787393        0.46929241719114       -1.69578989120701
H           -1.46633774689043       -0.45165644641077        0.70043720012091
O           -0.08372753962942        4.16174392273326        3.68101442078555
H            0.24121265079128        3.25344301936160        3.54199853763541
H           -0.34301584725099        4.48763066808572        2.80978239601286
O            1.83380738481343        3.22561790798314       -3.18926485311533
H            0.95278515544736        3.15252648510523       -3.53597081236139
H            1.75611701360501        3.66506716602681       -2.33590939398132
O            2.86185283617744       -2.42135940815856        3.06205972250699
H            3.42635249996673       -2.77383888315250        3.82753934753235
H            2.93120241382310       -3.13165857270342        2.39056368971902
O            0.17716534421452       -2.57784618575695        4.38516430461303
H            0.72395691777067       -1.98358586758705        4.92689500911566
H            0.76877179607762       -2.81080410871993        3.63163002679242
O            3.44821037647255       -1.53532439194572       -0.60250654273993
H            3.87615805899639       -0.69688920304054       -0.59417263981219
H            3.46871605342887       -1.90151975672564        0.27179041221429
O            2.84734861685242        2.40283859548002        1.70049385998242
H            2.15675005453098        1.85142700988242        2.08883178652024
H            3.03141733658721        3.11348195237560        2.31469403927882
O           -0.81878196160298        3.54637791925934       -1.99601044662079
H           -1.32058031937727        4.36963814983688       -2.12443243646273
H           -0.79453969385333        3.38293001646959       -1.03958539212388
34
 energy: -56.660546507327 gnorm: 0.078033093436 xtb: 6.7.1 (edcfbbe)
H            1.32557290473034       -0.77300128335538       -0.51294303022022
C            0.23864506932953       -0.69553388780924       -0.60090285970688
H            0.48795607570362        0.49680788026843       -2.30423369686017
H           -0.13580794062723       -1.62429574953799       -1.04049300437667
N           -0.09674036560421        0.45346904773879       -1.46776713850093
H           -0.10119510459683       -1.27915640924918        1.47612075816460
C           -0.37319848570422       -0.48161348438460        0.78501135845798
O           -0.13620234706089        1.90852979263735        0.64845416661127
C            0.10065857651912        0.87123267542309        1.37673635033729
H            0.03394530919618        1.30832767691980       -0.86303924999975
O            0.67039178476170        0.89143580411006        2.49140751525835
H           -1.09037931178834        0.44914031779284       -1.72944974152231
H           -1.46249802082027       -0.44007409496487        0.70392392169365
O           -0.11406546010538        4.12202038498868        3.66797591755645
H            0.25997973525875        3.26178737312374        3.52755668914089
H           -0.34462726367832        4.48947191958874        2.80962044662521
O            1.83895868651696        3.18856604451922       -3.18874821434565
H            0.92843569615468        3.16689752754646       -3.52380108449704
H            1.77690581337838        3.67317393186443       -2.34087409675487
O            2.96465936424888       -2.45128670171994        3.05174836829174
H            3.36568967123045       -2.82362355480530        3.83344114271133
H            2.91940894962342       -3.14783939076701        2.38937401816894
O            0.19458994541018       -2.48533881159952        4.34919629978625
H            0.71705869704557       -2.01802996610099        4.95745188573337
H            0.75404501829733       -2.81369076186084        3.65733888712383
O            3.40598004190221       -1.51731526895406       -0.59675451603401
H            3.91214409165552       -0.69080762529674       -0.61772063609128
H            3.51219199650833       -1.87136859087861        0.30379596889674
O            2.86700924702328        2.41085329736188        1.70063708373287
H            2.17156456046437        1.85361602922980        2.09222445167794
H            3.05047392481357        3.11255921399429        2.33403000206928
O           -0.82213966622001        3.52370173769252       -1.97654626821852
H           -1.33107076055511        4.34927125471966       -2.11003862134702
H           -0.78512743301383        3.36958667176696       -1.01563107356511
34
 energy: -56.663546893134 gnorm: 0.067006298161 xtb: 6.7.1 (edcfbbe)
H            1.31953466128950       -0.77094861648362       -0.52264535157210
C            0.23362952426860       -0.69124148517078       -0.61006470928351
H            0.50647179731871        0.50354165223916       -2.31106837237534
H           -0.14423417095566       -1.62491286187927       -1.03320050242751
N           -0.10255858871192        0.44561004415967       -1.48981686345115
H           -0.09873098045020       -1.24006651943474        1.46624679162793
C           -0.37834256696002       -0.44933618821251        0.77252411270299
O           -0.12597040754212        1.93092735129280        0.68559418728460
C            0.09117875399687        0.89443832385674        1.36695489628505
H           -0.00600681753893        1.30540304962575       -0.86716001284820
O            0.66875483320922        0.89747036767124        2.46704534477922
H           -1.09007234273316        0.42321894356150       -1.77444671321409
H           -1.46758013658935       -0.41932211691910        0.70298982418598
O           -0.07351374088711        4.13687901097322        3.67452243760661
H            0.22221361681933        3.21531778554650        3.49903105511261
H           -0.34975838351856        4.48491687030529        2.81506350020989
O            1.83222928267792        3.22397254493817       -3.20006962173342
H            0.94358016795404        3.16600340126107       -3.52684446491452
H            1.78950270912072        3.61726646838548       -2.33648885022376
O            2.96993777848043       -2.48520347200650        3.04546339668328
H            3.33761751139694       -2.84618562297296        3.82550560518148
H            2.91508677416404       -3.18357078923667        2.39392417347343
O            0.16584066804881       -2.53104722019666        4.35326853937311
H            0.63711739869071       -1.94703375793550        4.97925354097100
H            0.81135659222388       -2.79339386861129        3.67498614904433
O            3.41483382704842       -1.50794362406964       -0.58188424281488
H            3.94526523642180       -0.68621507978320       -0.62522432572772
H            3.52232971707258       -1.84387393429959        0.32097420266751
O            2.88627362709420        2.41311996866129        1.70697576829404
H            2.18879277350274        1.85963762380636        2.10107757795850
H            3.07588461133494        3.10835128029966        2.34639869783913
O           -0.84710099784427        3.52306716343796       -1.97124433568570
H           -1.32600737336472        4.33271624052762       -2.03413489517871
H           -0.76434235504134        3.32591006666539       -1.04640453983296
34