
                                 *****************
                                 * O   R   C   A *
                                 *****************

                                            #,                                       
                                            ###                                      
                                            ####                                     
                                            #####                                    
                                            ######                                   
                                           ########,                                 
                                     ,,################,,,,,                         
                               ,,#################################,,                 
                          ,,##########################################,,             
                       ,#########################################, ''#####,          
                    ,#############################################,,   '####,        
                  ,##################################################,,,,####,       
                ,###########''''           ''''###############################       
              ,#####''   ,,,,##########,,,,          '''####'''          '####       
            ,##' ,,,,###########################,,,                        '##       
           ' ,,###''''                  '''############,,,                           
         ,,##''                                '''############,,,,        ,,,,,,###''
      ,#''                                            '''#######################'''  
     '                                                          ''''####''''         
             ,#######,   #######,   ,#######,      ##                                
            ,#'     '#,  ##    ##  ,#'     '#,    #''#        ,####,   ,####,        
            ##       ##  ##   ,#'  ##            #'  '#       #'       #'  '#        
            ##       ##  #######   ##           ,######,      #####,   #    #        
            '#,     ,#'  ##    ##  '#,     ,#' ,#      #,     #,   #   #,  ,#        
             '#######'   ##     ##  '#######'  #'      '#     '####' # '####'        



                #########################################################
                #                        -***-                          #
                #          Department of theory and spectroscopy        #
                #                                                       #
                #                      Frank Neese                      #
                #                                                       #
                #     Directorship, Architecture, Infrastructure        #
                #                    SHARK, DRIVERS                     #
                #        Core code/Algorithms in most modules           #
                #                                                       #
                #        Max Planck Institute fuer Kohlenforschung      #
                #                Kaiser Wilhelm Platz 1                 #
                #                 D-45470 Muelheim/Ruhr                 #
                #                      Germany                          #
                #                                                       #
                #                  All rights reserved                  #
                #                        -***-                          #
                #########################################################


                         Program Version 6.0.1  -  RELEASE   -


 With contributions from (in alphabetic order):
[Max-Planck-Institut fuer Kohlenforschung]                               
  Daniel Aravena         : Magnetic Suceptibility                        
  Michael Atanasov       : Ab Initio Ligand Field Theory (pilot matlab implementation)
  Alexander A. Auer      : GIAO ZORA, VPT2 properties, NMR spectrum      
  Ute Becker             : All parallelization in ORCA, NUMFREQ, NUMCALC 
  Giovanni Bistoni       : ED, misc. LED, open-shell LED, HFLD           
  Martin Brehm           : Molecular dynamics                            
  Dmytro Bykov           : pre 5.0 version of the SCF Hessian            
  Marcos Casanova-Páez   : Triplet and SCS-CIS(D). UHF-(DLPNO)-IP/EA/STEOM-CCSD. UHF-CVS-IP/STEOM-CCSD   
  Vijay G. Chilkuri      : MRCI spin determinant printing, contributions to CSF-ICE 
  Pauline Colinet        : FMM embedding                                 
  Dipayan Datta          : RHF DLPNO-CCSD density                        
  Achintya Kumar Dutta   : EOM-CC, STEOM-CC                              
  Nicolas Foglia         : Exact transition moments, OPA infrastructure, MCD improvements    
  Dmitry Ganyushin       : Spin-Orbit,Spin-Spin,Magnetic field MRCI      
  Miquel Garcia-Rates    : C-PCM and meta-GGA Hessian, CCSD/C-PCM, Gaussian charge scheme 
  Tiago L. C. Gouveia    : GS-ROHF, GS-ROCIS                             
  Yang Guo               : DLPNO-NEVPT2, F12-NEVPT2, CIM, IAO-localization        
  Andreas Hansen         : Spin unrestricted coupled pair/coupled cluster methods 
  Ingolf Harden          : AUTO-CI MPn and infrastructure                
  Benjamin Helmich-Paris : MC-RPA, TRAH-(SCF,CASSCF), AVAS, COSX integrals, SCF dyn. polar. 
  Lee Huntington         : MR-EOM, pCC                                   
  Robert Izsak           : Overlap fitted RIJCOSX, COSX-SCS-MP3, EOM     
  Riya Kayal             : Wick's Theorem for AUTO-CI, AUTO-CI UHF-CCSDT 
  Emily Kempfer          : AUTO-CI, RHF CISDT and CCSDT                  
  Christian Kollmar      : KDIIS, OOCD, Brueckner-CCSD(T), CCSD density, CASPT2, CASPT2-K, improved NEVPT2 
  Axel Koslowski         : Symmetry handling                             
  Simone Kossmann        : meta-GGA functionals, TD-DFT gradient, OOMP2, (MP2 Hessian; deprecated post 5.0) 
  Lucas Lang             : DCDCAS                                        
  Marvin Lechner         : AUTO-CI (C++ implementation), FIC-MRCC        
  Spencer Leger          : CASSCF response                               
  Dagmar Lenk            : GEPOL surface, SMD, ORCA-2-JSON               
  Dimitrios Liakos       : Extrapolation schemes; Compound Job, initial MDCI parallelization 
  Dimitrios Manganas     : Further ROCIS development; embedding schemes. LFT, Crystal Embedding 
  Dimitrios Pantazis     : SARC Basis sets                               
  Anastasios Papadopoulos: AUTO-CI, single reference methods and gradients 
  Taras Petrenko         : pre 6.0 DFT Hessian and TD-DFT gradient, (ASA, deprecated), ECA, 1-Electron XAS/XES, NRVS 
  Peter Pinski           : DLPNO-MP2, DLPNO-MP2 Gradient                 
  Christoph Reimann      : Effective Core Potentials                     
  Marius Retegan         : Local ZFS, SOC                                
  Christoph Riplinger    : Optimizer, TS searches, QM/MM, DLPNO-CCSD(T), (RO)-DLPNO pert. Triples 
  Michael Roemelt        : Original ROCIS implementation                 
  Masaaki Saitow         : Open-shell DLPNO-CCSD energy and density      
  Barbara Sandhoefer     : DKH picture change effects                    
  Kantharuban Sivalingam : CASSCF convergence/infrastructure, NEVPT2 and variants, FIC-MRCI 
  Bernardo de Souza      : ESD, SOC TD-DFT                               
  Georgi L. Stoychev     : AutoAux, RI-MP2 NMR, DLPNO-MP2 response, X2C  
  Van Anh Tran           : RI-MP2 g-tensors                              
  Willem Van den Heuvel  : Paramagnetic NMR                              
  Zikuan Wang            : NOTCH, Electric field optimization            
  Frank Wennmohs         : Technical directorship and infrastructure     
  Hang Xu                : AUTO-CI-Response properties                   
                                                                         
[FACCTs GmbH]                                                            
  Markus Bursch, Miquel Garcia-Rates, Christoph Riplinger, Bernardo de Souza, Georgi L. Stoychev 
                                                                 
  APM, Basis sets (HGBS, AHGBS, def-TZVP (Ac-Lr), def2-XVPD (La-Lu)), CI-OPT, improved COSX, DLPNO-Multilevel,           
  DOCKER, DRACO, updates on ESD, GOAT, IRC, LR-CPCM, MBIS, meta-GGA TD-DFT gradient, ML-optimized integration grids, 
  MM, NACMEs, nearIR, NEB, NEB-TS, NL-DFT gradient (VV10), 2- and 3-layer-ONIOM, interface openCOSMO-RS, QMMM,   
  Crystal-QMMM, SF, symmetry and pop. for TD-DFT, r2SCAN hybrids, SOLVATOR                                   
                                                                         
[Other institutions]                                                     
  V. Asgeirsson          : NEB                                           
  Christoph Bannwarth    : sTDA-DFT, sTD-DFT, PBEh-3c, B97-3c, D3        
  Sebastian Ehlert       : rSCAN, r2SCAN, r2SCAN-3c, D4, dhf basis sets  
  Marvin Friede          : D4 for Fr, Ra, Ac-Lr                          
  Lars Goerigk           : TD-DFT with DH, B97 family of functionals     
  Stefan Grimme          : VdW corrections, initial TS optimization, DFT functionals, gCP, sTDA/sTD-DF 
  Waldemar Hujo          : DFT-NL                                        
  H. Jonsson             : NEB                                           
  Holger Kruse           : gCP                                           
  Marcel Mueller         : wB97X-3c, vDZP basis set                      
  Hagen Neugebauer       : wr2SCAN                                       
  Tobias Risthaus        : range-separated hybrid DFT                    
  Lukas Wittmann         : regularized MP2, r2SCAN double-hybrids, wr2SCAN        
                                                                         
We gratefully acknowledge several colleagues who have allowed us to      
interface, adapt or use parts of their codes:                            
  Ed Valeev, F. Pavosevic, A. Kumar             : LibInt (2-el integral package), F12 methods 
  Garnet Chan, S. Sharma, J. Yang, R. Olivares  : DMRG                   
  Ulf Ekstrom                                   : XCFun DFT Library      
  Mihaly Kallay                                 : mrcc  (arbitrary order and MRCC methods)
  Frank Weinhold                                : gennbo (NPA and NBO analysis)           
  Simon Mueller                                 : openCOSMO-RS                            
  Christopher J. Cramer and Donald G. Truhlar   : smd solvation model                     
  S Lehtola, MJT Oliveira, MAL Marques          : LibXC Library                           
  Liviu Ungur et al                             : ANISO software                          


 Your calculation uses the libint2 library for the computation of 2-el integrals
 For citations please refer to: http://libint.valeyev.net

 Your ORCA version has been built with support for libXC version: 6.2.2
 For citations please refer to: https://libxc.gitlab.io

 This ORCA versions uses:
   CBLAS   interface :  Fast vector & matrix operations
   LAPACKE interface :  Fast linear algebra routines
   SCALAPACK package :  Parallel linear algebra routines
   Shared memory     :  Shared parallel matrices
   BLAS/LAPACK       :  OpenBLAS 0.3.27  USE64BITINT DYNAMIC_ARCH NO_AFFINITY SkylakeX SINGLE_THREADED
        Core in use  :  SkylakeX
   Copyright (c) 2011-2014, The OpenBLAS Project


NOTE: MaxCore=5000 MB was set to SCF,MP2,MDCI,CIPSI,MRCI and CIS
      => If you want to overwrite this, your respective input block should be placed after the MaxCore statement
Your calculation utilizes the atom-pairwise dispersion correction
based on EEQ partial charges (D4)


Warning: RI is on but no J-basis has been assigned. Assigning Def2/J (nothing to worry about!)
================================================================================

----- Orbital basis set information -----
Your calculation utilizes the basis: def2-TZVP
   F. Weigend and R. Ahlrichs, Phys. Chem. Chem. Phys. 7, 3297 (2005).

----- AuxJ basis set information -----
Your calculation utilizes the auxiliary basis: def2/J
   F. Weigend, Phys. Chem. Chem. Phys. 8, 1057 (2006).

================================================================================
                                        WARNINGS
                       Please study these warnings very carefully!
================================================================================


WARNING: Geometry Optimization
  ===> : Switching off AutoStart
         For restart on a previous wavefunction, please use MOREAD

================================================================================
                                       INPUT FILE
================================================================================
NAME = 01_Alanine_zwitterion.inp
|  1> ! Opt B3LYP D4 def2-TZVP TightSCF TightOpt CPCM(water)
|  2> 
|  3> %maxcore 5000
|  4> 
|  5> %pal
|  6> nprocs 10
|  7> end
|  8> 
|  9> %geom
| 10>     MaxIter 500
| 11> end
| 12> 
| 13> * xyz 0 1
| 14> O         -0.06842       -1.75861        0.75392
| 15> H         -0.36399       -1.07060        1.40178
| 16> H          0.91205       -1.63552        0.69135
| 17> O          2.01739        3.63968       -0.50800
| 18> H          1.40164        4.39537       -0.68213
| 19> H          1.77030        3.32209        0.39679
| 20> H          2.26412       -3.00920       -4.06185
| 21> O          1.73243       -2.33168       -4.55051
| 22> H          2.02257       -1.46571       -4.16779
| 23> H         -1.95966       -0.59958       -1.06241
| 24> C         -1.72569       -0.07016       -2.01216
| 25> H         -0.26160       -1.40091       -2.57291
| 26> H         -2.42231       -0.45039       -2.79217
| 27> N         -0.35546       -0.36845       -2.43736
| 28> H         -3.05823        1.59327       -1.65615
| 29> C         -1.97499        1.44010       -1.85198
| 30> O         -0.41919        1.37639        0.09670
| 31> C         -1.21920        2.08911       -0.71996
| 32> H          0.34124       -0.06770       -1.72132
| 33> O         -1.35640        3.28483       -0.52102
| 34> H         -0.15070        0.10807       -3.34558
| 35> H         -1.72028        1.95020       -2.80604
| 36> *
| 37> 
| 38>                          ****END OF INPUT****
================================================================================

                       *****************************
                       * Geometry Optimization Run *
                       *****************************

Geometry optimization settings:
Update method            Update   .... BFGS
Choice of coordinates    CoordSys .... (2022) Redundant Internals
Initial Hessian          InHess   .... Almloef's Model
Max. no of cycles        MaxIter  .... 500

Convergence Tolerances:
Energy Change            TolE     ....  1.0000e-06 Eh
Max. Gradient            TolMAXG  ....  1.0000e-04 Eh/bohr
RMS Gradient             TolRMSG  ....  3.0000e-05 Eh/bohr
Max. Displacement        TolMAXD  ....  1.0000e-03 bohr
RMS Displacement         TolRMSD  ....  6.0000e-04 bohr
Strict Convergence                .... False

------------------------------------------------------------------------------
                        ORCA OPTIMIZATION COORDINATE SETUP
------------------------------------------------------------------------------

The optimization will be done in redundant internal coordinates (2022)
Making redundant internal coordinates   ...  (2022 redundants) done
Evaluating the initial hessian          ...  (Almloef) done
Evaluating the coordinates              ...  done
Calculating the B-matrix                .... done
Calculating the G-matrix                .... done
Diagonalizing the G-matrix              .... done
The first mode is                       ....  124
The number of degrees of freedom        ....   60

    -----------------------------------------------------------------
                    Redundant Internal Coordinates


    -----------------------------------------------------------------
         Definition                    Initial Value    Approx d2E/dq
    -----------------------------------------------------------------
      1. B(H   1,O   0)                  0.9902         0.465402   
      2. B(H   2,O   0)                  0.9901         0.465449   
      3. B(H   4,O   3)                  0.9902         0.465320   
      4. B(H   5,O   3)                  0.9902         0.465298   
      5. B(O   7,H   6)                  0.9902         0.465338   
      6. B(H   8,O   7)                  0.9902         0.465300   
      7. B(H   9,H   1)                  2.9733         0.000068   
      8. B(H   9,O   0)                  2.8669         0.000472   
      9. B(H   9,H   2)                  3.5207         0.000009   
     10. B(C  10,H   9)                  1.1122         0.331863   
     11. B(H  11,H   2)                  3.4768         0.000011   
     12. B(H  11,O   0)                  3.3516         0.000079   
     13. B(H  11,H   8)                  2.7866         0.000135   
     14. B(H  11,O   7)                  2.9586         0.000337   
     15. B(H  11,H   6)                  3.3441         0.000017   
     16. B(H  12,C  10)                  1.1128         0.331197   
     17. B(N  13,H   2)                  3.6057         0.000031   
     18. B(N  13,O   0)                  3.4927         0.000221   
     19. B(N  13,H  11)                  1.0455         0.379744   
     20. B(N  13,O   7)                  3.5608         0.000172   
     21. B(N  13,C  10)                  1.4654         0.424259   
     22. B(N  13,H   8)                  3.1390         0.000174   
     23. B(C  15,C  10)                  1.5391         0.361351   
     24. B(C  15,H  14)                  1.1114         0.332870   
     25. B(O  16,H   2)                  3.3463         0.000081   
     26. B(O  16,O   0)                  3.2223         0.000598   
     27. B(O  16,H   4)                  3.6106         0.000031   
     28. B(O  16,O   3)                  3.3801         0.000335   
     29. B(O  16,H   5)                  2.9444         0.000355   
     30. B(O  16,H   1)                  2.7738         0.000664   
     31. B(C  17,O  16)                  1.3472         0.654903   
     32. B(C  17,C  15)                  1.5079         0.405101   
     33. B(C  17,H   5)                  3.4212         0.000069   
     34. B(C  17,H   4)                  3.4913         0.000053   
     35. B(C  17,O   3)                  3.5951         0.000170   
     36. B(H  18,N  13)                  1.0433         0.382830   
     37. B(H  18,H   1)                  3.3551         0.000017   
     38. B(H  18,O  16)                  2.4431         0.002237   
     39. B(H  18,O   0)                  3.0255         0.000263   
     40. B(H  18,H   2)                  2.9334         0.000079   
     41. B(H  18,H   8)                  3.2812         0.000022   
     42. B(O  19,O   3)                  3.3924         0.000320   
     43. B(O  19,H   5)                  3.2588         0.000112   
     44. B(O  19,H   4)                  2.9776         0.000314   
     45. B(O  19,C  17)                  1.2199         1.045358   
     46. B(H  20,O   7)                  3.3091         0.000093   
     47. B(H  20,N  13)                  1.0459         0.379274   
     48. B(H  20,H   8)                  2.8064         0.000126   
     49. B(H  21,C  15)                  1.1114         0.332820   
     50. A(H   1,O   0,H   2)          104.5103         0.310444   
     51. A(H   1,O   0,O  16)           54.8962         0.145463   
     52. A(H   2,O   0,N  13)           88.5194         0.134094   
     53. A(N  13,O   0,O  16)           54.3710         0.100498   
     54. A(H   2,O   0,O  16)           88.5077         0.145464   
     55. A(H   1,O   0,N  13)          107.2614         0.134093   
     56. A(C  17,O   3,O  19)           19.8348         0.098478   
     57. A(H   5,O   3,O  16)           56.0761         0.138518   
     58. A(H   4,O   3,C  17)           76.0520         0.131818   
     59. A(O  16,O   3,C  17)           21.9937         0.098576   
     60. A(H   4,O   3,H   5)          104.4937         0.310419   
     61. A(O  16,O   3,O  19)           38.1632         0.099961   
     62. A(H   5,O   3,O  19)           73.8474         0.138013   
     63. A(H   4,O   3,O  16)           95.4057         0.138518   
     64. A(H   4,O   3,O  19)           57.3665         0.138013   
     65. A(H   5,O   3,C  17)           71.9949         0.131817   
     66. A(H   6,O   7,H   8)          104.4952         0.310422   
     67. A(H   8,O   7,N  13)           57.3349         0.131611   
     68. A(H   6,O   7,N  13)          113.5298         0.131612   
     69. A(H  12,C  10,N  13)          108.2055         0.324695   
     70. A(H   9,C  10,N  13)          110.3398         0.324802   
     71. A(N  13,C  10,C  15)          112.4215         0.366942   
     72. A(H  12,C  10,C  15)          107.8696         0.318172   
     73. A(H   9,C  10,C  15)          110.1296         0.318276   
     74. A(H   9,C  10,H  12)          107.7114         0.283426   
     75. A(O   0,N  13,C  10)           83.8428         0.140233   
     76. A(C  10,N  13,H  18)          111.5054         0.329713   
     77. A(C  10,N  13,H  11)          108.8187         0.329273   
     78. A(H  18,N  13,H  20)          109.5056         0.291274   
     79. A(O   0,N  13,H  11)           73.6230         0.132064   
     80. A(O   0,N  13,O   7)          105.9382         0.097678   
     81. A(O   7,N  13,H  20)           67.7322         0.129685   
     82. A(H  11,N  13,H  20)          108.6484         0.290904   
     83. A(O   7,N  13,H  11)           47.6210         0.129696   
     84. A(C  10,N  13,H  20)          110.0168         0.329206   
     85. A(O   7,N  13,C  10)          146.3799         0.137416   
     86. A(O   0,N  13,H  20)          163.4726         0.132052   
     87. A(O   7,N  13,H  18)          100.0594         0.129771   
     88. A(O   0,N  13,H  18)           55.4441         0.132143   
     89. A(H  11,N  13,H  18)          108.2812         0.291331   
     90. A(H  14,C  15,C  17)          107.2724         0.324446   
     91. A(C  17,C  15,H  21)          109.3908         0.324438   
     92. A(C  10,C  15,C  17)          114.7895         0.366333   
     93. A(H  14,C  15,H  21)          108.1413         0.283775   
     94. A(C  10,C  15,H  14)          108.1469         0.318434   
     95. A(C  10,C  15,H  21)          108.8992         0.318426   
     96. A(O   0,O  16,C  17)          134.6676         0.159776   
     97. A(O   0,O  16,O   3)          127.5512         0.101627   
     98. A(O   3,O  16,C  17)           88.0161         0.151073   
     99. A(C  15,C  17,O  16)          121.6689         0.403676   
    100. A(O   3,C  17,O  19)           70.6635         0.148666   
    101. A(O   3,C  17,O  16)           69.9901         0.142673   
    102. A(O   3,C  17,C  15)          132.9307         0.137543   
    103. A(O  16,C  17,O  19)          119.1100         0.475775   
    104. A(C  15,C  17,O  19)          119.2038         0.438808   
    105. A(O   3,O  19,C  17)           89.5017         0.157299   
    106. D(O   0,N  13,C  10,H   9)    -11.0032         0.020327   
    107. D(H  20,N  13,O   0,H   1)     95.3991         0.001500   
    108. D(H  18,N  13,O   7,H   6)     50.8684         0.001500   
    109. D(H  11,N  13,C  10,H  12)    -58.2705         0.020327   
    110. D(H  20,N  13,O   7,H   8)     65.3679         0.001500   
    111. D(H  11,N  13,O   0,O  16)   -179.6765         0.001500   
    112. D(H  20,N  13,O   7,H   6)    157.9540         0.001500   
    113. D(H  11,N  13,O   7,H   8)   -147.3464         0.001500   
    114. D(O   7,N  13,O   0,H   1)    160.3808         0.001500   
    115. D(H  11,N  13,C  10,H   9)     59.3408         0.020327   
    116. D(O   0,N  13,O   7,H   6)     -5.8719         0.001500   
    117. D(H  11,N  13,O   7,H   6)    -54.7603         0.001500   
    118. D(C  10,N  13,O   7,H   8)    158.3600         0.001500   
    119. D(H  18,N  13,C  10,H  12)   -177.6420         0.020327   
    120. D(C  10,N  13,O   0,H   1)    -52.4543         0.001500   
    121. D(O   0,N  13,O   7,H   8)    -98.4580         0.001500   
    122. D(H  18,N  13,O   7,H   8)    -41.7177         0.001500   
    123. D(C  10,N  13,O   0,H   2)   -157.1939         0.001500   
    124. D(H  11,N  13,O   0,H   2)     91.0985         0.001500   
    125. D(H  11,N  13,C  10,C  15)   -177.2921         0.020327   
    126. D(H  18,N  13,C  10,H   9)    -60.0307         0.020327   
    127. D(H  20,N  13,O   0,O  16)     79.8844         0.001500   
    128. D(H  20,N  13,C  10,H  12)     60.6561         0.020327   
    129. D(H  20,N  13,O   0,H   2)     -9.3406         0.001500   
    130. D(H  20,N  13,C  10,C  15)    -58.3655         0.020327   
    131. D(C  10,N  13,O   0,O  16)    -67.9689         0.001500   
    132. D(H  18,N  13,O   0,H   1)     69.0123         0.001500   
    133. D(H  20,N  13,C  10,H   9)    178.2674         0.020327   
    134. D(H  18,N  13,C  10,C  15)     63.3363         0.020327   
    135. D(C  10,N  13,O   7,H   6)   -109.0539         0.001500   
    136. D(H  18,N  13,O   0,H   2)    -35.7274         0.001500   
    137. D(H  11,N  13,O   0,H   1)   -164.1619         0.001500   
    138. D(H  18,N  13,O   0,O  16)     53.4976         0.001500   
    139. D(C  17,C  15,C  10,H  12)    173.4291         0.010470   
    140. D(H  14,C  15,C  10,N  13)    172.9418         0.010470   
    141. D(H  14,C  15,C  10,H  12)     53.7237         0.010470   
    142. D(H  14,C  15,C  10,H   9)    -63.5738         0.010470   
    143. D(C  17,C  15,C  10,N  13)    -67.3528         0.010470   
    144. D(C  17,C  15,C  10,H   9)     56.1316         0.010470   
    145. D(O   0,O  16,O   3,C  17)    149.3856         0.001500   
    146. D(O   0,O  16,O   3,O  19)    173.2399         0.001500   
    147. D(O   0,O  16,O   3,H   5)    -78.5057         0.001500   
    148. D(O   0,O  16,O   3,H   4)    177.6482         0.001500   
    149. D(C  17,O  16,O   3,O  19)     23.8543         0.001500   
    150. D(C  17,O  16,O   3,H   5)    132.1087         0.001500   
    151. D(C  17,O  16,O   3,H   4)     28.2626         0.001500   
    152. D(O   3,O  16,O   0,N  13)    -88.6050         0.001500   
    153. D(O   3,O  16,O   0,H   2)      0.6427         0.001500   
    154. D(O   3,O  16,O   0,H   1)    109.5886         0.001500   
    155. D(C  17,O  16,O   0,N  13)     45.7004         0.001500   
    156. D(C  17,O  16,O   0,H   2)    134.9481         0.001500   
    157. D(C  17,O  16,O   0,H   1)   -116.1060         0.001500   
    158. D(O  16,C  17,C  15,C  10)     -1.5930         0.014570   
    159. D(O  19,C  17,O   3,H   5)     92.2318         0.001500   
    160. D(O  19,C  17,O   3,H   4)    -18.3704         0.001500   
    161. D(O  16,C  17,O   3,O  19)   -132.5694         0.001500   
    162. D(O  16,C  17,O   3,H   5)    -40.3376         0.001500   
    163. D(O  16,C  17,O   3,H   4)   -150.9398         0.001500   
    164. D(C  15,C  17,O   3,O  19)    112.3210         0.001500   
    165. D(C  15,C  17,O   3,O  16)   -115.1097         0.001500   
    166. D(C  15,C  17,O   3,H   5)   -155.4473         0.001500   
    167. D(O  16,C  17,C  15,H  14)    118.5971         0.014570   
    168. D(C  15,C  17,O   3,H   4)     93.9505         0.001500   
    169. D(O   3,C  17,O  16,O   0)   -145.4103         0.055878   
    170. D(O  19,C  17,O  16,O   3)    -52.6913         0.055878   
    171. D(O  19,C  17,O  16,O   0)    161.8984         0.055878   
    172. D(C  15,C  17,O  16,O   3)    128.8329         0.055878   
    173. D(C  15,C  17,O  16,O   0)    -16.5773         0.055878   
    174. D(O   3,C  17,C  15,H  14)   -149.9859         0.014570   
    175. D(O   3,C  17,C  15,C  10)     89.8240         0.014570   
    176. D(O  19,C  17,C  15,H  21)     57.1951         0.014570   
    177. D(O  19,C  17,C  15,H  14)    -59.8773         0.014570   
    178. D(O  19,C  17,C  15,C  10)    179.9326         0.014570   
    179. D(O  16,C  17,C  15,H  21)   -124.3306         0.014570   
    180. D(O   3,O  19,C  17,O  16)     52.3772         0.134021   
    181. D(O   3,O  19,C  17,C  15)   -129.1090         0.134021   
    182. D(C  17,O  19,O   3,O  16)    -26.5104         0.001500   
    183. D(C  17,O  19,O   3,H   5)    -81.6360         0.001500   
    184. D(C  17,O  19,O   3,H   4)    158.7030         0.001500   
    -----------------------------------------------------------------

Number of atoms                         .... 22
Number of degrees of freedom            .... 184


         *************************************************************
         *                GEOMETRY OPTIMIZATION CYCLE   1            *
         *************************************************************
---------------------------------
CARTESIAN COORDINATES (ANGSTROEM)
---------------------------------
  O     -0.068420   -1.758610    0.753920
  H     -0.363990   -1.070600    1.401780
  H      0.912050   -1.635520    0.691350
  O      2.017390    3.639680   -0.508000
  H      1.401640    4.395370   -0.682130
  H      1.770300    3.322090    0.396790
  H      2.264120   -3.009200   -4.061850
  O      1.732430   -2.331680   -4.550510
  H      2.022570   -1.465710   -4.167790
  H     -1.959660   -0.599580   -1.062410
  C     -1.725690   -0.070160   -2.012160
  H     -0.261600   -1.400910   -2.572910
  H     -2.422310   -0.450390   -2.792170
  N     -0.355460   -0.368450   -2.437360
  H     -3.058230    1.593270   -1.656150
  C     -1.974990    1.440100   -1.851980
  O     -0.419190    1.376390    0.096700
  C     -1.219200    2.089110   -0.719960
  H      0.341240   -0.067700   -1.721320
  O     -1.356400    3.284830   -0.521020
  H     -0.150700    0.108070   -3.345580
  H     -1.720280    1.950200   -2.806040

----------------------------
CARTESIAN COORDINATES (A.U.)
----------------------------
  NO LB      ZA    FRAG     MASS         X           Y           Z
   0 O     8.0000    0    15.999   -0.129295   -3.323291    1.424702
   1 H     1.0000    0     1.008   -0.687841   -2.023141    2.648980
   2 H     1.0000    0     1.008    1.723525   -3.090685    1.306462
   3 O     8.0000    0    15.999    3.812315    6.877998   -0.959981
   4 H     1.0000    0     1.008    2.648716    8.306046   -1.289039
   5 H     1.0000    0     1.008    3.345382    6.277840    0.749824
   6 H     1.0000    0     1.008    4.278567   -5.686564   -7.675784
   7 O     8.0000    0    15.999    3.273818   -4.406237   -8.599218
   8 H     1.0000    0     1.008    3.822103   -2.769790   -7.875982
   9 H     1.0000    0     1.008   -3.703221   -1.133042   -2.007664
  10 C     6.0000    0    12.011   -3.261081   -0.132583   -3.802431
  11 H     1.0000    0     1.008   -0.494352   -2.647336   -4.862095
  12 H     1.0000    0     1.008   -4.577503   -0.851114   -5.276437
  13 N     7.0000    0    14.007   -0.671722   -0.696270   -4.605943
  14 H     1.0000    0     1.008   -5.779217    3.010844   -3.129670
  15 C     6.0000    0    12.011   -3.732190    2.721395   -3.499735
  16 O     8.0000    0    15.999   -0.792154    2.601000    0.182737
  17 C     6.0000    0    12.011   -2.303954    3.947846   -1.360527
  18 H     1.0000    0     1.008    0.644850   -0.127934   -3.252823
  19 O     8.0000    0    15.999   -2.563225    6.207429   -0.984585
  20 H     1.0000    0     1.008   -0.284782    0.204223   -6.322230
  21 H     1.0000    0     1.008   -3.250858    3.685344   -5.302647

--------------------------------
INTERNAL COORDINATES (ANGSTROEM)
--------------------------------
 O      0   0   0     0.000000000000     0.00000000     0.00000000
 H      1   0   0     0.990172694332     0.00000000     0.00000000
 H      1   2   0     0.990145228691   104.51030502     0.00000000
 O      3   1   2     5.521589624202   109.31266101   306.60746279
 H      4   3   1     0.990220528721   130.00199169   357.76089467
 H      4   3   1     0.990233215106    56.30091154    78.15192828
 H      3   1   2     5.129132506311   106.63641057   210.48158906
 O      7   3   1     0.990210180770    97.61594992    61.48301349
 H      8   7   3     0.990232224733   104.49519495    55.15334371
 H      1   2   3     2.866913662355    86.37078582   235.51159786
 C     10   1   2     1.112228645468   126.48859968   114.16043468
 H     11  10   1     2.056427886676    94.27756944    41.23924292
 H     11  10   1     1.112775753420   107.71142317   134.62704684
 N     12  11  10     1.045541560006    42.41435828   233.98202085
 H     11  10   1     2.160880685415    95.50965617   225.93741018
 C     15  11  10     1.111404217825    42.59484990   122.35913343
 O     16  15  11     2.494378950060   118.28018851   262.94557266
 C     17  16  15     1.347189427698    30.96535000   287.81521493
 H     14  12  11     1.043338264467   108.28116566   121.36313304
 O     18  17  16     1.219896422652   119.10996253   178.47573975
 H     14  12  11     1.045878356407   108.64837342   240.21971514
 H     16  15  11     1.111444860396   108.14129039   117.77993693

---------------------------
INTERNAL COORDINATES (A.U.)
---------------------------
 O      0   0   0     0.000000000000     0.00000000     0.00000000
 H      1   0   0     1.871155217574     0.00000000     0.00000000
 H      1   2   0     1.871103315035   104.51030502     0.00000000
 O      3   1   2    10.434292213644   109.31266101   306.60746279
 H      4   3   1     1.871245611469   130.00199169   357.76089467
 H      4   3   1     1.871269585263    56.30091154    78.15192828
 H      3   1   2     9.692655741522   106.63641057   210.48158906
 O      7   3   1     1.871226056675    97.61594992    61.48301349
 H      8   7   3     1.871267713729   104.49519495    55.15334371
 H      1   2   3     5.417681671449    86.37078582   235.51159786
 C     10   1   2     2.101807538237   126.48859968   114.16043468
 H     11  10   1     3.886085519977    94.27756944    41.23924292
 H     11  10   1     2.102841422432   107.71142317   134.62704684
 N     12  11  10     1.975787210044    42.41435828   233.98202085
 H     11  10   1     4.083472703515    95.50965617   225.93741018
 C     15  11  10     2.100249595775    42.59484990   122.35913343
 O     16  15  11     4.713693089831   118.28018851   262.94557266
 C     17  16  15     2.545819068862    30.96535000   287.81521493
 H     14  12  11     1.971623584882   108.28116566   121.36313304
 O     18  17  16     2.305270150563   119.10996253   178.47573975
 H     14  12  11     1.976423663004   108.64837342   240.21971514
 H     16  15  11     2.100326399102   108.14129039   117.77993693

---------------------
BASIS SET INFORMATION
---------------------
There are 4 groups of distinct atoms

 Group   1 Type O   : 11s6p2d1f contracted to 5s3p2d1f pattern {62111/411/11/1}
 Group   2 Type H   : 5s1p contracted to 3s1p pattern {311/1}
 Group   3 Type C   : 11s6p2d1f contracted to 5s3p2d1f pattern {62111/411/11/1}
 Group   4 Type N   : 11s6p2d1f contracted to 5s3p2d1f pattern {62111/411/11/1}

Atom   0O    basis set group =>   1
Atom   1H    basis set group =>   2
Atom   2H    basis set group =>   2
Atom   3O    basis set group =>   1
Atom   4H    basis set group =>   2
Atom   5H    basis set group =>   2
Atom   6H    basis set group =>   2
Atom   7O    basis set group =>   1
Atom   8H    basis set group =>   2
Atom   9H    basis set group =>   2
Atom  10C    basis set group =>   3
Atom  11H    basis set group =>   2
Atom  12H    basis set group =>   2
Atom  13N    basis set group =>   4
Atom  14H    basis set group =>   2
Atom  15C    basis set group =>   3
Atom  16O    basis set group =>   1
Atom  17C    basis set group =>   3
Atom  18H    basis set group =>   2
Atom  19O    basis set group =>   1
Atom  20H    basis set group =>   2
Atom  21H    basis set group =>   2
---------------------------------
AUXILIARY/J BASIS SET INFORMATION
---------------------------------
There are 4 groups of distinct atoms

 Group   1 Type O   : 12s5p4d2f1g contracted to 6s4p3d1f1g pattern {711111/2111/211/2/1}
 Group   2 Type H   : 5s2p1d contracted to 3s1p1d pattern {311/2/1}
 Group   3 Type C   : 12s5p4d2f1g contracted to 6s4p3d1f1g pattern {711111/2111/211/2/1}
 Group   4 Type N   : 12s5p4d2f1g contracted to 6s4p3d1f1g pattern {711111/2111/211/2/1}

Atom   0O    basis set group =>   1
Atom   1H    basis set group =>   2
Atom   2H    basis set group =>   2
Atom   3O    basis set group =>   1
Atom   4H    basis set group =>   2
Atom   5H    basis set group =>   2
Atom   6H    basis set group =>   2
Atom   7O    basis set group =>   1
Atom   8H    basis set group =>   2
Atom   9H    basis set group =>   2
Atom  10C    basis set group =>   3
Atom  11H    basis set group =>   2
Atom  12H    basis set group =>   2
Atom  13N    basis set group =>   4
Atom  14H    basis set group =>   2
Atom  15C    basis set group =>   3
Atom  16O    basis set group =>   1
Atom  17C    basis set group =>   3
Atom  18H    basis set group =>   2
Atom  19O    basis set group =>   1
Atom  20H    basis set group =>   2
Atom  21H    basis set group =>   2
--------------------------------------------------------------------------
WARNING: There was an error initializing an OpenFabrics device.

  Local host:   ga00
  Local device: mlx5_0
--------------------------------------------------------------------------


           ************************************************************
           *        Program running with 10 parallel MPI-processes    *
           *              working on a common directory               *
           ************************************************************
------------------------------------------------------------------------------
                             ORCA STARTUP CALCULATIONS
                           -- RI-GTO INTEGRALS CHOSEN --
------------------------------------------------------------------------------
------------------------------------------------------------------------------
                   ___                                                        
                  /   \      - P O W E R E D   B Y -                         
                 /     \                                                     
                 |  |  |   _    _      __       _____    __    __             
                 |  |  |  | |  | |    /  \     |  _  \  |  |  /  |          
                  \  \/   | |  | |   /    \    | | | |  |  | /  /          
                 / \  \   | |__| |  /  /\  \   | |_| |  |  |/  /          
                |  |  |   |  __  | /  /__\  \  |    /   |      \           
                |  |  |   | |  | | |   __   |  |    \   |  |\   \          
                \     /   | |  | | |  |  |  |  | |\  \  |  | \   \       
                 \___/    |_|  |_| |__|  |__|  |_| \__\ |__|  \__/        
                                                                              
                      - O R C A' S   B I G   F R I E N D -                    
                                      &                                       
                       - I N T E G R A L  F E E D E R -                       
                                                                              
 v1 FN, 2020, v2 2021, v3 2022-2024                                           
------------------------------------------------------------------------------


----------------------
SHARK INTEGRAL PACKAGE
----------------------

Number of atoms                             ...     22
Number of basis functions                   ...    357
Number of shells                            ...    151
Maximum angular momentum                    ...      3
Integral batch strategy                     ... SHARK/LIBINT Hybrid
RI-J (if used) integral strategy            ... SPLIT-RIJ (Revised 2003 algorithm where possible)
Printlevel                                  ...      1
Contraction scheme used                     ... SEGMENTED contraction
Prescreening option                         ... SCHWARTZ
   Thresh                                   ... 2.500e-11
   Tcut                                     ... 2.500e-12
   Tpresel                                  ... 2.500e-12 
Coulomb Range Separation                    ... NOT USED
Exchange Range Separation                   ... NOT USED
Multipole approximations                    ... NOT USED
Finite Nucleus Model                        ... NOT USED
CABS basis                                  ... NOT available
Auxiliary Coulomb fitting basis             ... AVAILABLE
   # of basis functions in Aux-J            ...    584
   # of shells in Aux-J                     ...    200
   Maximum angular momentum in Aux-J        ...      4
Auxiliary J/K fitting basis                 ... NOT available
Auxiliary Correlation fitting basis         ... NOT available
Auxiliary 'external' fitting basis          ... NOT available

Checking pre-screening integrals            ... done (  0.0 sec) Dimension = 151
Check shell pair data                       ... done (  0.0 sec)
Shell pair information
Shell pair cut-off parameter TPreSel        ...   2.5e-12
Total number of shell pairs                 ...     11476
Shell pairs after pre-screening             ...      8779
Total number of primitive shell pairs       ...     33648
Primitive shell pairs kept                  ...     18208
          la=0 lb=0:   2754 shell pairs
          la=1 lb=0:   2639 shell pairs
          la=1 lb=1:    658 shell pairs
          la=2 lb=0:   1120 shell pairs
          la=2 lb=1:    541 shell pairs
          la=2 lb=2:    123 shell pairs
          la=3 lb=0:    536 shell pairs
          la=3 lb=1:    266 shell pairs
          la=3 lb=2:    111 shell pairs
          la=3 lb=3:     31 shell pairs

Calculating one electron integrals          ... done (  0.0 sec)
Calculating RI/J V-Matrix + Cholesky decomp.... done (  0.0 sec)
Calculating Nuclear repulsion               ... done (  0.0 sec) ENN=    468.787273399379 Eh

Diagonalization of the overlap matrix:
Smallest eigenvalue                        ... 1.909e-04
Time for diagonalization                   ...    0.011 sec
Threshold for overlap eigenvalues          ... 1.000e-07
Number of eigenvalues below threshold      ... 0
Time for construction of square roots      ...    0.005 sec
Total time needed                          ...    0.017 sec

-------------------
DFT GRID GENERATION
-------------------

General Integration Accuracy     IntAcc      ... 4.388
Radial Grid Type                 RadialGrid  ... OptM3 with GC (2021)
Angular Grid (max. ang.)         AngularGrid ... 4 (Lebedev-302)
Angular grid pruning method      GridPruning ... 4 (adaptive)
Weight generation scheme         WeightScheme... mBecke (2022)
Basis function cutoff            BFCut       ... 1.0000e-11
Integration weight cutoff        WCut        ... 1.0000e-14
Partially contracted basis set               ... off
Rotationally invariant grid construction     ... off
Angular grids for H and He will be reduced by one unit

Total number of grid points                  ...    96706
Total number of batches                      ...     1525
Average number of points per batch           ...       63
Average number of grid points per atom       ...     4396

--------------------
COSX GRID GENERATION
--------------------

GRIDX 1
-------
General Integration Accuracy     IntAcc      ... 3.816
Radial Grid Type                 RadialGrid  ... OptM3 with GC (2021)
Angular Grid (max. ang.)         AngularGrid ... 1 (Lebedev-50)
Angular grid pruning method      GridPruning ... 4 (adaptive)
Weight generation scheme         WeightScheme... mBecke (2022)
Basis function cutoff            BFCut       ... 1.0000e-11
Integration weight cutoff        WCut        ... 1.0000e-14
Partially contracted basis set               ... on
Rotationally invariant grid construction     ... off
Angular grids for H and He will be reduced by one unit

Total number of grid points                  ...    12396
Total number of batches                      ...      107
Average number of points per batch           ...      115
Average number of grid points per atom       ...      563
UseSFitting                                  ... on

GRIDX 2
-------
General Integration Accuracy     IntAcc      ... 4.020
Radial Grid Type                 RadialGrid  ... OptM3 with GC (2021)
Angular Grid (max. ang.)         AngularGrid ... 2 (Lebedev-110)
Angular grid pruning method      GridPruning ... 4 (adaptive)
Weight generation scheme         WeightScheme... mBecke (2022)
Basis function cutoff            BFCut       ... 1.0000e-11
Integration weight cutoff        WCut        ... 1.0000e-14
Partially contracted basis set               ... on
Rotationally invariant grid construction     ... off
Angular grids for H and He will be reduced by one unit

Total number of grid points                  ...    26290
Total number of batches                      ...      219
Average number of points per batch           ...      120
Average number of grid points per atom       ...     1195
UseSFitting                                  ... on

GRIDX 3
-------
General Integration Accuracy     IntAcc      ... 4.338
Radial Grid Type                 RadialGrid  ... OptM3 with GC (2021)
Angular Grid (max. ang.)         AngularGrid ... 3 (Lebedev-194)
Angular grid pruning method      GridPruning ... 4 (adaptive)
Weight generation scheme         WeightScheme... mBecke (2022)
Basis function cutoff            BFCut       ... 1.0000e-11
Integration weight cutoff        WCut        ... 1.0000e-14
Partially contracted basis set               ... on
Rotationally invariant grid construction     ... off
Angular grids for H and He will be reduced by one unit

Total number of grid points                  ...    57515
Total number of batches                      ...      462
Average number of points per batch           ...      124
Average number of grid points per atom       ...     2614
UseSFitting                                  ... on
Initializing property integral containers    ... done (  0.0 sec)

SHARK setup successfully completed in   0.9 seconds

Maximum memory used throughout the entire STARTUP-calculation: 32.9 MB
[ga00:1114435] 9 more processes have sent help message help-mpi-btl-openib.txt / error in device init
[ga00:1114435] Set MCA parameter "orte_base_help_aggregate" to 0 to see all help / error messages
--------------------------------------------------------------------------
WARNING: There was an error initializing an OpenFabrics device.

  Local host:   ga00
  Local device: mlx5_0
--------------------------------------------------------------------------


           ************************************************************
           *        Program running with 10 parallel MPI-processes    *
           *              working on a common directory               *
           ************************************************************
-------------------------------------------------------------------------------
                                 ORCA GUESS
                   Start orbitals & Density for SCF / CASSCF
-------------------------------------------------------------------------------

------------
SCF SETTINGS
------------
Hamiltonian:
 Density Functional     Method          .... DFT(GTOs)
 Exchange Functional    Exchange        .... B88
   X-Alpha parameter    XAlpha          ....  0.666667
   Becke's b parameter  XBeta           ....  0.004200
 Correlation Functional Correlation     .... LYP
 LDA part of GGA corr.  LDAOpt          .... VWN-5
 Gradients option       PostSCFGGA      .... off
 Hybrid DFT is turned on
   Fraction HF Exchange ScalHFX         ....  0.200000
   Scaling of DF-GGA-X  ScalDFX         ....  0.720000
   Scaling of DF-GGA-C  ScalDFC         ....  0.810000
   Scaling of DF-LDA-C  ScalLDAC        ....  1.000000
   Perturbative correction              ....  0.000000
   NL short-range parameter             ....  4.800000
 RI-approximation to the Coulomb term is turned on
   Number of AuxJ basis functions       .... 584
   RIJ-COSX (HFX calculated with COS-X)).... on


General Settings:
 Integral files         IntName         .... 01_Alanine_zwitterion
 Hartree-Fock type      HFTyp           .... RHF
 Total Charge           Charge          ....    0
 Multiplicity           Mult            ....    1
 Number of Electrons    NEL             ....   78
 Basis Dimension        Dim             ....  357
 Nuclear Repulsion      ENuc            ....    468.7872733994 Eh

Convergence Acceleration:
 AO-DIIS                CNVDIIS         .... on
   Start iteration      DIISMaxIt       ....    12
   Startup error        DIISStart       ....  0.200000
   # of expansion vecs  DIISMaxEq       ....     5
   Bias factor          DIISBfac        ....   1.050
   Max. coefficient     DIISMaxC        ....  10.000
 MO-DIIS                CNVKDIIS        .... off
 Trust-Rad. Augm. Hess. CNVTRAH         .... auto
   Auto Start mean grad. ratio tolernc. ....  1.125000
   Auto Start start iteration           ....    50
   Auto Start num. interpolation iter.  ....    10
   Max. Number of Micro iterations      ....    24
   Max. Number of Macro iterations      .... Maxiter - #DIIS iter
   Number of Davidson start vectors     ....     2
   Converg. threshold    (grad. norm)   ....   1.000e-05
   Grad. Scal. Fac. for Micro threshold ....   0.100
   Minimum threshold for Micro iter.    ....   1.000e-02
   NR start threshold (gradient norm)   ....   1.000e-04
   Initial trust radius                 ....   0.400
   Minimum AH scaling param. (alpha)    ....   1.000
   Maximum AH scaling param. (alpha)    .... 1000.000
   Quad. conv. algorithm                .... NR
   White noise on init. David. guess    .... on
   Maximum white noise                  ....   0.010
   Pseudo random numbers                .... off
   Inactive MOs                         .... canonical
   Orbital update algorithm             .... Taylor
   Preconditioner                       .... Diag
   Full preconditioner red. dimension   ....   250
 SOSCF                  CNVSOSCF        .... on
   Start iteration      SOSCFMaxIt      ....   150
   Startup grad/error   SOSCFStart      ....  0.003300
   Hessian update       SOSCFHessUp     .... L-BFGS
 Level Shifting         CNVShift        .... on
   Level shift para.    LevelShift      ....    0.2500
   Turn off err/grad.   ShiftErr        ....    0.0010
 Zerner damping         CNVZerner       .... off
 Static damping         CNVDamp         .... on
   Fraction old density DampFac         ....    0.7000
   Max. Damping (<1)    DampMax         ....    0.9800
   Min. Damping (>=0)   DampMin         ....    0.0000
   Turn off err/grad.   DampErr         ....    0.1000

SCF Procedure:
 Maximum # iterations   MaxIter         ....   125
 SCF integral mode      SCFMode         .... Direct
   Integral package                     .... SHARK and LIBINT hybrid scheme
 Reset frequency        DirectResetFreq ....    20
 Integral Threshold     Thresh          ....  2.500e-11 Eh
 Primitive CutOff       TCut            ....  2.500e-12 Eh

Convergence Tolerance:
 Convergence Check Mode ConvCheckMode   .... Total+1el-Energy
 Convergence forced     ConvForced      .... 0
 Energy Change          TolE            ....  1.000e-08 Eh
 1-El. energy change                    ....  1.000e-05 Eh
 Orbital Gradient       TolG            ....  1.000e-05
 Orbital Rotation angle TolX            ....  1.000e-05
 DIIS Error             TolErr          ....  5.000e-07

------------------------------
INITIAL GUESS: MODEL POTENTIAL
------------------------------
Loading Hartree-Fock densities                     ... done
Calculating cut-offs                               ... done
Initializing the effective Hamiltonian             ... done
Setting up the integral package (SHARK)            ... done
Starting the Coulomb interaction                   ... done (   0.0 sec)
Making the grid                                    ... done (   0.1 sec)
Mapping shells                                     ... done
Starting the XC term evaluation                    ... done (   0.0 sec)
  promolecular density results
     # of electrons  =     77.997512907
     EX              =    -66.741482470
     EC              =     -2.641594304
     EX+EC           =    -69.383076774
Transforming the Hamiltonian                       ... done (   0.0 sec)
Diagonalizing the Hamiltonian                      ... done (   0.0 sec)
Back transforming the eigenvectors                 ... done (   0.0 sec)
Now organizing SCF variables                       ... done
                      ------------------
                      INITIAL GUESS DONE (   0.2 sec)
                      ------------------
             **** ENERGY FILE WAS UPDATED (01_Alanine_zwitterion.en.tmp) ****
Finished Guess after   0.5 sec
Maximum memory used throughout the entire GUESS-calculation: 21.5 MB
[ga00:1114491] 9 more processes have sent help message help-mpi-btl-openib.txt / error in device init
[ga00:1114491] Set MCA parameter "orte_base_help_aggregate" to 0 to see all help / error messages
--------------------------------------------------------------------------
WARNING: There was an error initializing an OpenFabrics device.

  Local host:   ga00
  Local device: mlx5_0
--------------------------------------------------------------------------


           ************************************************************
           *        Program running with 10 parallel MPI-processes    *
           *              working on a common directory               *
           ************************************************************

-------------------------------------------------------------------------------------------
                                      ORCA LEAN-SCF
                              memory conserving SCF solver
-------------------------------------------------------------------------------------------

--------------------
CPCM SOLVATION MODEL
--------------------
CPCM parameters:
  Epsilon                                         ...      80.1510
  Refrac                                          ...       1.3328
  Rsolv                                           ...       1.3000
  Surface type                                    ... GAUSSIAN VDW
  Discretization scheme                           ... Constant charge density
    Threshold for H atoms                         ...       5.0000 (charges/Ang^2)
    Threshold for non-H atoms                     ...       5.0000 (charges/Ang^2)
  Epsilon function type                           ...         CPCM
Solvent:                                          ... WATER
Radii:
  Scheme                                          ... Element-dependent radii
  Radius for O  used is    3.4469 Bohr (=   1.8240 Ang.)
  Radius for H  used is    2.4944 Bohr (=   1.3200 Ang.)
  Radius for C  used is    3.8550 Bohr (=   2.0400 Ang.)
  Radius for N  used is    3.5149 Bohr (=   1.8600 Ang.)
Calculating surface                               ...        done! (  0.0s)
Cavity surface points                             ...         2074
Cavity Volume                                     ...    1336.6031
Cavity Surface-area                               ...     888.5442
Calculating surface distance matrix               ...        done! (  0.0s)
Performing Cholesky decomposition & store         ...        done! (  0.1s)
Overall time for CPCM initialization              ...                 0.1s

----------------------------------------D-I-I-S--------------------------------------------
Iteration    Energy (Eh)           Delta-E    RMSDP     MaxDP     DIISErr   Damp  Time(sec)
-------------------------------------------------------------------------------------------
               ***  Starting incremental Fock matrix formation  ***
    1    -552.4495101323988138     0.00e+00  2.74e-03  3.14e-01  3.40e-01  0.700   1.2
    2    -552.7336146146685678    -2.84e-01  2.33e-03  3.19e-01  1.37e-01  0.700   0.8
                               ***Turning on AO-DIIS***
    3    -552.8236210326547280    -9.00e-02  7.76e-04  9.28e-02  3.55e-02  0.700   0.8
    4    -552.8820413174815940    -5.84e-02  6.88e-04  4.63e-02  1.45e-02  0.000   0.8
    5    -553.0183665145970053    -1.36e-01  6.25e-04  9.66e-02  9.49e-03  0.000   0.7
[ga00:1114547] 9 more processes have sent help message help-mpi-btl-openib.txt / error in device init
[ga00:1114547] Set MCA parameter "orte_base_help_aggregate" to 0 to see all help / error messages
                              *** Initializing SOSCF ***
---------------------------------------S-O-S-C-F--------------------------------------
Iteration    Energy (Eh)           Delta-E    RMSDP     MaxDP     MaxGrad    Time(sec)
--------------------------------------------------------------------------------------
    6    -553.0190692364216147    -7.03e-04  2.18e-04  3.31e-02  1.78e-03     0.7
               *** Restarting incremental Fock matrix formation ***
    7    -553.0190726400529684    -3.40e-06  1.33e-04  1.88e-02  4.08e-04     1.2
    8    -553.0190733574611386    -7.17e-07  4.43e-05  4.77e-03  4.49e-04     0.9
    9    -553.0190808502695745    -7.49e-06  5.09e-05  7.25e-03  1.52e-04     0.9
   10    -553.0190812302395216    -3.80e-07  9.53e-06  1.30e-03  1.24e-04     0.9
   11    -553.0190821224324509    -8.92e-07  7.39e-06  1.04e-03  1.29e-05     0.8
   12    -553.0190821303789335    -7.95e-09  1.65e-06  2.37e-04  1.35e-05     0.8
                 **** Energy Check signals convergence ****

               *****************************************************
               *                     SUCCESS                       *
               *           SCF CONVERGED AFTER  12 CYCLES          *
               *****************************************************

Recomputing exchange energy using gridx3       ... done (    1.627 sec)
Old exchange energy                            :    -13.548502294 Eh
New exchange energy                            :    -13.548476220 Eh
Exchange energy change after final integration :      0.000026074 Eh
Total energy after final integration           :   -553.019056056 Eh
             **** ENERGY FILE WAS UPDATED (01_Alanine_zwitterion.en.tmp) ****

----------------
TOTAL SCF ENERGY
----------------

Total Energy       :       -553.01905605633056 Eh          -15048.41356 eV

Components:
Nuclear Repulsion  :        468.78727339937916 Eh           12756.35023 eV
Electronic Energy  :      -1021.70722943214957 Eh          -27802.06714 eV
One Electron Energy:      -1689.03744390977658 Eh          -45961.04546 eV
Two Electron Energy:        667.33021447762701 Eh           18158.97832 eV
CPCM Dielectric    :         -0.09912609760857 Eh              -2.69736 eV

Virial components:
Potential Energy   :      -1103.18530270944666 Eh          -30019.19823 eV
Kinetic Energy     :        550.16624665311622 Eh           14970.78467 eV
Virial Ratio       :          2.00518535882666

DFT components:
N(Alpha)           :       39.000008988017 electrons
N(Beta)            :       39.000008988017 electrons
N(Total)           :       78.000017976035 electrons
E(X)               :      -53.950324028223 Eh       
E(C)               :       -3.139118333064 Eh       
E(XC)              :      -57.089442361287 Eh       

CPCM Solvation Model Properties:
Surface-charge          :         -0.02241837266175
Corrected charge        :         -0.00000000000000
Outlying charge corr.   :          0.00003167491383 Eh               0.00086 eV
Free-energy (cav+disp)  :  This term is not implemented in the current solvation scheme

---------------
SCF CONVERGENCE
---------------

  Last Energy change         ...    7.9465e-09  Tolerance :   1.0000e-08
  Last MAX-Density change    ...    2.3746e-04  Tolerance :   1.0000e-07
  Last RMS-Density change    ...    1.6509e-06  Tolerance :   5.0000e-09
  Last DIIS Error            ...    1.7829e-03  Tolerance :   5.0000e-07
  Last Orbital Gradient      ...    1.3542e-05  Tolerance :   1.0000e-05
  Last Orbital Rotation      ...    1.0711e-05  Tolerance :   1.0000e-05


----------------
ORBITAL ENERGIES
----------------

  NO   OCC          E(Eh)            E(eV) 
   0   2.0000     -19.128172      -520.5040 
   1   2.0000     -19.121749      -520.3292 
   2   2.0000     -19.120326      -520.2905 
   3   2.0000     -19.061093      -518.6787 
   4   2.0000     -19.047374      -518.3054 
   5   2.0000     -14.426098      -392.5541 
   6   2.0000     -10.248748      -278.8826 
   7   2.0000     -10.223925      -278.2072 
   8   2.0000     -10.178757      -276.9781 
   9   2.0000      -1.019035       -27.7294 
  10   2.0000      -0.997983       -27.1565 
  11   2.0000      -0.992078       -26.9958 
  12   2.0000      -0.990515       -26.9533 
  13   2.0000      -0.988973       -26.9113 
  14   2.0000      -0.897932       -24.4340 
  15   2.0000      -0.768330       -20.9073 
  16   2.0000      -0.655605       -17.8399 
  17   2.0000      -0.572755       -15.5854 
  18   2.0000      -0.563467       -15.3327 
  19   2.0000      -0.516845       -14.0641 
  20   2.0000      -0.512295       -13.9403 
  21   2.0000      -0.510971       -13.9042 
  22   2.0000      -0.509790       -13.8721 
  23   2.0000      -0.480812       -13.0836 
  24   2.0000      -0.436863       -11.8876 
  25   2.0000      -0.422542       -11.4980 
  26   2.0000      -0.409441       -11.1415 
  27   2.0000      -0.390541       -10.6272 
  28   2.0000      -0.386530       -10.5180 
  29   2.0000      -0.384618       -10.4660 
  30   2.0000      -0.380778       -10.3615 
  31   2.0000      -0.361238        -9.8298 
  32   2.0000      -0.347657        -9.4602 
  33   2.0000      -0.315352        -8.5812 
  34   2.0000      -0.308880        -8.4051 
  35   2.0000      -0.307383        -8.3643 
  36   2.0000      -0.245171        -6.6714 
  37   2.0000      -0.240245        -6.5374 
  38   2.0000      -0.217331        -5.9139 
  39   0.0000       0.002532         0.0689 
  40   0.0000       0.028882         0.7859 
  41   0.0000       0.031913         0.8684 
  42   0.0000       0.045036         1.2255 
  43   0.0000       0.048759         1.3268 
  44   0.0000       0.069571         1.8931 
  45   0.0000       0.075820         2.0632 
  46   0.0000       0.094873         2.5816 
  47   0.0000       0.105880         2.8811 
  48   0.0000       0.108825         2.9613 
  49   0.0000       0.114641         3.1196 
*Only the first 10 virtual orbitals were printed.

                    ********************************
                    * MULLIKEN POPULATION ANALYSIS *
                    ********************************

-----------------------
MULLIKEN ATOMIC CHARGES
-----------------------
   0 O :   -0.712838
   1 H :    0.357961
   2 H :    0.359037
   3 O :   -0.715824
   4 H :    0.358394
   5 H :    0.351361
   6 H :    0.366431
   7 O :   -0.720334
   8 H :    0.366882
   9 H :    0.140977
  10 C :   -0.094499
  11 H :    0.325637
  12 H :    0.156162
  13 N :   -0.271295
  14 H :    0.136201
  15 C :   -0.232755
  16 O :   -0.676873
  17 C :    0.236189
  18 H :    0.309345
  19 O :   -0.499790
  20 H :    0.332188
  21 H :    0.127445
Sum of atomic charges:   -0.0000000

--------------------------------
MULLIKEN REDUCED ORBITAL CHARGES
--------------------------------
  0 O s       :     3.818721  s :     3.818721
      pz      :     1.741128  p :     4.873733
      px      :     1.410198
      py      :     1.722407
      dz2     :     0.003009  d :     0.019163
      dxz     :     0.000621
      dyz     :     0.006389
      dx2y2   :     0.007069
      dxy     :     0.002074
      f0      :     0.000122  f :     0.001221
      f+1     :     0.000228
      f-1     :     0.000195
      f+2     :     0.000168
      f-2     :     0.000178
      f+3     :     0.000301
      f-3     :     0.000029

  1 H s       :     0.599050  s :     0.599050
      pz      :     0.016607  p :     0.042989
      px      :     0.010237
      py      :     0.016145

  2 H s       :     0.597637  s :     0.597637
      pz      :     0.012279  p :     0.043327
      px      :     0.019074
      py      :     0.011974

  3 O s       :     3.816682  s :     3.816682
      pz      :     1.526928  p :     4.878791
      px      :     1.740257
      py      :     1.611606
      dz2     :     0.007332  d :     0.019135
      dxz     :     0.003224
      dyz     :     0.000875
      dx2y2   :     0.001024
      dxy     :     0.006679
      f0      :     0.000162  f :     0.001216
      f+1     :     0.000167
      f-1     :     0.000321
      f+2     :     0.000044
      f-2     :     0.000104
      f+3     :     0.000303
      f-3     :     0.000115

  4 H s       :     0.598401  s :     0.598401
      pz      :     0.010347  p :     0.043205
      px      :     0.015165
      py      :     0.017693

  5 H s       :     0.605569  s :     0.605569
      pz      :     0.018737  p :     0.043070
      px      :     0.012381
      py      :     0.011952

  6 H s       :     0.590726  s :     0.590726
      pz      :     0.014207  p :     0.042843
      px      :     0.014959
      py      :     0.013677

  7 O s       :     3.822237  s :     3.822237
      pz      :     1.776852  p :     4.877555
      px      :     1.780363
      py      :     1.320340
      dz2     :     0.001486  d :     0.019335
      dxz     :     0.004585
      dyz     :     0.006452
      dx2y2   :     0.001372
      dxy     :     0.005439
      f0      :     0.000245  f :     0.001208
      f+1     :     0.000050
      f-1     :     0.000028
      f+2     :     0.000144
      f-2     :     0.000352
      f+3     :     0.000265
      f-3     :     0.000124

  8 H s       :     0.590122  s :     0.590122
      pz      :     0.013228  p :     0.042997
      px      :     0.013268
      py      :     0.016500

  9 H s       :     0.837703  s :     0.837703
      pz      :     0.011525  p :     0.021320
      px      :     0.003498
      py      :     0.006297

 10 C s       :     3.221148  s :     3.221148
      pz      :     1.047998  p :     2.763309
      px      :     0.749474
      py      :     0.965837
      dz2     :     0.009829  d :     0.101687
      dxz     :     0.019119
      dyz     :     0.025207
      dx2y2   :     0.020992
      dxy     :     0.026539
      f0      :     0.000742  f :     0.008356
      f+1     :     0.001174
      f-1     :     0.000791
      f+2     :     0.001661
      f-2     :     0.000432
      f+3     :     0.001947
      f-3     :     0.001609

 11 H s       :     0.642525  s :     0.642525
      pz      :     0.005882  p :     0.031838
      px      :     0.005753
      py      :     0.020203

 12 H s       :     0.823004  s :     0.823004
      pz      :     0.008038  p :     0.020834
      px      :     0.007418
      py      :     0.005378

 13 N s       :     3.448539  s :     3.448539
      pz      :     1.277503  p :     3.774339
      px      :     1.220114
      py      :     1.276722
      dz2     :     0.007025  d :     0.046120
      dxz     :     0.013930
      dyz     :     0.004169
      dx2y2   :     0.011344
      dxy     :     0.009653
      f0      :     0.000146  f :     0.002297
      f+1     :     0.000412
      f-1     :     0.000389
      f+2     :     0.000421
      f-2     :     0.000137
      f+3     :     0.000230
      f-3     :     0.000561

 14 H s       :     0.842274  s :     0.842274
      pz      :     0.004346  p :     0.021524
      px      :     0.013080
      py      :     0.004099

 15 C s       :     3.199608  s :     3.199608
      pz      :     0.996663  p :     2.954240
      px      :     1.041989
      py      :     0.915588
      dz2     :     0.011570  d :     0.073231
      dxz     :     0.006186
      dyz     :     0.026625
      dx2y2   :     0.015369
      dxy     :     0.013481
      f0      :     0.000709  f :     0.005675
      f+1     :     0.000675
      f-1     :     0.000958
      f+2     :     0.001188
      f-2     :     0.000386
      f+3     :     0.001061
      f-3     :     0.000697

 16 O s       :     3.841046  s :     3.841046
      pz      :     1.578028  p :     4.811729
      px      :     1.528580
      py      :     1.705121
      dz2     :     0.004146  d :     0.022754
      dxz     :     0.005354
      dyz     :     0.005085
      dx2y2   :     0.003717
      dxy     :     0.004452
      f0      :     0.000132  f :     0.001344
      f+1     :     0.000168
      f-1     :     0.000198
      f+2     :     0.000191
      f-2     :     0.000343
      f+3     :     0.000142
      f-3     :     0.000169

 17 C s       :     3.055348  s :     3.055348
      pz      :     0.873506  p :     2.460063
      px      :     0.779229
      py      :     0.807328
      dz2     :     0.038628  d :     0.224247
      dxz     :     0.018325
      dyz     :     0.060548
      dx2y2   :     0.050413
      dxy     :     0.056332
      f0      :     0.003045  f :     0.024154
      f+1     :     0.002261
      f-1     :     0.003330
      f+2     :     0.005544
      f-2     :     0.001913
      f+3     :     0.005218
      f-3     :     0.002843

 18 H s       :     0.657335  s :     0.657335
      pz      :     0.013831  p :     0.033320
      px      :     0.012291
      py      :     0.007197

 19 O s       :     3.755392  s :     3.755392
      pz      :     1.690343  p :     4.715035
      px      :     1.637312
      py      :     1.387380
      dz2     :     0.002951  d :     0.027568
      dxz     :     0.000610
      dyz     :     0.008123
      dx2y2   :     0.007346
      dxy     :     0.008539
      f0      :     0.000213  f :     0.001795
      f+1     :     0.000035
      f-1     :     0.000276
      f+2     :     0.000324
      f-2     :     0.000074
      f+3     :     0.000509
      f-3     :     0.000364

 20 H s       :     0.636197  s :     0.636197
      pz      :     0.016882  p :     0.031615
      px      :     0.006200
      py      :     0.008533

 21 H s       :     0.851417  s :     0.851417
      pz      :     0.010761  p :     0.021137
      px      :     0.004361
      py      :     0.006016



                     *******************************
                     * LOEWDIN POPULATION ANALYSIS *
                     *******************************

----------------------
LOEWDIN ATOMIC CHARGES
----------------------
   0 O :   -0.360416
   1 H :    0.179131
   2 H :    0.184956
   3 O :   -0.370485
   4 H :    0.182170
   5 H :    0.177338
   6 H :    0.190184
   7 O :   -0.366664
   8 H :    0.187914
   9 H :    0.146830
  10 C :   -0.268630
  11 H :    0.229388
  12 H :    0.150027
  13 N :    0.171916
  14 H :    0.164631
  15 C :   -0.248262
  16 O :   -0.259973
  17 C :   -0.636612
  18 H :    0.216612
  19 O :   -0.060785
  20 H :    0.235128
  21 H :    0.155604

-------------------------------
LOEWDIN REDUCED ORBITAL CHARGES
-------------------------------
  0 O s       :     3.488227  s :     3.488227
      pz      :     1.711316  p :     4.842308
      px      :     1.420539
      py      :     1.710452
      dz2     :     0.004050  d :     0.027774
      dxz     :     0.000922
      dyz     :     0.008700
      dx2y2   :     0.011512
      dxy     :     0.002589
      f0      :     0.000123  f :     0.002108
      f+1     :     0.000399
      f-1     :     0.000292
      f+2     :     0.000264
      f-2     :     0.000301
      f+3     :     0.000617
      f-3     :     0.000113

  1 H s       :     0.671404  s :     0.671404
      pz      :     0.059106  p :     0.149465
      px      :     0.028528
      py      :     0.061831

  2 H s       :     0.665819  s :     0.665819
      pz      :     0.034677  p :     0.149226
      px      :     0.079595
      py      :     0.034954

  3 O s       :     3.488256  s :     3.488256
      pz      :     1.524929  p :     4.852413
      px      :     1.734019
      py      :     1.593464
      dz2     :     0.011561  d :     0.027711
      dxz     :     0.003507
      dyz     :     0.002214
      dx2y2   :     0.000537
      dxy     :     0.009892
      f0      :     0.000328  f :     0.002106
      f+1     :     0.000435
      f-1     :     0.000517
      f+2     :     0.000018
      f-2     :     0.000155
      f+3     :     0.000508
      f-3     :     0.000143

  4 H s       :     0.668525  s :     0.668525
      pz      :     0.028945  p :     0.149305
      px      :     0.057129
      py      :     0.063230

  5 H s       :     0.673254  s :     0.673254
      pz      :     0.075409  p :     0.149408
      px      :     0.038384
      py      :     0.035615

  6 H s       :     0.661088  s :     0.661088
      pz      :     0.049667  p :     0.148728
      px      :     0.052294
      py      :     0.046767

  7 O s       :     3.489360  s :     3.489360
      pz      :     1.761376  p :     4.847399
      px      :     1.762376
      py      :     1.323648
      dz2     :     0.001012  d :     0.027808
      dxz     :     0.004364
      dyz     :     0.010442
      dx2y2   :     0.003054
      dxy     :     0.008937
      f0      :     0.000362  f :     0.002096
      f+1     :     0.000010
      f-1     :     0.000025
      f+2     :     0.000268
      f-2     :     0.000824
      f+3     :     0.000442
      f-3     :     0.000164

  8 H s       :     0.662857  s :     0.662857
      pz      :     0.044348  p :     0.149229
      px      :     0.041027
      py      :     0.063853

  9 H s       :     0.794630  s :     0.794630
      pz      :     0.032007  p :     0.058540
      px      :     0.009721
      py      :     0.016812

 10 C s       :     2.803601  s :     2.803601
      pz      :     1.053488  p :     2.981546
      px      :     0.876115
      py      :     1.051943
      dz2     :     0.052108  d :     0.432355
      dxz     :     0.087317
      dyz     :     0.083727
      dx2y2   :     0.107749
      dxy     :     0.101455
      f0      :     0.004707  f :     0.051127
      f+1     :     0.006986
      f-1     :     0.004487
      f+2     :     0.008017
      f-2     :     0.005247
      f+3     :     0.011674
      f-3     :     0.010009

 11 H s       :     0.675881  s :     0.675881
      pz      :     0.016707  p :     0.094731
      px      :     0.016461
      py      :     0.061563

 12 H s       :     0.792607  s :     0.792607
      pz      :     0.023607  p :     0.057365
      px      :     0.019190
      py      :     0.014568

 13 N s       :     2.984602  s :     2.984602
      pz      :     1.223056  p :     3.674574
      px      :     1.236100
      py      :     1.215418
      dz2     :     0.024985  d :     0.158797
      dxz     :     0.046657
      dyz     :     0.014707
      dx2y2   :     0.042464
      dxy     :     0.029984
      f0      :     0.000788  f :     0.010111
      f+1     :     0.001758
      f-1     :     0.001321
      f+2     :     0.001098
      f-2     :     0.001383
      f+3     :     0.001287
      f-3     :     0.002475

 14 H s       :     0.778545  s :     0.778545
      pz      :     0.012890  p :     0.056824
      px      :     0.032519
      py      :     0.011414

 15 C s       :     2.795753  s :     2.795753
      pz      :     1.030186  p :     3.062410
      px      :     1.031133
      py      :     1.001091
      dz2     :     0.069298  d :     0.353869
      dxz     :     0.037848
      dyz     :     0.101267
      dx2y2   :     0.094655
      dxy     :     0.050801
      f0      :     0.004385  f :     0.036230
      f+1     :     0.004523
      f-1     :     0.005981
      f+2     :     0.005867
      f-2     :     0.005029
      f+3     :     0.006279
      f-3     :     0.004167

 16 O s       :     3.497885  s :     3.497885
      pz      :     1.544867  p :     4.709772
      px      :     1.507274
      py      :     1.657631
      dz2     :     0.007263  d :     0.048534
      dxz     :     0.012852
      dyz     :     0.010714
      dx2y2   :     0.007159
      dxy     :     0.010545
      f0      :     0.000354  f :     0.003783
      f+1     :     0.000540
      f-1     :     0.000442
      f+2     :     0.000528
      f-2     :     0.001077
      f+3     :     0.000431
      f-3     :     0.000412

 17 C s       :     2.786018  s :     2.786018
      pz      :     0.902874  p :     2.725191
      px      :     0.835429
      py      :     0.986888
      dz2     :     0.156836  d :     0.970549
      dxz     :     0.103120
      dyz     :     0.266846
      dx2y2   :     0.208140
      dxy     :     0.235608
      f0      :     0.019999  f :     0.154854
      f+1     :     0.014425
      f-1     :     0.022098
      f+2     :     0.033249
      f-2     :     0.013193
      f+3     :     0.034426
      f-3     :     0.017463

 18 H s       :     0.683246  s :     0.683246
      pz      :     0.042817  p :     0.100142
      px      :     0.036149
      py      :     0.021177

 19 O s       :     3.405319  s :     3.405319
      pz      :     1.562605  p :     4.583862
      px      :     1.514048
      py      :     1.507210
      dz2     :     0.007812  d :     0.065541
      dxz     :     0.000787
      dyz     :     0.018763
      dx2y2   :     0.021602
      dxy     :     0.016577
      f0      :     0.000655  f :     0.006062
      f+1     :     0.000101
      f-1     :     0.001056
      f+2     :     0.001101
      f-2     :     0.000139
      f+3     :     0.001454
      f-3     :     0.001556

 20 H s       :     0.670635  s :     0.670635
      pz      :     0.051006  p :     0.094237
      px      :     0.017348
      py      :     0.025884

 21 H s       :     0.787121  s :     0.787121
      pz      :     0.027708  p :     0.057275
      px      :     0.013435
      py      :     0.016132



                      *****************************
                      * MAYER POPULATION ANALYSIS *
                      *****************************

  NA   - Mulliken gross atomic population
  ZA   - Total nuclear charge
  QA   - Mulliken gross atomic charge
  VA   - Mayer's total valence
  BVA  - Mayer's bonded valence
  FA   - Mayer's free valence

  ATOM       NA         ZA         QA         VA         BVA        FA
  0 O      8.7128     8.0000    -0.7128     1.7806     1.7806    -0.0000
  1 H      0.6420     1.0000     0.3580     0.8968     0.8968    -0.0000
  2 H      0.6410     1.0000     0.3590     0.8861     0.8861    -0.0000
  3 O      8.7158     8.0000    -0.7158     1.7665     1.7665    -0.0000
  4 H      0.6416     1.0000     0.3584     0.8915     0.8915    -0.0000
  5 H      0.6486     1.0000     0.3514     0.9059     0.9059    -0.0000
  6 H      0.6336     1.0000     0.3664     0.8788     0.8788    -0.0000
  7 O      8.7203     8.0000    -0.7203     1.7733     1.7733     0.0000
  8 H      0.6331     1.0000     0.3669     0.8781     0.8781     0.0000
  9 H      0.8590     1.0000     0.1410     0.9984     0.9984     0.0000
 10 C      6.0945     6.0000    -0.0945     3.7711     3.7711    -0.0000
 11 H      0.6744     1.0000     0.3256     0.9056     0.9056     0.0000
 12 H      0.8438     1.0000     0.1562     0.9603     0.9603     0.0000
 13 N      7.2713     7.0000    -0.2713     3.5027     3.5027     0.0000
 14 H      0.8638     1.0000     0.1362     0.9766     0.9766    -0.0000
 15 C      6.2328     6.0000    -0.2328     3.6951     3.6951    -0.0000
 16 O      8.6769     8.0000    -0.6769     1.7353     1.7353    -0.0000
[...]
   Potential                ....       0.423 sec  (  6.5%)

Maximum memory used throughout the entire SCFGRAD-calculation: 46.0 MB
------------------------------------------------------------------------------
                         ORCA GEOMETRY RELAXATION STEP
------------------------------------------------------------------------------

Reading the OPT-File                    .... done
Getting information on internals        .... done
Copying old internal coords+grads       .... done
Making the new internal coordinates     .... (2022 redundants) done
Validating the new internal coordinates .... (2022 redundants) done
Calculating the B-matrix                .... done
Calculating the G,G- and P matrices     .... done
Transforming gradient to internals      .... done
Projecting the internal gradient        .... done
Number of atoms                         ....  22
Number of internal coordinates          ....  95
Current Energy                          ....  -553.090556574 Eh
Current gradient norm                   ....     0.006694164 Eh/bohr
Maximum allowed component of the step   ....  0.300
Current trust radius                    ....  0.200
Updating the Hessian (BFGS)             .... done
Forming the augmented Hessian           .... done
Diagonalizing the augmented Hessian     .... done
Last element of RFO vector              ....  0.950377215
Lowest eigenvalues of augmented Hessian:
 -0.000250322  0.001323669  0.004416847  0.004855784  0.007056941
Length of the computed step             ....  0.327343602
Warning: the length of the step is outside the trust region - taking restricted step instead
The input lambda is                     ....     0.000179
   iter:   5  x=   -0.001230  g=   31.284755 f(x)=     0.000460
The output lambda is                    ....    -0.001230 (8 iterations)
The final length of the internal step   ....  0.200000000
Converting the step to Cartesian space:
 Initial RMS(Int)=    0.0205195670
Transforming coordinates:
 Iter   0:  RMS(Cart)=    0.0378488445 RMS(Int)=    0.0209692715
 Iter   5:  RMS(Cart)=    0.0000465852 RMS(Int)=    0.0000288590
 Iter  10:  RMS(Cart)=    0.0000014295 RMS(Int)=    0.0000008853
done
Storing new coordinates                 .... done
The predicted energy change is          ....    -0.000117862
Previously predicted energy change      ....    -0.000143627
Actually observed energy change         ....    -0.000165299
Ratio of predicted to observed change   ....     1.150891454
New trust radius                        ....     0.300000000

                                .--------------------.
          ----------------------|Geometry convergence|-------------------------
          Item                value                   Tolerance       Converged
          ---------------------------------------------------------------------
          Energy change      -0.0001652991            0.0000010000      NO
          RMS gradient        0.0004445871            0.0000300000      NO
          MAX gradient        0.0015140871            0.0001000000      NO
          RMS step            0.0205195670            0.0006000000      NO
          MAX step            0.0773502811            0.0010000000      NO
          ........................................................
          Max(Bonds)      0.0119      Max(Angles)    1.31
          Max(Dihed)        4.43      Max(Improp)    0.00
          ---------------------------------------------------------------------

The optimization has not yet converged - more geometry cycles are needed


    ---------------------------------------------------------------------------
                         Redundant Internal Coordinates
                            (Angstroem and degrees)

        Definition                    Value    dE/dq     Step     New-Value
    ----------------------------------------------------------------------------
     1. B(H   1,O   0)                0.9814 -0.000604  0.0007    0.9822   
     2. B(H   2,O   0)                0.9654 -0.000104 -0.0010    0.9644   
     3. B(H   4,O   3)                0.9629 -0.001079  0.0005    0.9634   
     4. B(H   5,O   3)                0.9861 -0.000170 -0.0000    0.9861   
     5. B(O   7,H   6)                0.9861  0.000915  0.0002    0.9863   
     6. B(H   8,O   7)                0.9637 -0.001328  0.0005    0.9641   
     7. B(C  10,H   9)                1.0881 -0.000078  0.0002    1.0883   
     8. B(H  11,H   6)                2.1485  0.000136 -0.0069    2.1416   
     9. B(H  11,O   7)                1.8367  0.000158 -0.0119    1.8248   
    10. B(H  12,C  10)                1.0875 -0.000137  0.0002    1.0877   
    11. B(N  13,H  11)                1.0386  0.000607  0.0006    1.0392   
    12. B(N  13,C  10)                1.4982  0.000218  0.0001    1.4983   
    13. B(C  15,H  14)                1.0907  0.000384 -0.0003    1.0903   
    14. B(C  15,C  10)                1.5175 -0.000295  0.0010    1.5185   
    15. B(O  16,H   5)                1.7623 -0.000087  0.0012    1.7635   
    16. B(O  16,H   1)                1.8195 -0.000140 -0.0075    1.8120   
    17. B(C  17,O  16)                1.2816 -0.001514  0.0010    1.2825   
    18. B(C  17,C  15)                1.5365 -0.000370  0.0004    1.5369   
    19. B(H  18,N  13)                1.0313  0.000256  0.0003    1.0316   
    20. B(H  18,O  16)                1.9379  0.000424 -0.0075    1.9305   
    21. B(O  19,C  17)                1.2394  0.001112 -0.0003    1.2391   
    22. B(H  20,N  13)                1.0192  0.000519 -0.0004    1.0189   
    23. B(H  21,C  15)                1.0954  0.000223 -0.0003    1.0951   
    24. A(H   1,O   0,H   2)          105.10 -0.000229   -0.03    105.06   
    25. L(O   0,H   1,O  16,H   2, 1) 175.33 -0.000471    0.32    175.65   
    26. L(O   0,H   1,O  16,H   2, 2) 171.57 -0.000172    0.11    171.68   
    27. A(H   4,O   3,H   5)          104.37 -0.000111   -0.09    104.28   
    28. L(O   3,H   5,O  16,H   4, 1) 180.57 -0.001124    0.08    180.65   
    29. L(O   3,H   5,O  16,H   4, 2) 185.71  0.000174    1.04    186.74   
    30. A(O   7,H   6,H  11)           58.48  0.000057   -0.37     58.11   
    31. A(H   6,O   7,H   8)          106.20  0.000233   -0.09    106.12   
    32. A(H   8,O   7,H  11)          113.79  0.000040   -0.05    113.73   
    33. A(H   6,O   7,H  11)           94.28 -0.000304    0.29     94.57   
    34. A(H  12,C  10,N  13)          107.78  0.000170    0.02    107.81   
    35. A(H  12,C  10,C  15)          111.73 -0.000340    0.01    111.74   
    36. A(H   9,C  10,N  13)          106.43 -0.000617    0.06    106.48   
    37. A(N  13,C  10,C  15)          110.99  0.000507   -0.02    110.97   
    38. A(H   9,C  10,C  15)          111.18  0.000261   -0.11    111.06   
    39. A(H   9,C  10,H  12)          108.52 -0.000002    0.05    108.57   
    40. A(H   6,H  11,O   7)           27.24  0.000247    0.08     27.31   
    41. A(H   6,H  11,N  13)          129.09 -0.000014    0.79    129.88   
    42. A(O   7,H  11,N  13)          153.42  0.000203    1.31    154.73   
    43. A(C  10,N  13,H  18)          106.90  0.000489   -0.26    106.64   
    44. A(C  10,N  13,H  11)          110.53 -0.000861    0.27    110.80   
    45. A(H  18,N  13,H  20)          109.09 -0.000533    0.21    109.30   
    46. A(H  11,N  13,H  20)          110.16 -0.000105   -0.01    110.15   
    47. A(C  10,N  13,H  20)          112.67  0.000904   -0.26    112.41   
    48. A(H  11,N  13,H  18)          107.29  0.000087    0.05    107.35   
    49. A(H  14,C  15,C  17)          108.51  0.000249   -0.01    108.50   
    50. A(C  17,C  15,H  21)          107.10 -0.000255    0.12    107.23   
    51. A(C  10,C  15,C  17)          115.33  0.000002   -0.06    115.27   
    52. A(H  14,C  15,H  21)          106.47 -0.000024    0.01    106.48   
    53. A(C  10,C  15,H  21)          110.08  0.000237   -0.05    110.03   
    54. A(C  10,C  15,H  14)          108.97 -0.000209   -0.00    108.97   
    55. A(H   1,O  16,H   5)           91.69  0.000286   -1.28     90.41   
    56. A(H   5,O  16,C  17)          113.15  0.000536   -0.05    113.10   
    57. A(H   1,O  16,C  17)          131.29 -0.000458    0.75    132.03   
    58. A(C  15,C  17,O  16)          117.28  0.000163   -0.13    117.15   
    59. A(O  16,C  17,O  19)          124.93 -0.000079    0.09    125.02   
    60. A(C  15,C  17,O  19)          117.75 -0.000091    0.04    117.78   
    61. D(H   8,O   7,H   6,H  11)    116.29 -0.000014    0.07    116.37   
    62. D(H   6,H  11,O   7,H   8)   -109.80 -0.000120   -0.12   -109.92   
    63. D(N  13,H  11,H   6,O   7)    159.96  0.000063    1.86    161.82   
    64. D(N  13,H  11,O   7,H   6)    -36.48 -0.000180    4.16    -32.32   
    65. D(N  13,H  11,O   7,H   8)   -146.28 -0.000300    4.04   -142.24   
    66. D(H  11,N  13,C  10,H  12)    -79.36  0.000224   -0.44    -79.80   
    67. D(H  11,N  13,C  10,H   9)     36.89 -0.000007   -0.34     36.55   
    68. D(C  10,N  13,H  11,O   7)    -49.53  0.000276   -4.28    -53.81   
    69. D(H  18,N  13,C  10,H  12)    164.18  0.000294   -0.49    163.69   
    70. D(C  10,N  13,H  11,H   6)    -70.05  0.000009   -1.64    -71.69   
    71. D(H  18,N  13,C  10,C  15)     41.53  0.000286   -0.50     41.03   
    72. D(H  11,N  13,C  10,C  15)    157.99  0.000216   -0.45    157.54   
    73. D(H  18,N  13,H  11,O   7)     66.68  0.000452   -4.43     62.25   
    74. D(H  18,N  13,H  11,H   6)     46.16  0.000185   -1.79     44.37   
    75. D(H  20,N  13,H  11,O   7)   -174.69 -0.000196   -4.14   -178.83   
    76. D(H  18,N  13,C  10,H   9)    -79.57  0.000063   -0.39    -79.96   
    77. D(C  17,C  15,C  10,N  13)    -61.31  0.000517    0.01    -61.30   
    78. D(C  17,C  15,C  10,H  12)    178.35  0.000184   -0.01    178.34   
    79. D(C  17,C  15,C  10,H   9)     56.95  0.000241   -0.00     56.94   
    80. D(H  14,C  15,C  10,N  13)    176.40  0.000351    0.07    176.47   
    81. D(H  14,C  15,C  10,H  12)     56.07  0.000018    0.04     56.11   
    82. D(H  14,C  15,C  10,H   9)    -65.34  0.000075    0.05    -65.29   
    83. D(H   1,O  16,O   3,H   4)   -129.08  0.000002    1.39   -127.69   
    84. D(C  17,O  16,O   3,H   4)      7.33 -0.000150    0.67      8.00   
    85. D(H   5,O  16,O   0,H   2)    -40.31  0.000121    2.02    -38.29   
    86. D(C  17,O  16,O   0,H   2)   -165.03 -0.000705    3.38   -161.64   
    87. D(O  19,C  17,C  15,C  10)   -162.13  0.000336    0.03   -162.10   
    88. D(O  16,C  17,C  15,H  21)   -102.80  0.000401    0.01   -102.79   
    89. D(O  16,C  17,C  15,H  14)    142.63  0.000435   -0.06    142.57   
    90. D(O  19,C  17,C  15,H  14)    -39.60  0.000256   -0.02    -39.62   
    91. D(O  16,C  17,C  15,C  10)     20.10  0.000515   -0.01     20.09   
    92. D(O  19,C  17,O  16,H   5)     -0.97  0.000229    1.18      0.21   
    93. D(O  19,C  17,O  16,H   1)    113.75  0.000908   -0.82    112.93   
    94. D(C  15,C  17,O  16,H   5)    176.63  0.000036    1.22    177.85   
    95. D(C  15,C  17,O  16,H   1)    -68.65  0.000715   -0.78    -69.44   
    ----------------------------------------------------------------------------

Geometry step timings:
Preparation and reading OPT file:      0.001 s (10.895 %)
Internal coordinates            :      0.000 s ( 0.491 %)
B/P matrices and projection     :      0.003 s (42.748 %)
Hessian update/contruction      :      0.000 s ( 5.219 %)
Making the step                 :      0.001 s (21.281 %)
Converting the step to Cartesian:      0.000 s ( 2.287 %)
Storing new data                :      0.000 s ( 0.373 %)
Checking convergence            :      0.000 s ( 0.288 %)
Final printing                  :      0.001 s (16.367 %)
Total time                      :      0.006 s
--------------------------------------------------------------------------
WARNING: There was an error initializing an OpenFabrics device.

  Local host:   ga00
  Local device: mlx5_0
--------------------------------------------------------------------------
[ga00:1160358] 9 more processes have sent help message help-mpi-btl-openib.txt / error in device init
[ga00:1160358] Set MCA parameter "orte_base_help_aggregate" to 0 to see all help / error messages

Time for energy+gradient        :     21.545 s
Time for complete geometry iter :     21.987 s

         *************************************************************
         *                GEOMETRY OPTIMIZATION CYCLE  57            *
         *************************************************************
---------------------------------
CARTESIAN COORDINATES (ANGSTROEM)
---------------------------------
  O      1.351674   -0.874059   -0.259461
  H      0.879649   -0.038264   -0.467549
  H      2.285598   -0.634792   -0.233935
  O      1.909996    2.874237    0.585255
  H      1.360881    3.461579    1.115971
  H      1.272715    2.424868   -0.018333
  H      1.029055   -2.026691   -1.618569
  O      0.675032   -2.507314   -2.401134
  H      1.441980   -2.849183   -2.874940
  H     -1.541434   -0.771569   -1.468072
  C     -1.755109   -0.114807   -2.309119
  H     -0.059628   -1.022366   -3.166500
  H     -2.553073   -0.557999   -2.900712
  N     -0.517964   -0.089792   -3.154021
  H     -3.052671    1.234508   -1.276312
  C     -2.116561    1.281231   -1.833397
  O      0.139688    1.520002   -1.022062
  C     -1.059800    1.968923   -0.954529
  H      0.135589    0.567481   -2.701159
  O     -1.419420    2.936538   -0.269139
  H     -0.702250    0.223461   -4.105884
  H     -2.298810    1.934908   -2.692848

----------------------------
CARTESIAN COORDINATES (A.U.)
----------------------------
  NO LB      ZA    FRAG     MASS         X           Y           Z
   0 O     8.0000    0    15.999    2.554294   -1.651733   -0.490309
   1 H     1.0000    0     1.008    1.662295   -0.072309   -0.883539
   2 H     1.0000    0     1.008    4.319155   -1.199582   -0.442072
   3 O     8.0000    0    15.999    3.609369    5.431521    1.105972
   4 H     1.0000    0     1.008    2.571693    6.541436    2.108880
   5 H     1.0000    0     1.008    2.405083    4.582337   -0.034644
   6 H     1.0000    0     1.008    1.944631   -3.829890   -3.058653
   7 O     8.0000    0    15.999    1.275625   -4.738137   -4.537486
   8 H     1.0000    0     1.008    2.724946   -5.384176   -5.432849
   9 H     1.0000    0     1.008   -2.912888   -1.458054   -2.774254
  10 C     6.0000    0    12.011   -3.316675   -0.216953   -4.363602
  11 H     1.0000    0     1.008   -0.112681   -1.931991   -5.983817
  12 H     1.0000    0     1.008   -4.824609   -1.054466   -5.481551
  13 N     7.0000    0    14.007   -0.978810   -0.169682   -5.960237
  14 H     1.0000    0     1.008   -5.768712    2.332883   -2.411879
  15 C     6.0000    0    12.011   -3.999721    2.421176   -3.464618
  16 O     8.0000    0    15.999    0.263972    2.872388   -1.931418
  17 C     6.0000    0    12.011   -2.002732    3.720725   -1.803799
  18 H     1.0000    0     1.008    0.256227    1.072384   -5.104450
  19 O     8.0000    0    15.999   -2.682315    5.549252   -0.508600
  20 H     1.0000    0     1.008   -1.327059    0.422280   -7.758997
  21 H     1.0000    0     1.008   -4.344122    3.656446   -5.088744

--------------------------------
INTERNAL COORDINATES (ANGSTROEM)
--------------------------------
 O      0   0   0     0.000000000000     0.00000000     0.00000000
 H      1   0   0     0.982172287977     0.00000000     0.00000000
 H      1   2   0     0.964424575113   105.06309698     0.00000000
 O      2   1   3     3.263843403643   122.63637535   326.20586646
 H      4   2   1     0.963409140432   122.80517934   237.16229587
 H      4   2   1     0.986091956815    36.08815827   169.87572549
 H      1   2   3     1.811027044258   107.27679164   242.38173641
 O      7   1   2     0.984245254372   166.30080757   341.38972395
 H      8   7   1     0.964144742226   106.12627974   143.51247627
 H      2   1   3     2.720372077818   106.03678646   159.04010489
 C     10   2   1     1.088280112107   107.23551435   221.28287932
 H      8   7   9     1.824988319212    94.64085270   243.64175415
 H     11  10   2     1.087726249877   108.57047407   163.57089279
 N     12   8   7     1.039192663606   154.51603742   327.61807667
 H     11  10   2     2.137992012381    97.27889625   260.59582255
 C     15  11  10     1.090334033929    42.19743350   121.28696301
 O      6   4   2     1.763521013127   175.88644113    25.13525825
 C     17   6   4     1.282521478922   113.03624942   109.81820316
 H     14  12   8     1.031612977352   107.31458478    62.54620713
 O     18  17   6     1.239097993515   125.02279903     0.17417949
 H     14  12   8     1.018887648268   110.14867471   181.31334508
 H     16  15  11     1.095063285239   106.48067134   118.64547016

---------------------------
INTERNAL COORDINATES (A.U.)
---------------------------
 O      0   0   0     0.000000000000     0.00000000     0.00000000
 H      1   0   0     1.856036640604     0.00000000     0.00000000
 H      1   2   0     1.822498323786   105.06309698     0.00000000
 O      2   1   3     6.167770176890   122.63637535   326.20586646
 H      4   2   1     1.820579430332   122.80517934   237.16229587
 H      4   2   1     1.863443741243    36.08815827   169.87572549
 H      1   2   3     3.422345134772   107.27679164   242.38173641
 O      7   1   2     1.859953979375   166.30080757   341.38972395
 H      8   7   1     1.821969516267   106.12627974   143.51247627
 H      2   1   3     5.140758209443   106.03678646   159.04010489
 C     10   2   1     2.056551368875   107.23551435   221.28287932
 H      8   7   9     3.448728120916    94.64085270   243.64175415
 H     11  10   2     2.055504720944   108.57047407   163.57089279
 N     12   8   7     1.963789534596   154.51603742   327.61807667
 H     11  10   2     4.040219379911    97.27889625   260.59582255
 C     15  11  10     2.060432718619    42.19743350   121.28696301
 O      6   4   2     3.332571746226   175.88644113    25.13525825
 C     17   6   4     2.423614356034   113.03624942   109.81820316
 H     14  12   8     1.949466003395   107.31458478    62.54620713
 O     18  17   6     2.341555860835   125.02279903     0.17417949
 H     14  12   8     1.925418616461   110.14867471   181.31334508
 H     16  15  11     2.069369708414   106.48067134   118.64547016

--------------------------------------------------------------------------
WARNING: There was an error initializing an OpenFabrics device.

  Local host:   ga00
  Local device: mlx5_0
--------------------------------------------------------------------------
[ga00:1160402] *** Process received signal ***
[ga00:1160402] Signal: Segmentation fault (11)
[ga00:1160402] Signal code: Address not mapped (1)
[ga00:1160402] Failing at address: (nil)
[ga00:1160402] [ 0] /usr/lib64/libpthread.so.0(+0x12cf0)[0x14e9c5184cf0]
[ga00:1160402] [ 1] /usr/lib64/libc.so.6(+0xc84d2)[0x14e9c4e744d2]
[ga00:1160402] [ 2] /home/yongsang/.openmpi/lib/libopen-rte.so.40(+0x2b27d)[0x14e9c626f27d]
[ga00:1160402] [ 3] /home/yongsang/.openmpi/lib/libopen-rte.so.40(orte_show_help_recv+0x147)[0x14e9c626f6f7]
[ga00:1160402] [ 4] /home/yongsang/.openmpi/lib/libopen-rte.so.40(orte_rml_base_process_msg+0x39b)[0x14e9c62cb21b]
[ga00:1160402] [ 5] /home/yongsang/.openmpi/lib/libopen-pal.so.40(opal_libevent2022_event_base_loop+0x769)[0x14e9c5fb95b9]
[ga00:1160402] [ 6] mpirun[0x400f39]
[ga00:1160402] [ 7] /usr/lib64/libc.so.6(__libc_start_main+0xe5)[0x14e9c4de6d85]
[ga00:1160402] [ 8] mpirun[0x400cde]
[ga00:1160402] *** End of error message ***

ORCA finished by error termination in Startup
Calling Command: mpirun -np 10  /home/yongsang/orca_6_0_1_linux_x86-64_shared_openmpi416/orca_startup_mpi 01_Alanine_zwitterion.int.tmp 01_Alanine_zwitterion 
[file orca_tools/qcmsg.cpp, line 394]: 
  .... aborting the run

[file orca_tools/qcmsg.cpp, line 394]: 
  .... aborting the run

