37
 energy: -59.735037022590 gnorm: 0.188853936000 xtb: 6.7.1 (edcfbbe)
N            0.00260500000000        0.26833900000000        2.34949800000000
C            0.00561000000000       -0.53426800000000        1.12782400000000
C           -0.01360500000000        0.36044200000000       -0.11757000000000
C           -0.00658000000000       -0.48411400000000       -1.39958300000000
C            0.00530900000000        0.34606300000000       -2.65559300000000
O            0.01598000000000        1.56658800000000       -2.61114500000000
O            0.01013600000000       -0.27058000000000       -3.85192000000000
H            0.84383000000000        0.88923800000000        2.37341700000000
H           -0.86762500000000        0.84621600000000        2.39703300000000
H           -0.88589600000000       -1.19861800000000        1.12403900000000
H            0.91775600000000       -1.17084600000000        1.11100500000000
H            0.88289000000000        1.01613200000000       -0.10393900000000
H           -0.92488100000000        0.99783100000000       -0.09978000000000
H           -0.91002800000000       -1.12912700000000       -1.41351300000000
H            0.89428700000000       -1.13411000000000       -1.40682800000000
H            0.03021100000000       -0.36918600000000        3.17705500000000
O           -0.25702700000000        4.12678600000000        1.81018400000000
H           -0.83521200000000        4.37449900000000        2.57500600000000
H            0.01641000000000        3.19371700000000        1.99787300000000
O           -0.72192000000000       -4.26851900000000        1.59915800000000
H           -0.33711700000000       -3.53925500000000        2.14752800000000
H           -1.16492100000000       -3.80444500000000        0.84483800000000
O            1.24842100000000       -3.61568100000000       -0.58462900000000
H            0.80576800000000       -4.26351100000000        0.01951100000000
H            2.19444500000000       -3.60997400000000       -0.29202200000000
O            1.96402600000000       -3.11729000000000        4.87522500000000
H            1.62813400000000       -3.62641600000000        5.65534000000000
H            2.29616600000000       -3.81048500000000        4.25090400000000
O            0.02522100000000       -3.96939700000000       -2.37204400000000
H           -0.74243900000000       -4.47328200000000       -2.00135800000000
H            0.74683200000000       -4.64242200000000       -2.45528600000000
O            2.35848600000000       -3.54802300000000       -3.45513500000000
H            1.89282500000000       -2.67412700000000       -3.44632100000000
H            1.99674000000000       -4.01389400000000       -4.25057000000000
O           -1.06786100000000       -3.51044500000000       -4.19335900000000
H           -1.88464000000000       -2.95874500000000       -4.28880400000000
H           -0.74693400000000       -3.64112600000000       -5.12101200000000
37
 energy: -59.767887759291 gnorm: 0.091150442754 xtb: 6.7.1 (edcfbbe)
N            0.00045824312613        0.26346011319937        2.35693514446401
C            0.00430460980625       -0.54236632238966        1.12399525033236
C           -0.01406239919030        0.35477612980040       -0.11388400968284
C           -0.00685777373374       -0.48378432793420       -1.39464316236245
C            0.00902235120934        0.35366474080307       -2.66367488226943
O            0.01615323178494        1.59170903520479       -2.60447524573410
O            0.01566948528266       -0.27126866839307       -3.79742294866029
H            0.82977083637591        0.87829206374286        2.37779501994628
H           -0.85594942934083        0.83940158816096        2.39970602570170
H           -0.87674575644500       -1.19386404146260        1.11318571424038
H            0.90172960481627       -1.17138738100398        1.09927035003176
H            0.86444806864163        1.01252042197196       -0.12093756153493
H           -0.90694102489558        0.99424107364518       -0.11580150841199
H           -0.89047469709253       -1.13227267783949       -1.43169192832180
H            0.87057716723512       -1.14222407784370       -1.41711907754453
H            0.02862540727719       -0.35554712217029        3.18273666537899
O           -0.26885584749672        4.12245944116978        1.81564584345397
H           -0.83126020935347        4.37351364205032        2.56830436699363
H            0.01936108911800        3.21370141280990        2.00136170716268
O           -0.71182866831477       -4.26186819721246        1.58665106118436
H           -0.34946118866370       -3.55020777728382        2.14173804578024
H           -1.15993447132284       -3.80760001947902        0.85402333767940
O            1.29993828906834       -3.56280926227567       -0.46250784269957
H            0.84803113303098       -4.25856900292933        0.05897756325681
H            2.24305123317666       -3.63155405529065       -0.23719983994250
O            1.94604779616674       -3.12957273656181        4.86447734724823
H            1.63626958482642       -3.61802479000945        5.64507509347505
H            2.30571672843163       -3.80703783157369        4.26824436892960
O           -0.00968863534046       -4.01133525035219       -2.35330753412056
H           -0.75363265584048       -4.51769811275870       -1.99934642298254
H            0.72389548965721       -4.64294315038175       -2.44899115293805
O            2.41582332177540       -3.52388348727857       -3.50326826154951
H            1.88542273548365       -2.70666814790851       -3.43562453133795
H            2.00363461052499       -4.00720793033499       -4.24101038787890
O           -1.13833291884425       -3.52447373874860       -4.27846770391099
H           -1.89964331205090       -2.92657248524382       -4.34778908517806
H           -0.77888002888972       -3.60903406789840       -5.17593281819852
37
 energy: -59.780978978013 gnorm: 0.031270313420 xtb: 6.7.1 (edcfbbe)
N            0.00124966283575        0.25576986989233        2.36282884053784
C            0.00289132792801       -0.55060090958334        1.11720828956214
C           -0.01470036082179        0.35069762062563       -0.11248198905211
C           -0.00716560758097       -0.48604536189836       -1.38924223089422
C            0.01407443651953        0.35856404452685       -2.67639663020962
O            0.01565540416534        1.60870269389535       -2.58149864144194
O            0.02385566793580       -0.26228260543575       -3.75417211936856
H            0.82426295601901        0.86460820923305        2.37718595562955
H           -0.84513295475059        0.83203268506426        2.39883007301083
H           -0.87616277992152       -1.18811966019557        1.10191807324307
H            0.89134978020239       -1.17510596233551        1.08506060413992
H            0.85637683098071        1.00527000097119       -0.13748495289829
H           -0.89845659667524        0.98875439213009       -0.13002380060267
H           -0.88405418921252       -1.12978659053891       -1.45158109984601
H            0.85796206500975       -1.14749173843460       -1.42620334096476
H            0.03017616137258       -0.34981946287758        3.18883717702082
O           -0.28832015215176        4.12244202305519        1.81755042920446
H           -0.83249743634206        4.38123120702363        2.56589943829761
H            0.03761185256509        3.23952376481781        2.00722201532548
O           -0.71047758543150       -4.25930852426139        1.57811713993734
H           -0.35521918430507       -3.56660103522556        2.14116382801094
H           -1.15606410996910       -3.81111036797604        0.85690278894385
O            1.34570035095641       -3.51365388687735       -0.35506103421126
H            0.88490666286478       -4.22675892413897        0.11391993137127
H            2.29048259562797       -3.65188714109710       -0.20435470316155
O            1.92827349485402       -3.14123555356531        4.85286772979225
H            1.63501109423052       -3.60743313444035        5.63855418235602
H            2.32350695520147       -3.80541801222391        4.28250266500921
O           -0.03519479662678       -4.04776221180624       -2.31713082186066
H           -0.76837606675515       -4.57512739668834       -2.00519202083097
H            0.71742319747758       -4.63612813801346       -2.42956368709081
O            2.40699782050016       -3.53078116427539       -3.50721001652626
H            1.90339816931863       -2.72004732103224       -3.43875063076241
H            2.02705634113610       -3.99260769787777       -4.25255437725653
O           -1.20632807548632       -3.54886368689833       -4.36401270055999
H           -1.91240842186740       -2.89551402021280       -4.39943695694433
H           -0.81226250980322       -3.58014100332487       -5.23919040691014
37
 energy: -59.787271710495 gnorm: 0.065089809385 xtb: 6.7.1 (edcfbbe)
N           -0.00044525371723        0.24603665244012        2.36601943477614
C           -0.00358943350475       -0.55741606253916        1.11310276314339
C           -0.01784807724197        0.34860859283189       -0.11101147027164
C           -0.00968564238265       -0.48540185259522       -1.38546209659163
C            0.01823860782799        0.36533048335598       -2.68434283650406
O            0.01970615987507        1.61767731648596       -2.56395015830986
O            0.04445794149876       -0.26104965155472       -3.75151982542259
H            0.82526423521701        0.85057737291884        2.37525071180784
H           -0.84353040969862        0.82677494572542        2.39691983716057
H           -0.88825925026989       -1.18693057279745        1.09422197481579
H            0.88181548010631       -1.18625074746994        1.07532621831233
H            0.85523857335814        0.99970953922167       -0.14294608122213
H           -0.90050819294432        0.98747454731214       -0.13592375258958
H           -0.89040957361512       -1.12286541900440       -1.46386710312397
H            0.85299075548215       -1.14985267008660       -1.42716193239277
H            0.02706808066442       -0.35642194365482        3.19426575959320
O           -0.32980016260368        4.12363011292133        1.80374883249434
H           -0.83949586573605        4.39532313339530        2.57328223940949
H            0.07714593069779        3.27286415689633        2.02357331195798
O           -0.69865680146213       -4.26939178464642        1.55921812750585
H           -0.36671534526737       -3.58622187825148        2.15005323339270
H           -1.16096283705768       -3.81466360750320        0.85193458037502
O            1.39330010982282       -3.44676195132251       -0.24210257721393
H            0.92688236246695       -4.19642525218795        0.16977096498599
H            2.34778450350093       -3.67306994650443       -0.17106396366942
O            1.87803310775151       -3.15004852829585        4.82038908631203
H            1.63863092064538       -3.59450815187946        5.64228726025734
H            2.37014285891124       -3.81087931516940        4.30243865058752
O           -0.07626274683313       -4.06672329410118       -2.26634936204702
H           -0.79605968559232       -4.66238666409737       -2.02024192920816
H            0.71508702738227       -4.60439296138299       -2.41235501814535
O            2.47911222716197       -3.50948299330840       -3.56254755495572
H            1.88235340344133       -2.74906124176624       -3.40167379738992
H            2.03441026246354       -4.00025196506394       -4.26414586569820
O           -1.29001207992287       -3.61106662764521       -4.44184172332872
H           -1.91317336406482       -2.84630521663914       -4.44510972830353
H           -0.82684582635935       -3.52821155403668       -5.30315921050035
37
 energy: -59.791630305596 gnorm: 0.063097493196 xtb: 6.7.1 (edcfbbe)
N            0.00076899567136        0.23497084449203        2.36728659837466
C           -0.01019240887282       -0.56469060652053        1.10811443598404
C           -0.02057059041025        0.34620144014175       -0.11061627132576
C           -0.01263041567446       -0.48476305414653       -1.38251958796402
C            0.02741332792073        0.37348108493158       -2.69237534128313
O            0.02137577984152        1.62482473723481       -2.55047514038126
O            0.06221984773267       -0.26553244006786       -3.75836478774464
H            0.83185805002708        0.83400936111843        2.37033841394268
H           -0.83904889981895        0.82271607787054        2.39355435159229
H           -0.90222052188523       -1.18623727689121        1.08679182407859
H            0.87075324940741       -1.20285436851106        1.06384695459290
H            0.85572374545376        0.99403042168056       -0.14710045966767
H           -0.90194919443025        0.98813658013300       -0.14005744267433
H           -0.89945690560804       -1.11450437775341       -1.47467795264615
H            0.84763564210961       -1.15400961539368       -1.42509282780920
H            0.02631458807234       -0.36595255645187        3.19826657227154
O           -0.37628594356636        4.12375061444629        1.78692053259744
H           -0.84184285935803        4.41653663833559        2.58377430436572
H            0.12135055259382        3.31410309211887        2.04477884734241
O           -0.68557609354307       -4.28360291375584        1.53688502131279
H           -0.38081351991662       -3.61187991949792        2.16250354356932
H           -1.16780508950807       -3.81654495670703        0.84638059955882
O            1.47792165629113       -3.40935136345498       -0.13575767733045
H            0.97536833842139       -4.14133369324907        0.24863464874531
H            2.40583877562440       -3.64844338533223       -0.07914947088538
O            1.86517600326943       -3.16072290943911        4.80753911567398
H            1.62905979649094       -3.58332248717371        5.64225674599103
H            2.38694916907364       -3.81450702650422        4.31315640650382
O           -0.11609947838338       -4.08470720678918       -2.20645840186280
H           -0.82658056905805       -4.75438126764972       -2.05375886034294
H            0.70543048474308       -4.57454469879726       -2.39973567729332
O            2.48905294191070       -3.51723722722012       -3.57281559319597
H            1.90571816359088       -2.75874478367643       -3.40033993730587
H            2.05721109049584       -4.00331946167040       -4.28548309669954
O           -1.30459675531347       -3.54412853092167       -4.53473164337752
H           -1.96890559920780       -2.88084842646327       -4.51235104330419
H           -0.89316335418408       -3.53863133846390       -5.38414070340563
37
 energy: -59.795350696089 gnorm: 0.052581612338 xtb: 6.7.1 (edcfbbe)
N            0.01112854905907        0.22720783478706        2.36217118395603
C           -0.01175539420146       -0.56978828169297        1.10222827232803
C           -0.01976367052311        0.34324086780208       -0.11472833153018
C           -0.01581528748111       -0.48645786686090       -1.38648864943910
C            0.03494414599830        0.37849213932965       -2.69675762911379
O            0.02218867668400        1.62415161912431       -2.55111473402133
O            0.06856008919884       -0.26551894017029       -3.77020475449757
H            0.84872438457358        0.81964081283837        2.36026994965946
H           -0.82474103511816        0.82310215218668        2.38967945817074
H           -0.90966620937519       -1.18530859145964        1.08408934036873
H            0.86269638385779       -1.22006956914151        1.05323375430088
H            0.85962987988693        0.98868004669842       -0.14785453257286
H           -0.89853251611144        0.99076988953518       -0.13817586411184
H           -0.90835955963475       -1.10885215596312       -1.47911714752905
H            0.84194610731485       -1.16053734981208       -1.42480559777226
H            0.03515267685948       -0.37513147217210        3.19373687442715
O           -0.34981234337914        4.14310841117443        1.80966625641525
H           -0.83925586286474        4.44112864705619        2.58413830788761
H            0.10451771668157        3.33538997703770        2.04311000339237
O           -0.68269878076889       -4.29595546871432        1.52568556300364
H           -0.39204685551831       -3.63401342634922        2.17044638868032
H           -1.17074438680374       -3.81854107449354        0.84373637416815
O            1.54589432156836       -3.37113537337968       -0.06657235305230
H            0.99479217758613       -4.07647292546663        0.29656931292926
H            2.45248085113078       -3.64744896615172       -0.02320658535125
O            1.89651160310620       -3.16872882027998        4.82006717917387
H            1.61093107641421       -3.57713865401290        5.63740695528027
H            2.37047410484825       -3.81446187849804        4.31501820675031
O           -0.14188051476847       -4.11477685803996       -2.18335536683706
H           -0.83874085534348       -4.77198961798117       -2.03743457116423
H            0.66855042692361       -4.59685359394503       -2.37527866273941
O            2.42709831941949       -3.54375587713006       -3.53562110171290
H            1.94669451283344       -2.74524482959666       -3.42999842107125
H            2.08425538589525       -3.98906002886155       -4.31165304300722
O           -1.37733087154014       -3.61825887461306       -4.61456536383071
H           -1.96442809730949       -2.84573766409775       -4.53045914623808
H           -0.92619714909587       -3.50570923868509       -5.45883452530289
37
 energy: -59.794694603947 gnorm: 0.092843999919 xtb: 6.7.1 (edcfbbe)
N            0.01550512088227        0.21704528516318        2.35527812253422
C           -0.01917301782833       -0.57722604344073        1.09676112258359
C           -0.02118727600640        0.33767040601343       -0.11957987176607
C           -0.02049833350859       -0.49023569501372       -1.39440258657012
C            0.03724469129081        0.38259791968662       -2.69609294565088
O            0.03067926933015        1.62109036529588       -2.55374340482053
O            0.07929028896305       -0.25258535994185       -3.77506831206679
H            0.85904970185330        0.80131779776811        2.35268337926155
H           -0.81455666452476        0.82129965979528        2.38710496378093
H           -0.92203275207821       -1.18567152388089        1.08202057943441
H            0.84680067911510       -1.23943734550718        1.04537080634074
H            0.86075497255907        0.98040069020885       -0.14231579737930
H           -0.89603590555721        0.99149766038045       -0.13415429267280
H           -0.91759883013501       -1.10482721170375       -1.48346270184112
H            0.83332948650626       -1.16920423232451       -1.42683283779251
H            0.03618438841070       -0.38807616317436        3.18484172398560
O           -0.39270895008442        4.14182129100697        1.79686013113222
H           -0.83576400500544        4.46237620700434        2.59508213920442
H            0.14483371470035        3.38245406746915        2.07387789994144
O           -0.68268451137506       -4.31192959182141        1.51819402366397
H           -0.40343035021876       -3.65680281678282        2.16922697104403
H           -1.16738708706548       -3.83257981816376        0.83797618245250
O            1.59183836293660       -3.26297556279094        0.04030071286621
H            1.00795578618815       -4.01711771307125        0.31642490725894
H            2.52007347653164       -3.72025860754115       -0.03178327952026
O            1.83634113109426       -3.17574017696493        4.78206405921923
H            1.61291922275374       -3.56175991066274        5.63829084113508
H            2.43902652956284       -3.81928572460857        4.35161690734306
O           -0.16445505641643       -4.12012022433615       -2.13648119908370
H           -0.84257621698920       -4.78432315744770       -2.02470168245958
H            0.64199591203595       -4.58494948181788       -2.35290903610530
O            2.39854257788019       -3.57464988391873       -3.52206265353427
H            1.95639227265832       -2.75293183298213       -3.41878080842335
H            2.10520146569646       -3.97175824321814       -4.34823004898613
O           -1.41115032151047       -3.63828126365405       -4.67688216272276
H           -1.98148062925693       -2.85836358411443       -4.55488415951297
H           -0.94583714338465       -3.48051518090684       -5.51658069227811
37
 energy: -59.799611013364 gnorm: 0.058862229237 xtb: 6.7.1 (edcfbbe)
N            0.01575316445365        0.21108544268256        2.35032825152359
C           -0.02486856672920       -0.58233794323174        1.09437299656430
C           -0.02232864910634        0.33327604654031       -0.12254791365017
C           -0.02282082233603       -0.49308192764622       -1.40099511943819
C            0.03480627643853        0.38311917075789       -2.69217493660852
O            0.03928925341895        1.61877278793538       -2.55577799946745
O            0.08774862549985       -0.23889420775480       -3.77374418067418
H            0.86172420772712        0.79074009568002        2.34978876723348
H           -0.81042483609595        0.81947832828975        2.38674843458183
H           -0.93021669260841       -1.18632423049119        1.08112511784563
H            0.83670974851386       -1.24927130506250        1.04248241845012
H            0.86110137526310        0.97412015735301       -0.13836542947800
H           -0.89501279634127        0.99024618214226       -0.13320772453596
H           -0.92158675905085       -1.10410058112662       -1.48691492391459
H            0.82815094116175       -1.17508419562045       -1.43028817828357
H            0.03408726128808       -0.39605314481888        3.17766385639762
O           -0.41459019028647        4.14355626630227        1.79263422609689
H           -0.84057497250623        4.47040873577635        2.59871704048239
H            0.16878299933314        3.40716458713989        2.09226682958645
O           -0.67421089824051       -4.32019998103087        1.50898138172094
H           -0.41016641707191       -3.66751818263257        2.16673475148801
H           -1.16295441139329       -3.84093645889799        0.83356073879831
O            1.62876002445317       -3.29984884840131        0.02818313606501
H            1.03295589050209       -3.98264870376413        0.36089875257820
H            2.52065359022398       -3.63708251680391        0.03089655234595
O            1.82156736729900       -3.17722560908176        4.77239821851760
H            1.61234483146171       -3.55766851369794        5.63893341189543
H            2.45527176007345       -3.82344336651707        4.36203644046700
O           -0.19009699407828       -4.12503787670779       -2.11526549774207
H           -0.84813778821337       -4.82613988452626       -2.03475141472864
H            0.64130198121669       -4.55814057277387       -2.36114721186837
O            2.42676023014186       -3.58559771417492       -3.54398541758939
H            1.93122694037544       -2.76993705669381       -3.37996612335045
H            2.10590216976718       -3.96292182262986       -4.37068836037341
O           -1.42827389184759       -3.64790584296682       -4.70206596052822
H           -1.98605582226238       -2.86078263825083       -4.57348958175674
H           -0.94717613043980       -3.46581967529368       -5.53834834865596
37
 energy: -59.792262295267 gnorm: 0.131693118080 xtb: 6.7.1 (edcfbbe)
N            0.02561214135170        0.20541558181091        2.34409924376574
C           -0.02524754362856       -0.58851229814825        1.09039418403335
C           -0.02033377201609        0.32877529367132       -0.12584361055101
C           -0.02377575371059       -0.49374222051790       -1.40771932650075
C            0.04057597624928        0.38265547443956       -2.69247574853044
O            0.04061114980881        1.62056980047724       -2.55688098954377
O            0.08883173885799       -0.23221114406035       -3.77577456048459
H            0.87459885636208        0.77946521605367        2.34156602340173
H           -0.79517851285666        0.81974153620485        2.38569834105703
H           -0.93572132135762       -1.18456298969083        1.07946533627500
H            0.83249139601488       -1.25937901013149        1.03425104730238
H            0.86617487078296        0.96558815772069       -0.14303412165986
H           -0.89061890808669        0.98889696138565       -0.13783733147732
H           -0.92540644644756       -1.10081380283967       -1.49516478204343
H            0.82337892503133       -1.18005061186657       -1.43674533125076
H            0.04306287917318       -0.40219153753852        3.17036546548399
O           -0.33586220578815        4.17865861968576        1.84905738775993
H           -0.85322661422429        4.48376481747548        2.58714467399121
H            0.11775454142167        3.40709936284688        2.07026926963012
O           -0.64503603590102       -4.32487431373500        1.48758564240052
H           -0.42309667560335       -3.67790750413336        2.17713435045333
H           -1.16242109748223       -3.84101035984472        0.83275422787974
O            1.65399586073706       -3.27517146228432        0.07372598394311
H            1.05218271237446       -3.96620579643277        0.37970487889610
H            2.53332301747610       -3.62218346137760        0.06210428469527
O            1.96947595735468       -3.17997394700331        4.85228041196225
H            1.57745162196445       -3.56941530731994        5.62917213922700
H            2.32075224416369       -3.82071149080375        4.31423135561502
O           -0.21972661456151       -4.12229663150621       -2.06188851550857
H           -0.86713317904296       -4.88045550908464       -2.05719672516250
H            0.63817792581863       -4.51562323796298       -2.35963969495195
O            2.45513985525272       -3.58286417380932       -3.56276299315303
H            1.89294751644647       -2.78147788099246       -3.35515846946025
H            2.10396692800132       -3.95228230761643       -4.38233220444865
O           -1.41470218082212       -3.59584627073454       -4.73137538877384
H           -2.00231678654681       -2.88013316213130       -4.60377467317280
H           -0.99530046656421       -3.52276939020464       -5.56037278110477
37
 energy: -59.800313099303 gnorm: 0.072583019979 xtb: 6.7.1 (edcfbbe)
N            0.02437512989518        0.20050642095381        2.34371372831701
C           -0.02998727761350       -0.59280951664908        1.08919151698678
C           -0.02216733452251        0.32622638968785       -0.12536506424088
C           -0.02485494431725       -0.49307619544999       -1.40804508763217
C            0.04889267459428        0.38427895374663       -2.69282559069418
O            0.04040707026746        1.62462104959423       -2.55371185277843
O            0.09294306912185       -0.23447649174920       -3.77934446970361
H            0.87571050242867        0.77177303762034        2.34034387325535
H           -0.79423960661465        0.81827680293239        2.38573625109370
H           -0.94334344524657       -1.18511561441648        1.07714789164821
H            0.82594985813998       -1.26656315639638        1.03124982360185
H            0.86611051585482        0.96055501828175       -0.14334843099687
H           -0.89107123811854        0.98806449597488       -0.14075607535105
H           -0.92775293026374       -1.09924629505395       -1.50079312685712
H            0.82115918835383       -1.18124334549388       -1.43688461131139
H            0.04032782964385       -0.40733925944524        3.17011556272123
O           -0.41527321657088        4.16204783605288        1.80790260803265
H           -0.85443395517351        4.48853932749849        2.60220273909275
H            0.19476037605209        3.44129872832347        2.10943719201940
O           -0.63798279409926       -4.32967071896129        1.48229338300470
H           -0.42462513609793       -3.68282389854737        2.17458442598816
H           -1.15800923309575       -3.84987966023328        0.82645691185845
O            1.66299121924960       -3.24414632080944        0.09706370831065
H            1.05756701705732       -3.95164380579711        0.38058209581448
H            2.54562022402698       -3.62716182908907        0.06461758571928
O            1.98287740987259       -3.17607141667810        4.86042291120131
H            1.56600654257151       -3.56358933272177        5.62875393518311
H            2.31407652019543       -3.83440785576325        4.30857015674126
O           -0.21429313840268       -4.12939590621674       -2.07393533901645
H           -0.86292962723471       -4.84274805728627       -2.03402274892105
H            0.62255776499092       -4.53458289600838       -2.33727677360793
O            2.40942544463790       -3.60409558508553       -3.52374995415591
H            1.92570581837013       -2.77823315859230       -3.39939317276240
H            2.11985908029798       -3.95712045088806       -4.37868319044713
O           -1.43796339670324       -3.63712591135883       -4.75456451127080
H           -1.98515857587113       -2.85503839467743       -4.59568182626897
H           -0.99783540567272       -3.50061798729668       -5.58697747458076
37
 energy: -59.799311512319 gnorm: 0.088553267285 xtb: 6.7.1 (edcfbbe)
N            0.03662656044603        0.19534310354455        2.33982298851528
C           -0.02859562978879       -0.59714054159685        1.08520191944638
C           -0.01974430544894        0.32226577096117       -0.12869066222820
C           -0.02802639557659       -0.49548726634828       -1.41179099982484