[Molden Format]
[Title]
 Molden file created by orca_2mkl for BaseName=input

[Atoms] AU
C    1   6         -1.5518214404        -1.2096760586         1.9471417588 
C    2   6         -1.9710983151        -0.5250164140         4.6896987805 
O    3   8         -3.6378686662        -1.7248926670         5.9207847395 
O    4   8         -0.6722500545         1.1913336082         5.6733880254 
C    5   6          0.0019496396         0.7802615370         0.5730712017 
N    6   7          0.1336042139         0.2402330003        -2.1469740629 
H    7   1         -0.6299997645        -3.0539628060         1.9044207397 
H    8   1         -3.4121745707        -1.4251924954         1.0896633222 
H    9   1         -0.8940160783         2.6159252201         0.8414790894 
H   10   1          1.8975097240         0.8569383100         1.3717765708 
H   11   1         -1.6450341393        -0.2770876420        -2.7919735511 
H   12   1          1.3822310942        -1.2066296455        -2.5527790991 
H   13   1          0.7303007445         1.8994086558        -3.0307145106 
[GTO]
  1 0
s   6 1.0 
    13575.3496820000         0.5435905310
     2035.2333680000         1.0145543947
      463.2256235900         1.7315731970
      131.2001959800         2.6910376290
       42.8530158910         3.6044547126
       15.5841857660         3.7025556986
s   2 1.0 
        6.2067138508         1.8383540830
        2.5764896527         0.5447575605
s   1 1.0 
        0.5769633942         0.4718145038
s   1 1.0 
        0.2297283136         0.2364944676
s   1 1.0 
        0.0951644400         0.1221141848
p   4 1.0 
       34.6972322440         1.3596651507
        7.9582622826         1.4512589486
        2.3780826883         1.2709231419
        0.8143320818         0.8025721189
p   1 1.0 
        0.2888754725         0.3018758868
p   1 1.0 
        0.1005682367         0.0807265016
d   1 1.0 
        1.0970000000         3.3522135855
d   1 1.0 
        0.3180000000         0.3838994974
f   1 1.0 
        0.7610000000         3.0840084332

  2 0
s   6 1.0 
    13575.3496820000         0.5435905310
     2035.2333680000         1.0145543947
      463.2256235900         1.7315731970
      131.2001959800         2.6910376290
       42.8530158910         3.6044547126
       15.5841857660         3.7025556986
s   2 1.0 
        6.2067138508         1.8383540830
        2.5764896527         0.5447575605
s   1 1.0 
        0.5769633942         0.4718145038
s   1 1.0 
        0.2297283136         0.2364944676
s   1 1.0 
        0.0951644400         0.1221141848
p   4 1.0 
       34.6972322440         1.3596651507
        7.9582622826         1.4512589486
        2.3780826883         1.2709231419
        0.8143320818         0.8025721189
p   1 1.0 
        0.2888754725         0.3018758868
p   1 1.0 
        0.1005682367         0.0807265016
d   1 1.0 
        1.0970000000         3.3522135855
d   1 1.0 
        0.3180000000         0.3838994974
f   1 1.0 
        0.7610000000         3.0840084332

  3 0
s   6 1.0 
    27032.3826310000         0.8598581479
     4052.3871392000         1.6055305368
      922.3272271000         2.7458778516
      261.2407098900         4.2987674426
       85.3546413510         5.8797663284
       31.0350352450         6.3163983216
s   2 1.0 
       12.2608607280         2.9812147522
        4.9987076005         0.9419559635
s   1 1.0 
        1.1703108158         0.8019291610
s   1 1.0 
        0.4647474099         0.4011648062
s   1 1.0 
        0.1850453636         0.2010799406
p   4 1.0 
       63.2749548010         3.0572017144
       14.6270493790         3.3844839414
        4.4501223456         2.9474262132
        1.5275799647         1.7118271494
p   1 1.0 
        0.5293511794         0.6436057926
p   1 1.0 
        0.1747842127         0.1610897254
d   1 1.0 
        2.3140000000        12.3767310624
d   1 1.0 
        0.6450000000         1.3234257612
f   1 1.0 
        1.4280000000        12.7097950062

  4 0
s   6 1.0 
    27032.3826310000         0.8598581479
     4052.3871392000         1.6055305368
      922.3272271000         2.7458778516
      261.2407098900         4.2987674426
       85.3546413510         5.8797663284
       31.0350352450         6.3163983216
s   2 1.0 
       12.2608607280         2.9812147522
        4.9987076005         0.9419559635
s   1 1.0 
        1.1703108158         0.8019291610
s   1 1.0 
        0.4647474099         0.4011648062
s   1 1.0 
        0.1850453636         0.2010799406
p   4 1.0 
       63.2749548010         3.0572017144
       14.6270493790         3.3844839414
        4.4501223456         2.9474262132
        1.5275799647         1.7118271494
p   1 1.0 
        0.5293511794         0.6436057926
p   1 1.0 
        0.1747842127         0.1610897254
d   1 1.0 
        2.3140000000        12.3767310624
d   1 1.0 
        0.6450000000         1.3234257612
f   1 1.0 
        1.4280000000        12.7097950062

  5 0
s   6 1.0 
    13575.3496820000         0.5435905310
     2035.2333680000         1.0145543947
      463.2256235900         1.7315731970
      131.2001959800         2.6910376290
       42.8530158910         3.6044547126
       15.5841857660         3.7025556986
s   2 1.0 
        6.2067138508         1.8383540830
        2.5764896527         0.5447575605
s   1 1.0 
        0.5769633942         0.4718145038
s   1 1.0 
        0.2297283136         0.2364944676
s   1 1.0 
        0.0951644400         0.1221141848
p   4 1.0 
       34.6972322440         1.3596651507
        7.9582622826         1.4512589486
        2.3780826883         1.2709231419
        0.8143320818         0.8025721189
p   1 1.0 
        0.2888754725         0.3018758868
p   1 1.0 
        0.1005682367         0.0807265016
d   1 1.0 
        1.0970000000         3.3522135855
d   1 1.0 
        0.3180000000         0.3838994974
f   1 1.0 
        0.7610000000         3.0840084332

  6 0
s   6 1.0 
    19730.8006470000         0.6956035199
     2957.8958745000         1.2986099328
      673.2213359500         2.2190880635
      190.6824949400         3.4636607549
       62.2954418980         4.6967555531
       22.6541611820         4.9522510945
s   2 1.0 
        8.9791477428         2.3880677979
        3.6863002370         0.7337878750
s   1 1.0 
        0.8466007680         0.6290267082
s   1 1.0 
        0.3364713377         0.3148626514
s   1 1.0 
        0.1364765367         0.1600308040
p   4 1.0 
       49.2003805100         2.1264813968
       11.3467905370         2.3279367185
        3.4273972411         2.0485729192
        1.1785525134         1.2607319854
p   1 1.0 
        0.4164220497         0.4768230427
p   1 1.0 
        0.1426082601         0.1249168256
d   1 1.0 
        1.6540000000         6.8771297418
d   1 1.0 
        0.4690000000         0.7577440909
f   1 1.0 
        1.0930000000         6.9645882147

  7 0
s   3 1.0 
       34.0613410000         0.2556299169
        5.1235746000         0.4613599649
        1.1646626000         0.6811214941
s   1 1.0 
        0.3272304100         0.3083545312
s   1 1.0 
        0.1030724100         0.1296483265
p   1 1.0 
        0.8000000000         1.0784563492

  8 0
s   3 1.0 
       34.0613410000         0.2556299169
        5.1235746000         0.4613599649
        1.1646626000         0.6811214941
s   1 1.0 
        0.3272304100         0.3083545312
s   1 1.0 
        0.1030724100         0.1296483265
p   1 1.0 
        0.8000000000         1.0784563492

  9 0
s   3 1.0 
       34.0613410000         0.2556299169
        5.1235746000         0.4613599649
        1.1646626000         0.6811214941
s   1 1.0 
        0.3272304100         0.3083545312
s   1 1.0 
        0.1030724100         0.1296483265
p   1 1.0 
        0.8000000000         1.0784563492

 10 0
s   3 1.0 
       34.0613410000         0.2556299169
        5.1235746000         0.4613599649
        1.1646626000         0.6811214941
s   1 1.0 
        0.3272304100         0.3083545312
s   1 1.0 
        0.1030724100         0.1296483265
p   1 1.0 
        0.8000000000         1.0784563492

 11 0
s   3 1.0 
       34.0613410000         0.2556299169
        5.1235746000         0.4613599649
        1.1646626000         0.6811214941
s   1 1.0 
        0.3272304100         0.3083545312
s   1 1.0 
        0.1030724100         0.1296483265
p   1 1.0 
        0.8000000000         1.0784563492

 12 0
s   3 1.0 
       34.0613410000         0.2556299169
        5.1235746000         0.4613599649
        1.1646626000         0.6811214941
s   1 1.0 
        0.3272304100         0.3083545312
s   1 1.0 
        0.1030724100         0.1296483265
p   1 1.0 
        0.8000000000         1.0784563492

 13 0
s   3 1.0 
       34.0613410000         0.2556299169
        5.1235746000         0.4613599649
        1.1646626000         0.6811214941
s   1 1.0 
        0.3272304100         0.3083545312
s   1 1.0 
        0.1030724100         0.1296483265
p   1 1.0 
        0.8000000000         1.0784563492

[5D]
[7F]
[9G]
[MO]
 Sym=     1a
 Ene= -1.90534185046591E+01
 Spin= Alpha
 Occup= 2.000000
  1       0.000020930792
  2      -0.000102049616
  3       0.000588063055
  4       0.000463080475
  5       0.004266142458
  6       0.000048870152
  7       0.000135061144
  8       0.000038507528
  9      -0.000791269330
 10      -0.000753326472
 11       0.003074552160
 12       0.002696737062
 13       0.002222256930
 14      -0.002174372586
 15       0.000120735075
 16      -0.000068575745
 17       0.000066709596
 18       0.000034610394
 19       0.000060854961
 20       0.000338225618
 21       0.000761477325
 22       0.000854916216
 23      -0.000398293713
 24      -0.001295466785
 25       0.000037961335
 26      -0.000033159844
 27       0.000010140967
 28      -0.000014771136
 29      -0.000054658428
 30      -0.000016299926
 31       0.000000374789
 32       0.000048260829
 33      -0.000279559830
 34       0.000435867618
 35       0.003791988292
 36      -0.002908604385
 37       0.000343288045
 38       0.000377178257
 39       0.000160443678
 40       0.003673401288
 41       0.005645518503
 42       0.004488185501
 43      -0.004167284079
 44      -0.004939594986
 45      -0.001567173427
 46      -0.000042240832
 47       0.000164176455
 48       0.000329200393
 49      -0.000097759251
 50       0.000361600947
 51      -0.002313486360
 52       0.002432127319
 53       0.001892295718
 54      -0.000951395450
 55       0.002966124171
 56       0.000093119811
 57      -0.000035263265
 58       0.000142486095
 59      -0.000161216035
 60       0.000052416353
 61       0.000222611938
 62      -0.000168016312
 63      -0.000437254512
 64      -0.000629859743
 65      -0.000271694079
 66       0.001811446881
 67      -0.002794030559
 68       0.000075589017
 69       0.000047898032
 70      -0.000063812526
 71       0.000131266797
 72       0.000230953175
 73       0.000186816694
 74       0.000109602147
 75       0.000507924698
 76       0.000909001067
 77       0.000058193141
 78      -0.000043497496
 79       0.000026281660
 80       0.000005729177
 81       0.000061093544
 82      -0.000309518699
 83       0.000145696652
 84      -0.000143446946
 85      -0.000015684277
 86      -0.000123623387
 87       0.000051221931
 88      -0.000015584247
 89       0.000031470701
 90       0.000023844207
 91      -0.000014923587
 92      -0.000057670473
 93       0.000052489965
 94       0.435086101342
 95       0.639517847481
 96       0.036391662218
 97      -0.030370261724
 98       0.013139415819
 99      -0.001059837353
100      -0.001419838948
101      -0.000868712125
102       0.003325026720
103       0.004437364907
104       0.002755123353
105      -0.000423937708
106      -0.000693467547
107      -0.000905864231
108      -0.000107648077
109       0.000148022785
110       0.000150106574
111      -0.000060065407
112       0.000168683706
113       0.000473544017
114      -0.000725085189
115      -0.000827883488
116       0.000313597672
117      -0.000998376537
118      -0.000097093999
119      -0.000007612940
120      -0.000010526895
121      -0.000034493973
122       0.000136883770
123       0.000117870762
124      -0.000049902136
125       0.000001887582
126      -0.000007068254
127      -0.000281214216
128       0.003016599662
129      -0.010469709655
130      -0.000004783068
131       0.000063293803
132       0.000014511960
133      -0.000820511123
134      -0.001549926318
135       0.001103594697
136       0.000417284791
137       0.001093301918
138      -0.000668425498
139       0.000100175837
140      -0.000054536438
141      -0.000038706544
142       0.000013557395
143       0.000004052135
144      -0.000721666710
145       0.000009744360
146      -0.000378832772
147      -0.000353947103
148       0.000631501117
149       0.000022921473
150      -0.000020573547
151      -0.000002915437
152      -0.000037677824
153       0.000068110942
154      -0.000092729994
155       0.000009777470
156      -0.000000002826
157       0.000000073390
158      -0.000048007129
159       0.000352540207
160       0.001642036369
161      -0.000001044902
162      -0.000018532651
163      -0.000015735783
164       0.000000990780
165       0.000185834133
166       0.000326505666
167       0.000334311622
168       0.000598073958
169       0.000407462956
170       0.000009809226
171      -0.000021295726
172      -0.000027116912
173       0.000001690086
174       0.000004951672
175       0.000054159248
176       0.000118533010
177       0.000187616553
178      -0.000018399303
179      -0.000003179323
180      -0.000008971436
181       0.000020431095
182       0.000018831883
183      -0.000005636027
184      -0.000004401238
185      -0.000003476705
186       0.000002580193
187      -0.000087273221
188      -0.001087653438
189       0.000042895614
190       0.000034959819
191      -0.000160837673
192      -0.000076816654
193       0.000027246385
194      -0.000064628711
195      -0.000091298105
196       0.000000941390
197      -0.000160569420
198       0.000001409384
199      -0.000045895207
200       0.000475248188
201       0.001664338615
202      -0.000036283294
203      -0.000080372487
204       0.000109007197
205      -0.000076055131
206       0.000386593465
207       0.001801032599
208      -0.000020202089
209      -0.000007601450
210       0.000050602021
211      -0.000022568085
212       0.000064501724
213       0.000213464671
214      -0.000006812935
215      -0.000014035367
216       0.000014125103
217      -0.000017754168
218       0.000127470009
219       0.000053983263
220      -0.000026257340
221      -0.000000686354
222       0.000028267380
223       0.000036736216
224      -0.000207663053
225      -0.000220202619
226      -0.000003224970
227      -0.000006319569
228      -0.000036389082
 Sym=     1a
 Ene= -1.90482778963479E+01
 Spin= Alpha
 Occup= 2.000000
  1       0.000015122020
  2      -0.000072189643
  3       0.000025400959
  4       0.003324794568
  5      -0.003823138002
  6      -0.000019278418
  7       0.000081066537
  8       0.000062978229
  9      -0.000785348129
 10      -0.000313366663
 11       0.002799303741
 12      -0.001912316882
 13      -0.000368581296
 14       0.001347779129
 15       0.000089730622
 16      -0.000097337474
 17      -0.000005533053
 18       0.000031461240
 19       0.000097331391
 20       0.000776438669
 21       0.000248134058
 22       0.000653648731
 23      -0.000330962135
 24      -0.001032593310
 25       0.000084363822
 26       0.000004669540
 27       0.000104163637
 28      -0.000045960346
 29      -0.000089841666
 30      -0.000017236077
 31       0.000003083616
 32       0.000050428902
 33      -0.000288270572
 34       0.000509791507
 35       0.002601514683
 36      -0.002987572985
 37      -0.000321855448
 38      -0.000252436105
 39       0.000163981466
 40      -0.005998949780
 41      -0.003862487056
 42       0.005802473814
 43       0.005146107259
 44       0.004281569155
 45      -0.002380171952
 46      -0.000009039833
 47      -0.000355800753
 48      -0.000205496647
 49       0.000110139065
 50       0.000331920925
 51      -0.001718671686
 52      -0.002621550631
 53      -0.002922098415
 54       0.001053032997
 55       0.002469379393
 56       0.000124190958
 57      -0.000220336972
 58       0.000022151719
 59       0.000175743625
 60       0.000123259243
 61      -0.000215408256
 62       0.000274923558
 63       0.435090746553
 64       0.639528921829
 65       0.036349863776
 66      -0.030265766514
 67       0.012626760750
 68       0.001366808670
 69       0.000954347809
 70      -0.001036900292
 71      -0.004434434181
 72      -0.003113431485
 73       0.003342472846
 74       0.000590344537
 75       0.000307961836
 76      -0.000605883704
 77      -0.000049520915
 78      -0.000178776379
 79      -0.000156034313
 80       0.000066780148
 81       0.000146544379
 82       0.000229018106
 83       0.001032711944
 84       0.000815248636
 85      -0.000368117077
 86      -0.000932370774
 87      -0.000096753964
 88      -0.000021141628
 89      -0.000014401334
 90       0.000050005374
 91       0.000155082909
 92      -0.000032886339
 93       0.000111406258
 94       0.000435292545
 95       0.000653721812
 96      -0.000247103336
 97       0.002081784125
 98      -0.002595939967
 99      -0.000036472665
100      -0.000053407783
101      -0.000063971480
102      -0.000381459374
103      -0.000351568941
104       0.000194472564
105      -0.000424656022
106      -0.000065924985
107       0.000683064919
108       0.000039055065
109      -0.000023699818
110       0.000040395811
111      -0.000005042178
112       0.000060034547
113      -0.000265162606
114       0.000128719786
115      -0.000129932168
116       0.000002083112
117      -0.000087290674
118       0.000045674789
119      -0.000013170628
120       0.000026392056
121      -0.000030506788
122      -0.000025696560
123       0.000049579879
124      -0.000057573681
125       0.000007732784
126      -0.000038617151
127       0.000242525478
128       0.000935782545
129       0.001264103114
130      -0.000039585864
131       0.000008443486
132       0.000041752059
133      -0.000480246898
134      -0.000678504279
135       0.000681459573
136       0.000356282189
137      -0.000551476612
138      -0.001592275838
139       0.000085944066
140      -0.000066006902
141      -0.000044311522
142       0.000032056359
143       0.000008261718
144      -0.000700507686
145       0.000166966504
146      -0.000175835805
147      -0.000416294527
148       0.000104888957
149       0.000045767282
150       0.000005701083
151      -0.000008503608
152      -0.000060324887
153      -0.000010966012
154      -0.000032636952
155      -0.000004608362
156      -0.000000507824
157       0.000003336550
158      -0.000116808326
159       0.000636081464
160      -0.000521739029
161      -0.000017522923
162      -0.000036426182
163      -0.000023744556
164       0.000093002559
165       0.000228903631
166       0.000381849292
167      -0.000269392143
168      -0.000507987968
169      -0.000169392581
170       0.000010888737
171      -0.000002887284
172      -0.000007335138
173      -0.000007407429
174      -0.000003252474
175       0.000057691247
176       0.000040585318
177       0.000133565448
178       0.000013265015
179       0.000007726812
180      -0.000002821407
181       0.000006248740
182       0.000020079091
183      -0.000007409472
184       0.000004017308
185       0.000005232494
186       0.000004541904
187      -0.000144642779
188      -0.000368767581
189       0.001664574410
190       0.000030099207
191      -0.000088049869
192      -0.000021899973
193       0.000013346827
194       0.000095494226
195       0.000606852708
196      -0.000025040874
197      -0.000107351892
198       0.000070019764
199      -0.000023310069
200      -0.000230520743
201       0.000053485351
202      -0.000043900774
203       0.000029555255
204       0.000029232047
205      -0.000016143551
206       0.000218034713
207      -0.000326449121
208      -0.000040150589
209       0.000019619332
210       0.000005366073
211       0.000001093186
212      -0.000104165403
213      -0.000226971900
214      -0.000016227707
215       0.000009806846
216       0.000015626307
217       0.000016910244
218      -0.000157669290
219      -0.000134689784
220       0.000014921073
221      -0.000005458530
222      -0.000002739800
223      -0.000014938112
224       0.000091958531
225      -0.000037897596
226      -0.000002908492
227      -0.000009457678
228      -0.000036582572
 Sym=     1a
 Ene= -1.44306129569879E+01
 Spin= Alpha
 Occup= 2.000000
  1      -0.000005963627
  2       0.000033046914
  3      -0.000226691992
  4      -0.000572707011
  5      -0.008049329279
  6      -0.000003445216
  7       0.000037537668
  8       0.000116421412
  9       0.000035953892
 10      -0.000432457973
 11      -0.000783306172
 12      -0.001490513573
 13      -0.003122803068
 14      -0.000160130448
 15      -0.000103669271
 16       0.000045983213
 17      -0.000008189021
 18      -0.000042124106
 19       0.000032221813
 20       0.001089485078
 21      -0.000657836209
 22      -0.000303150232
 23       0.000254766009
 24      -0.000182744992
 25      -0.000093486507
 26       0.000140559336
 27       0.000127504938
 28      -0.000008004700
 29      -0.000024138479
 30      -0.000062792028
 31      -0.000021672442
 32      -0.000004967446
 33       0.000029033076
 34      -0.000310548197
 35       0.000038197141
 36       0.004268781260
 37      -0.000017136783
 38       0.000013826357
 39       0.000104914852
 40      -0.000155590252
 41      -0.000142830165
 42      -0.000244864324
 43       0.000579405930
 44       0.000123202882
 45      -0.001755136773
 46      -0.000043353929
 47       0.000037997902
 48       0.000010268122
 49      -0.000024734893
 50      -0.000026352897
 51       0.000308433245
 52      -0.000510640202
 53      -0.000434279281
 54       0.000304001351
 55       0.000073444196
 56      -0.000035015214
 57      -0.000013223295
 58      -0.000037501019
 59       0.000048207758
 60      -0.000008565899
 61      -0.000005611002
 62      -0.000014297839
 63       0.000000081021
 64      -0.000001162787
 65       0.000028460680
 66      -0.000270846609
 67      -0.000472447221
 68       0.000003148039
 69       0.000027315580
 70       0.000014835916
 71      -0.000123516521
 72      -0.000226682742
 73      -0.000043237506
 74      -0.000123824378
 75       0.000059644872
 76       0.000312786332
 77      -0.000003093800
 78       0.000000808185
 79      -0.000000273783
 80      -0.000003427396
 81      -0.000002570721
 82       0.000045372924
 83      -0.000016423680
 84       0.000013177853
 85       0.000021295546
 86      -0.000028021038
 87       0.000002401917
 88       0.000006456117
 89       0.000006059731
 90      -0.000011874045
 91      -0.000005222307
 92      -0.000000085409
 93      -0.000005503916
 94      -0.000000013567
 95       0.000000050425
 96      -0.000026356015
 97       0.000301827947
 98      -0.000161430944
 99       0.000035399754
100       0.000013206368
101      -0.000019129393
102      -0.000254123698
103      -0.000143272911
104       0.000080095891
105       0.000033517394
106       0.000009712573
107      -0.000061823144
108      -0.000003237570
109       0.000002246731
110       0.000002079648
111      -0.000006379228
112      -0.000008765794
113      -0.000041020398
114       0.000008537241
115      -0.000023693609
116       0.000041832442
117       0.000068104127
118       0.000002321674
119       0.000012011014
120       0.000012393583
121      -0.000011631833
122      -0.000001561479
123       0.000002792314
124       0.000007091310
125      -0.000009039243
126       0.000047441736
127       0.001497709519
128      -0.007260002187
129       0.017703377282
130      -0.000042904651
131      -0.000088052763
132      -0.000091121364
133      -0.000036701014
134       0.001591499914
135       0.006248116583
136      -0.001340254614
137      -0.001731589460
138      -0.002190816299
139      -0.000275010614
140       0.000050793144
141      -0.000033911893
142      -0.000032337937
143       0.000051115000
144      -0.002341243429
145      -0.000117900531
146      -0.001440390535
147       0.000524632408
148      -0.000352616987
149       0.000176766356
150      -0.000071734432
151       0.000045198107
152      -0.000014009890
153       0.000041016377
154       0.000073671893
155      -0.000001805242
156      -0.448318590748
157      -0.626806770472
158      -0.037251185176
159       0.031183110805
160      -0.023059381971
161       0.000069943944
162      -0.000107028095
163      -0.000732017444
164      -0.000489357056
165       0.000849910771
166       0.005530082676
167       0.000494803263
168      -0.000103786242
169      -0.001870123504
170      -0.000084137461
171       0.000017906108
172      -0.000039182104
173       0.000012430217
174       0.000011831474
175       0.001994747520
176      -0.000259878570
177       0.000520627242
178      -0.000056343701
179      -0.000031173841
180       0.000154865130
181      -0.000048132138
182       0.000053476359
183      -0.000026355938
184       0.000024965125
185      -0.000125785214
186      -0.000099711858
187      -0.000017497132
188       0.000447569249
189      -0.001009317676
190      -0.000047431623
191       0.000038101755
192       0.000075599518
193      -0.000038679039
194       0.000686508813
195      -0.001068867737
196       0.000075243227
197       0.000011771952
198       0.000107757584
199      -0.000045328221
200      -0.000421357586
201      -0.002458672779
202       0.000122886527
203       0.000022997308
204      -0.000239140653
205      -0.000082389802
206      -0.000534776808
207      -0.001767840006
208       0.000046150627
209       0.000059548403
210      -0.000193020922
211      -0.000266144873
212       0.000833231731
213       0.002143116716
214       0.000430621699
215       0.000103200239
216       0.000139994749
217      -0.000255966958
218       0.000810729276
219       0.001845822938
220      -0.000342924391
221       0.000363033970
222       0.000106953317
223      -0.000279881939
224       0.000770567266
225       0.001697254947
226      -0.000146623733
227      -0.000387864895
228       0.000201629206
 Sym=     1a
 Ene= -1.02438580415103E+01
 Spin= Alpha
 Occup= 2.000000
  1      -0.000705602293
  2      -0.000981888288
  3       0.000574299916
  4      -0.009734429476
  5       0.005519187089
  6       0.000009929802
  7      -0.000043251305
  8      -0.000030358853
  9       0.001063435489
 10      -0.001000525872
 11      -0.006420195016
 12      -0.000813183687
 13       0.000139350334
 14       0.003723620877
 15       0.000019965161
 16       0.000051914214
 17       0.000046120682
 18      -0.000036002923
 19      -0.000094867273
 20      -0.000174273368
 21      -0.000549284791
 22      -0.000607088827
 23       0.000306063640
 24       0.001047376904
 25       0.000707481979
 26      -0.000232658953
 27       0.000474977321
 28      -0.000026253407
 29      -0.000156176393
 30      -0.000244940595
 31      -0.000010412429
 32      -0.466979991961
 33      -0.607924763973
 34      -0.037784010492
 35       0.012063793003
 36      -0.012673467995
 37      -0.000104316216
 38      -0.000136006009
 39      -0.000068392157
 40       0.002056251359
 41      -0.003473258756
 42      -0.014118156552
 43      -0.001238694390
 44       0.001068412356
 45       0.005840109774
 46      -0.000028713303
 47       0.000617082776
 48      -0.000511110263
 49       0.000021089125
 50      -0.002522676442
 51       0.005305395996
 52      -0.000358364973
 53       0.001045758273
 54      -0.000014189662
 55      -0.005960789348
 56       0.001440589219
 57       0.000393711253
 58       0.000204697199
 59      -0.000074891096
 60      -0.002406517979
 61      -0.000730126718
 62      -0.000470332986
 63       0.000044782660
 64       0.000284529910
 65      -0.003389385684
 66       0.011059702064
 67       0.000861283628
 68      -0.000540439270
 69      -0.000376507248
 70       0.000409743852
 71       0.005319873652
 72       0.003670899514
 73      -0.004221989801
 74      -0.000244083943
 75      -0.000646234927
 76      -0.001043898327
 77      -0.000006899199
 78       0.000086263869
 79       0.000078734112
 80      -0.000035202547
 81      -0.000001615143
 82      -0.000270175036
 83      -0.002272266474
 84      -0.001707241196
 85       0.000778194627
 86       0.001822303200
 87       0.000457665271
 88       0.000053685970
 89       0.000116403185
 90      -0.000171978911
 91      -0.000609028165
 92       0.000084940098
 93      -0.000375746674
 94       0.000051832343
 95       0.000288827485
 96      -0.003407670240
 97       0.011674710920
 98       0.001542166538
 99       0.000412994413
100       0.000539622068
101       0.000328325615
102      -0.004308250608
103      -0.005779476611
104      -0.003606938536
105       0.000470432752
106      -0.000020186937
107      -0.000962711041
108       0.000030038690
109      -0.000075171545
110      -0.000059753791
111       0.000027839160
112       0.000000276621
113      -0.000898313329
114       0.001592596311
115       0.001914175777
116      -0.000738293354
117       0.002175092511
118       0.000455451130
119       0.000033148780
120       0.000139824978
121       0.000101905352
122      -0.000547966704
123      -0.000425596328
124       0.000143897632
125      -0.000008518869
126       0.000011595438
127       0.000189847957
128      -0.001725028421
129       0.002898658011
130       0.000026985756
131      -0.000030313522
132      -0.000158891827
133       0.000458082871
134       0.001236358243
135       0.001680196830
136      -0.000878732191
137      -0.000926174561
138       0.001232492343
139       0.000069894144
140      -0.000013293928
141       0.000089462285
142       0.000006010615
143      -0.000043088445