37
 energy: -59.733839078723 gnorm: 0.196749452379 xtb: 6.7.1 (edcfbbe)
N            0.06495200000000       -0.17036600000000        2.24069000000000
C           -0.42508700000000       -0.28387700000000        0.86827900000000
C            0.36773000000000        0.64114900000000       -0.07116600000000
C           -0.13442900000000        0.59759400000000       -1.52314500000000
C            0.09666800000000       -0.71348800000000       -2.23073300000000
O            0.72724600000000       -1.73996500000000       -1.62853300000000
O           -0.27063500000000       -0.83895900000000       -3.38700000000000
H            1.07233000000000       -0.44720500000000        2.28653100000000
H           -0.04872800000000        0.81071300000000        2.58374800000000
H           -1.50104700000000       -0.00273500000000        0.84068300000000
H           -0.33838800000000       -1.34087900000000        0.54567800000000
H            1.44982600000000        0.38979400000000       -0.04170700000000
H            0.24571000000000        1.68308900000000        0.29572000000000
H           -1.21792700000000        0.84024100000000       -1.53588800000000
H            0.40005500000000        1.38331800000000       -2.09874700000000
H           -0.48827700000000       -0.80842500000000        2.85559100000000
O            2.30769100000000       -3.07589900000000        4.82066700000000
H            2.20277400000000       -2.09274900000000        4.87562300000000
H            1.77876200000000       -3.33778900000000        4.02551800000000
O            2.13455900000000       -1.72626200000000       -4.78931100000000
H            2.01781700000000       -2.58078200000000       -5.27591000000000
H            3.07501800000000       -1.46881600000000       -4.96214700000000
O            1.53156400000000       -3.09390100000000       -3.16982500000000
H            2.50782400000000       -2.99993800000000       -3.03308700000000
H            1.26089500000000       -3.81016300000000       -2.54187600000000
O            3.41129000000000       -1.70514000000000        0.16039000000000
H            2.47691600000000       -1.55458900000000       -0.13097100000000
H            3.86901100000000       -0.84579000000000       -0.02022700000000
O            2.99580200000000       -4.18409000000000       -1.23864900000000
H            2.33895600000000       -3.99642300000000       -0.52174900000000
H            3.63378900000000       -3.42801000000000       -1.19473000000000
O            2.47967000000000       -3.83891200000000        1.94763200000000
H            3.24954400000000       -3.50026700000000        1.42492200000000
H            1.68632200000000       -3.44709300000000        1.50300900000000
O            3.20161800000000       -0.95749100000000        2.58673300000000
H            2.73013500000000       -1.81229400000000        2.75294600000000
H            4.07272100000000       -1.22580900000000        2.19969500000000
37
 energy: -59.775376142255 gnorm: 0.094232442803 xtb: 6.7.1 (edcfbbe)
N            0.07028828109699       -0.16965009604451        2.24656750737716
C           -0.42462004740040       -0.28001898545188        0.86367949854223
C            0.36373880927908        0.65453590113837       -0.05628669903778
C           -0.12754398744394        0.61418111880242       -1.50382353631201
C            0.10437201997436       -0.70798643955329       -2.21152909023202
O            0.66740141265408       -1.64944439477244       -1.52329071352120
O           -0.29579800983303       -0.85635467646696       -3.37372071198064
H            1.07404295734937       -0.43115221037726        2.29187169776542
H           -0.03824295147337        0.80000582536966        2.58583057644098
H           -1.48705492349265       -0.00553518143133        0.82978822469197
H           -0.33333609930522       -1.31773297939397        0.51894852387357
H            1.42933262477470        0.39201031139471       -0.04160911356927
H            0.25396462255932        1.68697552448281        0.29813062192620
H           -1.20305895256301        0.83558209171230       -1.54965125269882
H            0.39188510080535        1.37746446559229       -2.10000475643200
H           -0.47377969615875       -0.79765904814633        2.85826255092059
O            2.29426904058683       -3.06584939421911        4.82877818500143
H            2.20500159409607       -2.09748963524217        4.87287790541958
H            1.80143598884476       -3.34253964410032        4.03459677456844
O            2.15406018017126       -1.67150182045395       -4.88702576046692
H            2.02686696220327       -2.55888627283788       -5.27769902318765
H            3.10163490631320       -1.47361167176575       -4.99740278137329
O            1.54647826296865       -3.21426646290116       -3.22684837755490
H            2.48576463876614       -3.03567034633433       -3.01502341987975
H            1.26236949500918       -3.83994354237662       -2.53288458428211
O            3.40489792134521       -1.70335270157662        0.12735310667686
H            2.48707026759567       -1.56812016714998       -0.17772940929912
H            3.85485713154534       -0.85870861699317       -0.03519489248379
O            3.03926556163201       -4.21587813434878       -1.19138726392141
H            2.34774963257819       -4.00336975282360       -0.53798007824043
H            3.62419178120826       -3.43548863323691       -1.17966893060743
O            2.46605270479724       -3.80158303696992        1.96053523690906
H            3.23112546236631       -3.51046080781713        1.42919464267494
H            1.68998166463835       -3.45650713360966        1.48568954609704
O            3.17976853669136       -0.95858604725050        2.62080778962413
H            2.75065776163919       -1.82420696616377        2.75920108267877
H            4.03758634418078       -1.19140843868337        2.22530092389235
37
 energy: -59.791608462521 gnorm: 0.039717335665 xtb: 6.7.1 (edcfbbe)
N            0.08155989625625       -0.16531964620130        2.25253834865591
C           -0.42062842263633       -0.26467347750096        0.86115783986274
C            0.36638196653564        0.67515876041465       -0.04376721869563
C           -0.12652317756114        0.62114747972617       -1.48361486736306
C            0.06930600238784       -0.74977907143706       -2.16241526265776
O            0.71172845480179       -1.59308705110974       -1.50425271061096
O           -0.31734348729454       -0.86137241725392       -3.34101437732086
H            1.08482986062848       -0.41159071570489        2.29374818840511
H           -0.02244830530428        0.79603683116465        2.59052734901056
H           -1.47546650936816        0.00082514610668        0.82703322618202
H           -0.31691713226084       -1.28537356289652        0.49257048718776
H            1.41864356633606        0.39777297947782       -0.03938001669988
H            0.26520594959544        1.70130781649179        0.30316484053501
H           -1.19394422055187        0.84065102994381       -1.54912798568883
H            0.38438730385348        1.36492482504075       -2.10115846904350
H           -0.45380073940195       -0.78854148294120        2.86172480030201
O            2.27462297887424       -3.05499743646881        4.85481383733856
H            2.20886810387563       -2.09468754076220        4.87255967456231
H            1.84151220022493       -3.35569789217755        4.04379908584642
O            2.18735821491110       -1.62409032742948       -4.96371006776864
H            2.01640564336690       -2.52490004021965       -5.28355450987186
H            3.13942287366421       -1.48679159664937       -5.04799426944606
O            1.54586227891765       -3.31128093805853       -3.26250984282034
H            2.45563821718776       -3.08534927016348       -3.01407878716513
H            1.24825276683855       -3.87497339007279       -2.53408163085031
O            3.38392368785252       -1.69925317024641        0.09091241149461
H            2.48578597825100       -1.58482077254797       -0.25430004998238
H            3.83850461475699       -0.87188728434452       -0.06848966218573
O            3.07529685732914       -4.23823519060970       -1.15637384878500
H            2.36067932183883       -4.02887968053104       -0.54425181258550
H            3.63602522481863       -3.45495407943325       -1.14053568124650
O            2.43917109629425       -3.73881305964315        1.99006349024244
H            3.20943499585672       -3.52725364843411        1.43789145383522
H            1.67910349785606       -3.46355028127018        1.45707882461577
O            3.12149004899320       -0.95901388473371        2.64639719160431
H            2.76893585832208       -1.85679828779363        2.77244804469792
H            3.99141153395438       -1.12406767173157        2.26483597640980
37
 energy: -59.802181034607 gnorm: 0.067897301673 xtb: 6.7.1 (edcfbbe)
N            0.10004303037648       -0.16007639804433        2.25723078987200
C           -0.41054649118070       -0.24504935160425        0.86174920434974
C            0.37020619731473        0.70358833842365       -0.03595874917079
C           -0.12154079570593        0.63657576413081       -1.47430116928302
C            0.14888642015757       -0.75147462009625       -2.14960096585552
O            0.72124909424452       -1.59373637074536       -1.46318286628218
O           -0.38497334946234       -0.89654688335502       -3.28018998770384
H            1.10631205416028       -0.39544230158234        2.29192819074293
H           -0.00163934475139        0.79799410734422        2.59717280779071
H           -1.46515298522818        0.01130798193445        0.83528083504209
H           -0.29370245552208       -1.25557394186998        0.47674580130766
H            1.41723516955338        0.41836729455654       -0.03526614346127
H            0.27143342105978        1.72640987313824        0.31268619569792
H           -1.19271570288273        0.83245435011120       -1.55339512519883
H            0.37652695914533        1.37536090678801       -2.10147787517517
H           -0.42801648061034       -0.78468010379896        2.86640984080995
O            2.23633791655829       -3.05030177383802        4.90430779776211
H            2.22237775420952       -2.08604105625689        4.86242046096166
H            1.90109462949396       -3.37649730561909        4.04654183907465
O            2.22160238236756       -1.57266097131586       -5.04089923812306
H            1.99756354088948       -2.49201201531889       -5.27954316826392
H            3.18614610086220       -1.50837741419535       -5.10242480828375
O            1.54200465205577       -3.41292406709206       -3.30399484903802
H            2.42369838496958       -3.13006197196506       -3.01282882956983
H            1.22419666105858       -3.92230147998207       -2.54770861516503
O            3.35069943449161       -1.69540556427988        0.05706205280911
H            2.47527424613092       -1.60336296449372       -0.35594563185928
H            3.82135632074970       -0.88321121312119       -0.11322087916088
O            3.13493562524337       -4.27719216804505       -1.10422149150401
H            2.36214597470622       -4.06206602747620       -0.55907815247377
H            3.65126673711090       -3.46236338650330       -1.09813636375432
O            2.40435989489703       -3.67041140488127        2.02128910247973
H            3.18733598516499       -3.54367289899804        1.45344967634718
H            1.66005102382854       -3.46233879360142        1.42988074751550
O            3.03882579278567       -0.95968507719528        2.68121334991580
H            2.77676189427960       -1.90462174661088        2.77174059277781
H            3.93103730747942       -1.02617734454171        2.30291962407101
37
 energy: -59.811053154696 gnorm: 0.054748174174 xtb: 6.7.1 (edcfbbe)
N            0.12480509771593       -0.15536096642731        2.26170646347694
C           -0.39751110098712       -0.22531454768781        0.86944318240305
C            0.37280851950231        0.73074384765189       -0.03146248555077
C           -0.12707286513483        0.64619236966219       -1.46932776052605
C            0.13697094575233       -0.77560107100558       -2.10997990219073
O            0.79482233672408       -1.58053496539347       -1.42181731371625
O           -0.38919729846842       -0.93054291117052       -3.23425335227241
H            1.13534408145364       -0.39021476331251        2.28795353397309
H            0.02457285453130        0.80245924959408        2.60947513151735
H           -1.45636357647326        0.02546502892121        0.85552659276389
H           -0.27578775242168       -1.23285923661332        0.47559874587050
H            1.42140161319544        0.44173699604423       -0.03151994291008
H            0.27925150263440        1.75610778366041        0.31996906708275
H           -1.19858958942525        0.83703241821336       -1.55226420074179
H            0.37934481764970        1.36707204893958       -2.11364785113403
H           -0.39775920122203       -0.78716643871614        2.87173603140997
O            2.20784598133513       -3.05353780842939        4.95064292409584
H            2.25361694114420       -2.08220676186486        4.84863634923238
H            1.94670594313943       -3.39455569018826        4.06332615769334
O            2.26116847516959       -1.53545081974205       -5.09230586282809
H            1.98180846014541       -2.44986877495725       -5.28705504239455
H            3.22986069082661       -1.52489333730217       -5.15752543530044
O            1.54538930919369       -3.50948112480152       -3.34587796355036
H            2.40652849626249       -3.19781532456095       -3.02540874317358
H            1.19004549626073       -3.97750598557080       -2.57574574574265
O            3.31363160677050       -1.69509798887059        0.01393526278636
H            2.45703788457970       -1.60677497682313       -0.44993773205275
H            3.80931890024437       -0.89331558924913       -0.16397110995352
O            3.17617340931155       -4.29588314874187       -1.07094644038011
H            2.36309700736305       -4.10232646073495       -0.56942355914355
H            3.66540817949628       -3.45964460143494       -1.04845416008157
O            2.36888845825295       -3.64449251824171        2.01608155342589
H            3.16224896902150       -3.53274719663550        1.47800539194968
H            1.63844296499641       -3.42801416476572        1.43951596413541
O            2.96216924705609       -0.95402814141174        2.72481913701572
H            2.73886555846576       -1.91976489438499        2.74538849970585
H            3.85738463593942       -0.95401753364958        2.33781861510661
37
 energy: -59.813980389603 gnorm: 0.087147903759 xtb: 6.7.1 (edcfbbe)
N            0.15600392021696       -0.14663942089280        2.26910275834682
C           -0.37979518252128       -0.20244214180312        0.88501436239440
C            0.37880727075983        0.76002913033001       -0.02228172481461
C           -0.12620348420483        0.65182465723896       -1.45970289438826
C            0.11954763581697       -0.79331151420970       -2.07235661897761
O            0.86813773600483       -1.57145844862338       -1.39271816652071
O           -0.39317992394764       -0.96761779036404       -3.18251855436953
H            1.17260381072987       -0.38739078016814        2.28876929126533
H            0.05701460513359        0.81152360410293        2.62774267357348
H           -1.44471109992681        0.04330141649692        0.88470319042697
H           -0.25615330960085       -1.20900451255453        0.48441396550401
H            1.43292580008191        0.47552850372877       -0.02184248600645
H            0.28493115214047        1.79069009661041        0.32853048410980
H           -1.19810340933704        0.83633136399771       -1.54543374213932
H            0.39040684642531        1.35415780286336       -2.12050989022651
H           -0.36086481318049       -0.78812096825797        2.88048470886546
O            2.25854792943016       -3.05003628820250        4.92483535668790
H            2.26370081289665       -2.09760634099588        4.86867097548635
H            1.94571268504466       -3.40386942738170        4.11031081819334
O            2.30523337341593       -1.50116253217139       -5.14596847097565
H            1.97706617302917       -2.39765754815360       -5.29485423310663
H            3.26484020954895       -1.52904067305855       -5.22429385179835
O            1.55798334478967       -3.63213037973949       -3.39264757603846
H            2.39086703038457       -3.28042137007659       -3.04223486599452
H            1.15264564087519       -4.05387428684745       -2.61943747462022
O            3.27085882642263       -1.69159158042329       -0.03559241339765
H            2.42979960844674       -1.60680417327650       -0.52695481705244
H            3.78959732700379       -0.90054105770311       -0.23530142458123
O            3.18765261846241       -4.29356582120757       -1.06613326355351
H            2.38830913121137       -4.16241885630310       -0.56206427555647
H            3.68836734082051       -3.47189890493907       -0.99038483888404
O            2.33051283501013       -3.51012253418446        2.09313527360462
H            3.13767379034178       -3.56647267197445        1.49343043919574
H            1.60875037213341       -3.43662950887404        1.39918726244863
O            2.88652114746890       -0.94299730057596        2.75122985006496
H            2.66350552337001       -1.89230866722997        2.71151828713158
H            3.76316372530420       -0.91845907517771        2.37080588570452
37
 energy: -59.819701253765 gnorm: 0.073260112952 xtb: 6.7.1 (edcfbbe)
N            0.17588024594655       -0.14238911011531        2.27623967200344
C           -0.36759707080107       -0.19261596292942        0.89830360773850
C            0.38732097628449        0.77014759998309       -0.01029415542947
C           -0.11013419248013        0.64592548800355       -1.44591098803103
C            0.13962311195508       -0.78593400497822       -2.06946630619442
O            0.86078285170284       -1.57777771941360       -1.40642279577962
O           -0.40838821393101       -0.98147246296068       -3.15730285224424
H            1.19503602076984       -0.39009799235975        2.29476551170278
H            0.07941545053353        0.81271485487657        2.64241949927148
H           -1.43262639731702        0.05252826486974        0.90305367920525
H           -0.24636713559474       -1.19707169895671        0.49281437041951
H            1.44404630714761        0.49794982607237       -0.00990578685276
H            0.28352372871386        1.80289883877157        0.33192472902509
H           -1.18207024510972        0.82541906463015       -1.53727802703119
H            0.40173157044523        1.34576689902838       -2.10996601415577
H           -0.33712227291140       -0.78785978614382        2.88609959123345
O            2.25604414690113       -3.04701141851287        4.94538151692027
H            2.27693290075890       -2.10144490861515        4.86710628820630
H            1.97580473373415       -3.42077992403103        4.13121068436784
O            2.33185085491362       -1.47830456073652       -5.17584270079798
H            1.97869766494316       -2.36786243001372       -5.28505408140513
H            3.28543613920899       -1.53479088124995       -5.25805198321052
O            1.56472044383480       -3.69992271821110       -3.42071596533078
H            2.37894629947185       -3.33679376433158       -3.05575684541671
H            1.12397224153937       -4.10393505764588       -2.66816221646908
O            3.25834094791295       -1.68386171480541       -0.05890699320255
H            2.42277681864825       -1.60447219655839       -0.54810909020897
H            3.78032666895452       -0.90246396814034       -0.28037729312213
O            3.20073197440823       -4.28913289168721       -1.05863567998433
H            2.38917377989170       -4.19294004278540       -0.57374795360505
H            3.68843458334299       -3.46274883159069       -0.94804176405724
O            2.31122759688757       -3.57986498898684        2.01381597787728
H            3.11624114637165       -3.50728868126926        1.52789842719031
H            1.59421161314577       -3.38142134780422        1.44690035590294
O            2.83030043399951       -0.93085361096955        2.75960626923316
H            2.61477182471952       -1.87110514837807        2.68556469066264
H            3.70067945105849       -0.88334101205542        2.39349862157043
37
 energy: -59.811833934515 gnorm: 0.134661192509 xtb: 6.7.1 (edcfbbe)
N            0.19061610152542       -0.12674108276223        2.28360974006789
C           -0.35556597530943       -0.18430700562394        0.91065532985362
C            0.39767798260925        0.76979973951481       -0.00504246122668
C           -0.09151365415971        0.62958200632286       -1.43744841589574
C            0.15636280174193       -0.77785011217333       -2.07449374510971
O            0.84013489177467       -1.58589259225729       -1.44265520890965
O           -0.42292662626215       -0.99558684459115       -3.14997171650480
H            1.21034352392253       -0.37924738070659        2.30476943537905
H            0.09594571898210        0.82356611658642        2.65211851922766
H           -1.41668075659954        0.06374888425212        0.91504683760459
H           -0.24191216127468       -1.18908263754154        0.50787184637983
H            1.45593459514313        0.51704344683339       -0.00056361944631
H            0.27663739551869        1.80382789761320        0.31986676424381
H           -1.16302115062825        0.81293486363759       -1.52906656813741
H            0.40684714548104        1.33505522175757       -2.10286124177496
H           -0.31819570394030       -0.77159436698382        2.89231110264346
O            2.11658487293924       -3.05040713285256        5.07801645772775
H            2.31522423913099       -2.06897869186005        4.79632659812533
H            2.09976424545852       -3.45610871027584        4.07484177455799
O            2.33497089301497       -1.46018075981918       -5.19860007516127
H            1.95979644428886       -2.37011023169970       -5.25007444616849
H            3.30012529873689       -1.56806162593732       -5.28096732697951
O            1.58076169704288       -3.72379780220067       -3.44233298604134
H            2.38472627693100       -3.35952579056259       -3.05003891311115
H            1.10841701283011       -4.11507567657970       -2.70062496066197
O            3.25173532994503       -1.66652605274174       -0.04632832926354
H            2.41569787974901       -1.61978131751569       -0.55147221910546
H            3.75625534564956       -0.89571231283432       -0.31614526754903
O            3.26087063962765       -4.32516701014020       -1.02829185344680
H            2.36696583697423       -4.22194014284668       -0.61418586244393
H            3.68022465796272       -3.44396699151003       -0.91472594797764
O            2.28613513520290       -3.54851409815217        2.04100137983318
H            3.10948864739720       -3.53191125725459        1.55046764681059
H            1.57988696718785       -3.37773861119973        1.42189101883008
O            2.75959654529009       -0.93104810041270        2.77445415413891
H            2.61124041753873       -1.91859243584516        2.63553327476739
H            3.66352448857896       -0.77431940163819        2.39576328472629
37
 energy: -59.825477383607 gnorm: 0.061709755706 xtb: 6.7.1 (edcfbbe)
N            0.19548288024495       -0.12497507201949        2.28768624804042
C           -0.34934179061911       -0.18207265997175        0.91448814872679
C            0.40182360125114        0.77103398581082       -0.00561796960171
C           -0.09078910076399        0.63166091832245       -1.43982296595186
C            0.14413861730181       -0.78352468483318       -2.06928937068552
O            0.86415995961297       -1.58956104204171       -1.43768925578513
O           -0.43469560191928       -0.99983836273425       -3.14477805997628
H            1.21729153444257       -0.37798604532299        2.31056265964849
H            0.10137494847183        0.82570389774028        2.65744938603986
H           -1.41132291166812        0.06739505567018        0.91982521408996
H           -0.23733760166853       -1.18815787185595        0.51259780713925
H            1.46212305344072        0.52122298815543        0.00679962490232
H            0.27697478459372        1.80567014399186        0.31947535215611
H           -1.16246157826189        0.81629344783012       -1.52583733773756
H            0.41195493233238        1.33651345499706       -2.10414534368847
H           -0.31240509251225       -0.77091691725968        2.89732986578141
O            2.24674912971004       -3.03844141444477        4.97707476720238
H            2.27316303844540       -2.09059255624771        4.85139684199557
H            2.02481094139744       -3.45199906862693        4.12831124199554
O            2.34491859210038       -1.45512077604835       -5.20482148183122
H            1.96438210617053       -2.35624602202282       -5.25232243648534
H            3.30865209916836       -1.56796460236797       -5.28932447908397
O            1.58761563506190       -3.75188501578768       -3.46413364782511
H            2.38365308726204       -3.37587146600550       -3.04277969417893
H            1.09135397503071       -4.12433292142895       -2.71381098062338
O            3.24785242990956       -1.66180570541673       -0.04732897800580
H            2.41144781512953       -1.62542868265783       -0.56189382461717
H            3.75365274459117       -0.89372681553919       -0.33482385842098
O            3.26658109178961       -4.32637750187811       -1.02376431372069
H            2.37108552372184       -4.23067215788635       -0.61546738681999
H            3.67819916540043       -3.44120688879823       -0.90344788576368
O            2.27590190520928       -3.52996800203348        2.04949877606741
H            3.10773039954856       -3.54416536469760        1.54904304459167
H            1.57359921475067       -3.37232181631578        1.41126153400040
O            2.74007467734657       -0.92694793332683        2.77792769559670
H            2.59507795395167       -1.91309206277505        2.63082146802765
H            3.63920484002689       -0.76250246217409        2.39820359480280
37
 energy: -59.812367056621 gnorm: 0.176343067501 xtb: 6.7.1 (edcfbbe)
N            0.20073973767186       -0.12556837384078        2.29398054485870
C           -0.34153993886083       -0.18045776636655        0.92077258976039
C            0.40687174436950        0.77509708743905       -0.00200623590927
C           -0.09130847937606        0.63849076062777       -1.43811680927349
C            0.13250381453858       -0.78643604814999       -2.05530766094830
O            0.88893639288416       -1.58665935677354       -1.40909990605310
O           -0.45620219079647       -1.01234667805794       -3.12086313626412
H            1.22818553001126       -0.38213515013621        2.32199288712019
H            0.10821335873410        0.82597181558093        2.66669833320221
H           -1.40566197154467        0.06984225092872        0.92719362654780
H           -0.22907650534671       -1.18815282011369        0.52015134252733
H            1.47012182217865        0.52640054665760        0.01821563317011
H            0.27963621403501        1.81090826508766        0.32410956610378
H           -1.16309726277595        0.82258771586532       -1.52047291364401
H            0.42148829429591        1.33699876226676       -2.10310150049439
H           -0.30559390407367       -0.77378975916216        2.90514377081270
O            2.22156481105643       -3.05228080051831        4.99468561353900
H            2.31921762177160       -2.10145132210768        4.82964536257279
H            2.03854031801655       -3.44760262550071        4.14993658498005
O            2.37072944283314       -1.46424526391013       -5.19681028509838
H            1.99829223471363       -2.30993974783341       -5.28379695969305
H            3.30011697669746       -1.52690616562049       -5.30614988203915
O            1.58954452282477       -3.79210150992259       -3.46412933493395
H            2.37520829725401       -3.44330796374150       -3.07415303549232
H            1.07762517461680       -4.17743789258247       -2.76340786015288
O            3.24727518509734       -1.66602222284419       -0.09259994839311
H            2.40275101981663       -1.61200275042081       -0.55292452241502
H            3.76013777274126       -0.89696842531849       -0.36458816150673
O            3.18077175958156       -4.26463992844981       -1.07369135884667
H            2.43959674412474       -4.23552280352822       -0.55048345960619
H            3.68649652670546       -3.47512059818892       -0.90021994057933
O            2.27231073209220       -3.48933563441638        2.05695345871605
H            3.09096913406398       -3.54076218389395        1.53772085409852
H            1.56675856679429       -3.37160757388057        1.40841141041759
O            2.76904338918476       -0.90359332585776        2.73912379220775
H            2.51899110613490       -1.78694717057275        2.67743815419218
H            3.59251900793472       -0.89516334274406        2.39840338651834
37
 energy: -59.828305253990 gnorm: 0.041109962205 xtb: 6.7.1 (edcfbbe)
N            0.20293116698553       -0.11702922431400        2.29696521342402
C           -0.33885798436966       -0.17655858770847        0.92347869592065
C            0.41051007713930        0.77579773568676       -0.00043555704694
C           -0.08531330909929        0.63087830872307       -1.43490716543062