37
 energy: -59.878885546989 gnorm: 0.000369100641 xtb: 6.7.1 (edcfbbe)
N            1.24674898166238       -0.91218702281703        0.05140722291696
C            1.29618356087437        0.45965026606418       -0.49167031230617
C           -0.01540559709688        1.22132991101555       -0.32582294580550
C           -1.26154982878186        0.44809714222826       -0.79274573727650
C           -1.00856497606248       -0.40406824724714       -2.04321469005500
O           -1.21235847487131        0.09261705150497       -3.17310274034933
O           -0.59578096979871       -1.57384514157010       -1.85056367992390
H            2.18232811206382       -1.36634443398708       -0.13048626396533
H            1.02606460469468       -0.91675786684726        1.04683968429833
H            2.09414290822558        1.01758112126218       -0.00355370627158
H            1.53675598893268        0.38905522291504       -1.55156932923080
H            0.08012066244756        2.13982892726058       -0.90527698959290
H           -0.16349161754486        1.50292093727834        0.71762187350926
H           -1.60592638851496       -0.23158465675558       -0.01045142385515
H           -2.06280863678804        1.15236763342368       -1.01856667286999
H            0.52234332595345       -1.43635301615257       -0.48491941981674
O           -0.01515805506289       -3.37618871044363       -5.76734092266756
H           -0.64456265453449       -2.63061091103700       -5.69798562599271
H           -0.54697480113122       -4.15549488932046       -5.95282616067157
O            1.80838967229148        3.26386372132624       -2.28019101674628
H            1.61228257749263        2.58828745659253       -2.95766517673770
H            2.63210261951892        3.67674403859133       -2.55563391844708
O            1.21853001144367       -2.98862064588263       -3.33167911787103
H            0.47642891159739       -2.58009095366731       -2.84280047178372
H            0.86339284512007       -3.19678174057252       -4.21635280599391
O            1.29435653256994        1.15754865670735       -4.01183688124450
H            0.40146493420443        0.82794092828586       -3.82652608931216
H            1.90507537039630        0.41366353725534       -3.82472591601180
O           -1.78337422740683       -1.30178032028056       -5.43845866695933
H           -1.91550476922337       -0.61495450356632       -6.09904609735236
H           -1.58742623683823       -0.83128952861756       -4.60011200743226
O            3.63146689230735       -1.82371896205552       -0.80545109489205
H            3.52334597965531       -1.43623177785905       -1.69667178251816
H            3.75022315407901       -2.76910565240720       -0.93499276339470
O            2.95135039878672       -0.98972586132251       -3.36256380929726
H            3.57921916680373       -1.15910518475707       -4.07068808828166
H            2.30508402258861       -1.74402652464450       -3.38719145582992
