37
 energy: -59.739631706808 gnorm: 0.178588434119 xtb: 6.7.1 (edcfbbe)
N           -0.44376700000000       -0.47181200000000        1.74520500000000
C            0.69351000000000        0.10436000000000        1.02689900000000
C            0.25232500000000        0.99958500000000       -0.14624500000000
C           -0.57382300000000        0.30680200000000       -1.24485700000000
C            0.17276200000000       -0.78812900000000       -1.95771100000000
O            0.40822200000000       -0.68794500000000       -3.15102700000000
O            0.54634400000000       -1.90328400000000       -1.30373900000000
H           -0.08747200000000       -1.00411400000000        2.57127000000000
H           -1.08118400000000        0.28586300000000        2.08138600000000
H            1.28097900000000        0.73286000000000        1.73117400000000
H            1.36804500000000       -0.70373400000000        0.67713900000000
H            1.15866700000000        1.44313000000000       -0.61117500000000
H           -0.35578800000000        1.83434200000000        0.26527400000000
H           -1.51736400000000       -0.10080200000000       -0.82923500000000
H           -0.85273400000000        1.08677100000000       -1.98587200000000
H           -0.96872000000000       -1.13389300000000        1.13151600000000
O           -1.76147500000000       -3.49780300000000       -1.89332900000000
H           -1.85523300000000       -2.55626800000000       -2.18544500000000
H           -0.79701900000000       -3.60077700000000       -1.69374100000000
O           -3.42030100000000       -2.27200300000000       -0.57865800000000
H           -4.32400000000000       -2.43989800000000       -0.21021600000000
H           -3.34910000000000       -1.28522200000000       -0.62116800000000
O           -2.44600800000000       -3.97271800000000       -4.20853200000000
H           -1.46899000000000       -4.12862000000000       -4.16680600000000
H           -2.55247400000000       -3.24006900000000       -4.86618200000000
O           -1.04460400000000       -1.99694500000000       -5.86596600000000
H           -0.76758800000000       -2.53847800000000       -6.64738400000000
H           -1.29092400000000       -1.11736900000000       -6.24843900000000
O           -3.52259500000000       -1.79771500000000       -3.52336000000000
H           -4.38813700000000       -1.45575700000000       -3.18496400000000
H           -3.07384200000000       -1.00203500000000       -3.90562700000000
O            0.13014800000000       -4.06081200000000        1.99228300000000
H           -0.24150400000000       -3.16531000000000        2.19368300000000
H           -0.65077800000000       -4.59253000000000        1.69556000000000
O           -2.74036000000000       -3.52408600000000        1.88451900000000
H           -2.54246700000000       -2.59182100000000        1.61557500000000
H           -3.43223600000000       -3.82568900000000        1.24346000000000
37
 energy: -59.769462991267 gnorm: 0.094748050053 xtb: 6.7.1 (edcfbbe)
N           -0.44073477188887       -0.47127118991961        1.74512535022162
C            0.70291988917181        0.11228688351848        1.02616012565084
C            0.25106233123415        1.00270901097762       -0.13394121873645
C           -0.56926206835308        0.30482254574348       -1.22857568096873
C            0.17372928028619       -0.80280146378648       -1.95989804651716
O            0.42904174436023       -0.67758584752384       -3.16497998640945
O            0.53963296815778       -1.84436661932177       -1.28323273374061
H           -0.09618137976408       -1.00046752033808        2.56184121395565
H           -1.07954732639352        0.27293628416555        2.07231484593242
H            1.28444807814866        0.72864584139359        1.72300097632559
H            1.34663853546039       -0.69576017387242        0.65585372817215
H            1.14485222093183        1.43366449579078       -0.60128341883703
H           -0.34807560836732        1.83415820500974        0.26116419315572
H           -1.50165830100738       -0.10885332468543       -0.82473616055175
H           -0.84299508793452        1.05786150624668       -1.98210628784925
H           -0.94653124372008       -1.12407300141091        1.12341612504439
O           -1.71469916836049       -3.52339830185468       -1.82939604039719
H           -1.86262699478723       -2.63036423713300       -2.20165134698542
H           -0.75500888865735       -3.56677474970673       -1.67626148914078
O           -3.43723633857017       -2.23175310785199       -0.48613880605055
H           -4.36110793869711       -2.40918793780884       -0.22558964237756
H           -3.39690670645103       -1.26713584188149       -0.63267481850794
O           -2.44967025560287       -4.07298388398361       -4.33036870002014
H           -1.48177867587227       -4.11924040984008       -4.15703732433602
H           -2.53247740207226       -3.23861759985109       -4.85152482871346
O           -1.07711835337810       -2.00172630704274       -5.89069443444568
H           -0.75936140171433       -2.52612671295094       -6.64621447416000
H           -1.27487469383995       -1.12426311344884       -6.25842124194855
O           -3.53359782092161       -1.75074802165624       -3.51128823029249
H           -4.39815490674076       -1.43191617638001       -3.20364994360318
H           -3.08522038859070       -0.98446645832417       -3.90243643576905
O            0.12905335409946       -4.05988745316277        1.98775126878182
H           -0.25054453267954       -3.19262817574456        2.20274417649546
H           -0.63616184486077       -4.58579720356412        1.70114333287590
O           -2.75591894141635       -3.50847133296631        1.90446828593140
H           -2.56321520064729       -2.60801309574986        1.59144565677323
H           -3.39019716056138       -3.85033051108527        1.25093701104218
37
 energy: -59.781643223072 gnorm: 0.045229952370 xtb: 6.7.1 (edcfbbe)
N           -0.43877172358539       -0.47128537111840        1.74202568414439
C            0.71216041877645        0.12207465666635        1.02066704597918
C            0.25128902441090        1.01286051600774       -0.12573043277255
C           -0.56180642407137        0.30821798736944       -1.21535811350018
C            0.23299545368766       -0.80167463169436       -1.94131114713554
O            0.43516843984483       -0.66261623918449       -3.17045454939536
O            0.50542285522695       -1.80987282187353       -1.27806559051851
H           -0.10487839522169       -0.99693524317098        2.55150134631590
H           -1.08235060122006        0.26025125609959        2.05641899943216
H            1.29136305385513        0.72207538938416        1.71445985093366
H            1.32392439419119       -0.68810401984919        0.62783074096050
H            1.13553389587200        1.43469798467902       -0.59516960845016
H           -0.34621153983971        1.83646614032867        0.25814658845404
H           -1.47501306408607       -0.13341748967365       -0.82059168623152
H           -0.84020747691775        1.03735586044136       -1.97736800880306
H           -0.91986929835397       -1.11552447407792        1.10624132842338
O           -1.66715854242141       -3.56716010641523       -1.80755859712768
H           -1.89466368672277       -2.70910664923880       -2.19195132140925
H           -0.71999416533338       -3.52708977822215       -1.63853763224718
O           -3.46941238903316       -2.16794346282349       -0.40845718937791
H           -4.39648682121138       -2.37203469628259       -0.23287707706071
H           -3.45323121621969       -1.23049009866136       -0.64076829276445
O           -2.43925435080927       -4.09093402423394       -4.35886208030039
H           -1.50938905929645       -4.16606631456553       -4.18206278869464
H           -2.52051852486475       -3.28194016729614       -4.86328741016657
O           -1.10952417140640       -2.00163441514144       -5.91699839739991
H           -0.75160668373662       -2.52076055588546       -6.64057289955523
H           -1.25597951617223       -1.12495515066355       -6.27317131641764
O           -3.51924304812270       -1.69442235123756       -3.47875948603920
H           -4.41150442732712       -1.41963438388840       -3.24586238349551
H           -3.09136676647434       -0.95815326847212       -3.90962706748539
O            0.13050864536395       -4.05620730817821        1.97881633088108
H           -0.27139364641218       -3.22335315398229        2.22594473566555
H           -0.61302154268045       -4.59125680761677        1.70195319515312
O           -2.75677078439983       -3.49528191864481        1.92382324837913
H           -2.59388643968004       -2.62242015947610        1.55340377809590
H           -3.34433687560900       -3.89564972940753        1.27743520353025
37
 energy: -59.789375285146 gnorm: 0.088287265944 xtb: 6.7.1 (edcfbbe)
N           -0.43698564721508       -0.47382958683463        1.73388382345605
C            0.71626130704509        0.12649125114116        1.01217255534527
C            0.25076345663653        1.02395668665756       -0.12688086809957
C           -0.56386219475790        0.31768531261130       -1.21476476895074
C            0.22309115337363       -0.82240976872765       -1.93624030575510
O            0.47504513827548       -0.63634459631827       -3.15373306002661
O            0.54124236673986       -1.78950759432855       -1.25086851972662
H           -0.10631204737134       -0.99908791794432        2.54410076026325
H           -1.08877312740609        0.25298146907100        2.04004170925889
H            1.30233286661413        0.71480211674568        1.70997729786951
H            1.31453317534025       -0.68627671041906        0.60573637833809
H            1.13573577264083        1.44454839024467       -0.59750847323630
H           -0.34442358806630        1.84671575305773        0.26335920817426
H           -1.46589445207996       -0.14021509315425       -0.81572752309723
H           -0.84525900020259        1.04091149182501       -1.97823187203575
H           -0.90180481011072       -1.11692789426837        1.08542786007300
O           -1.62910574724659       -3.62122360947266       -1.77945876248714
H           -1.95383976684215       -2.79733816144311       -2.20332382334123
H           -0.67717211781622       -3.47339308542509       -1.60377269504711
O           -3.47838596370973       -2.10237824884698       -0.31063182461542
H           -4.43204746017062       -2.34022313172179       -0.25070308939742
H           -3.51336463562753       -1.18183203815970       -0.67188886639600
O           -2.45196303493541       -4.17877103921331       -4.46100989238050
H           -1.52281460450500       -4.18092424504223       -4.13379246769940
H           -2.49829143868540       -3.26380877146148       -4.84091746295473
O           -1.18538712011532       -2.01870572510190       -5.94576302278246
H           -0.72739198720529       -2.52081256493784       -6.64142442134623
H           -1.22397389152971       -1.11094629733806       -6.29123184077678
O           -3.48675861188446       -1.64737937169596       -3.40986258881705
H           -4.43670710021823       -1.40729990182026       -3.30486052250312
H           -3.09298319571414       -0.93811101523559       -3.93255230464622
O            0.14046917706810       -4.04345258600906        1.95572681064021
H           -0.31124681393636       -3.24909873267883        2.27612841524480
H           -0.58314657864133       -4.61836068468709        1.69697641094706
O           -2.75818644532495       -3.47332896194962        1.95493598531513
H           -2.62899545418793       -2.62396879370024        1.49219048792667
H           -3.29388257822778       -3.97406134341752        1.30975627326615
37
 energy: -59.792153359927 gnorm: 0.087196995651 xtb: 6.7.1 (edcfbbe)
N           -0.43508568539551       -0.47670866491865        1.72129462943138
C            0.71855230747970        0.13005027082649        1.00262189462022
C            0.24904876315306        1.03575789241024       -0.13026071089971
C           -0.56448860245993        0.32571279053134       -1.21805573989562
C            0.21535228846172       -0.83542758854266       -1.93489929659743
O            0.51396043367308       -0.62430456860403       -3.13852247731322
O            0.57751968998283       -1.78431354270124       -1.21669061366958
H           -0.10576827639399       -1.00220367108933        2.53472491089524
H           -1.09710584752197        0.24650741400544        2.02109284650345
H            1.31316754650642        0.70927841540917        1.70554652948595
H            1.31138859272408       -0.68326986968871        0.58606614228968
H            1.13573300335262        1.45972955158947       -0.60141013177722
H           -0.34485987051695        1.85949785656839        0.26859961068912
H           -1.45998714178198       -0.14308600475261       -0.81308668581417
H           -0.85052358041452        1.04284495432686       -1.98503136648623
H           -0.88732888076981       -1.12271489420308        1.06400231181437
O           -1.59901017982713       -3.66077615265009       -1.74199071473557
H           -1.98063414558872       -2.86771470875981       -2.19045928294185
H           -0.65105170409787       -3.43980401643742       -1.56279453259544
O           -3.55280006015623       -2.02990482295943       -0.36474644584852
H           -4.43326848961413       -2.29425344648774       -0.19083947608714
H           -3.52774901133077       -1.13256969533382       -0.61203108755510
O           -2.45666018495725       -4.19787778591523       -4.48731321450403
H           -1.54565769192800       -4.24175561481763       -4.13696206820158
H           -2.49095129123590       -3.31131077795684       -4.88164184701158
O           -1.19844407751412       -2.01035356347965       -5.96882356500257
H           -0.73105018033112       -2.52609163444737       -6.64303057120601
H           -1.21802765442999       -1.10461442964576       -6.31206084995751
O           -3.48750831366814       -1.60395077332424       -3.38924789927945
H           -4.43648331720984       -1.37133003327479       -3.31887881300718
H           -3.09064909950268       -0.91833145878090       -3.94896389738545
O            0.15028356977725       -4.02581184126062        1.94199690724948
H           -0.36271222156294       -3.27589409716223        2.32962941214374
H           -0.54321221598203       -4.64994199705063        1.68351318732975
O           -2.72290535474491       -3.47816812517777        1.94335591671491
H           -2.67404571576432       -2.62856966533740        1.44919298696358
H           -3.27652240041051       -4.03025070090656        1.36136900164042
37
 energy: -59.797562295578 gnorm: 0.072535186635 xtb: 6.7.1 (edcfbbe)
N           -0.43237099631233       -0.48256924523995        1.70743794953969
C            0.71962285375311        0.12963421963520        0.99526002302973
C            0.24808052630224        1.04497443129893       -0.13237517311382
C           -0.56026106415121        0.32966876150652       -1.22076173799422
C            0.25569132952884       -0.81463513684285       -1.92853714039886
O            0.52158526959992       -0.62938353658710       -3.13191967114251
O            0.56861858143773       -1.81017519274331       -1.20726975975923
H           -0.10210463255310       -1.00951550860746        2.52485382951704
H           -1.10456309442028        0.23816731251750        2.00418423784650
H            1.32240029040426        0.70301952499294        1.70353097441079
H            1.31579093680769       -0.68147027037439        0.57268329771301
H            1.13598927903129        1.47806008357639       -0.60339513195116
H           -0.34925879238488        1.86842109401190        0.27465598129030
H           -1.45395973423746       -0.14973523678812       -0.81281012599217
H           -0.85585458322709        1.04183683861247       -1.99104004706063
H           -0.87696571638160       -1.13513468313987        1.04682598974094
O           -1.59371047715873       -3.66331596444120       -1.72853390571310
H           -1.96059254122868       -2.88988425774476       -2.15739466807448
H           -0.66670092922223       -3.44112282123754       -1.54431061869226
O           -3.53073674819611       -1.96736198920579       -0.24575756864073
H           -4.45413876727853       -2.28190515869427       -0.21603106313181
H           -3.58594724625888       -1.08030765993723       -0.66203085156807
O           -2.45618451495318       -4.17616332847479       -4.48093859397130
H           -1.57484100037935       -4.31444201878616       -4.16495860319765
H           -2.48566271487756       -3.35532443823253       -4.92887287546767
O           -1.18805395598142       -1.98813697147287       -5.98511399674591
H           -0.73951376892473       -2.52486202614891       -6.63952786185444
H           -1.22102516294692       -1.09695122347367       -6.32571454654979
O           -3.50452687775465       -1.57592232163071       -3.40336908034862
H           -4.41372196209030       -1.34256228958738       -3.30068286232254
H           -3.08072778317205       -0.90456409514109       -3.94260884750888
O            0.14375554142427       -4.02764478527754        1.98978680230907
H           -0.39294441306479       -3.29392068067303        2.34049999830607
H           -0.51296524281017       -4.66870594125366        1.66223692468676
O           -2.69134317958331       -3.49538781255796        1.91866555814412
H           -2.70441999842380       -2.64443357274436        1.43477150460096
H           -3.27792371031652       -4.05016909911186        1.40382666006400
37
 energy: -59.800413277104 gnorm: 0.080294930827 xtb: 6.7.1 (edcfbbe)
N           -0.42790095941036       -0.48944057602571        1.69687167348020
C            0.72314385238360        0.13053629039908        0.99222695679020
C            0.24953840656694        1.04979925085157       -0.12970600212906
C           -0.55228127602101        0.32612869538113       -1.21403919205321
C            0.31669906283948       -0.78282483113265       -1.91697313671649
O            0.51653648480955       -0.62846394614321       -3.13128324739089
O            0.52674727064505       -1.82805187623050       -1.23573243221332
H           -0.09824508421954       -1.01597148155552        2.51361739678837
H           -1.10673118502487        0.22522197891797        1.99090937069779
H            1.32414485659188        0.70058955110693        1.70231342228964
H            1.32240798443403       -0.67475148243287        0.56479163564530
H            1.13210953515177        1.49264233091567       -0.60027413237138
H           -0.35471759156875        1.86701346131460        0.27707989339149
H           -1.44530540051323       -0.15878686406800       -0.81117619715809
H           -0.85381716129663        1.03256451224978       -1.98741725572659
H           -0.86541350847587       -1.14657352452790        1.03686202112756
O           -1.58025219984962       -3.67771299037758       -1.72633616095390
H           -1.98550083674255       -2.92309512159017       -2.14724336253788
H           -0.67031792772826       -3.40789468617054       -1.52303242965328
O           -3.54329765231458       -1.91596615437198       -0.22912600591337
H           -4.45301471811616       -2.25866083763414       -0.20324948740231
H           -3.59677347920995       -1.04163911266260       -0.64607283434504
O           -2.48165279615257       -4.22867139573090       -4.55945490976067
H           -1.61369752426551       -4.35881263223042       -4.11140978049007
H           -2.43234004065250       -3.29698005838753       -4.89916193117532
O           -1.24862075176060       -1.99316115893548       -6.00782944205334
H           -0.73222937875015       -2.52603987304958       -6.63320727467212
H           -1.19697891315464       -1.08414282755509       -6.34563235656181
O           -3.45730722047506       -1.54085938513304       -3.31965401320734
H           -4.43861902736894       -1.34845569024404       -3.37964461289948
H           -3.07021077168367       -0.90311914847252       -3.95035263194480
O            0.13473410946088       -4.03794816818348        2.03895110990033
H           -0.41141831713938       -3.31644412820160        2.33618426396078
H           -0.48865281848968       -4.67196631494851        1.64394272029759
O           -2.68420886573288       -3.49069443361110        1.90999375471086
H           -2.72789628331801       -2.66012276880200        1.39904969423457
H           -3.26814487344851       -4.07916960272620        1.43047991601466
37
 energy: -59.804484791959 gnorm: 0.081012833525 xtb: 6.7.1 (edcfbbe)
N           -0.42454922981008       -0.49462638668558        1.68699002394121
C            0.72660193192851        0.13229401154674        0.98765952557387
C            0.25082582278234        1.04893053406870       -0.13204478511303
C           -0.55189391123557        0.31927525593609       -1.21072498282025
C            0.27652357707973       -0.80738714762087       -1.92733487245236
O            0.55446451812261       -0.60809414698877       -3.12418494570054
O            0.55534745523966       -1.80411215696015       -1.24837116124846
H           -0.09744755596173       -1.01870760506449        2.50251655045099
H           -1.10775558871928        0.21389993671968        1.97630439360447
H            1.32150156731917        0.70092450723005        1.69829229062970
H            1.32673668932115       -0.66814496263684        0.55785998632233
H            1.12769364185657        1.49661472853998       -0.60231421488917
H           -0.35475286765279        1.86219587777629        0.27364892153435
H           -1.44486627657677       -0.15509808024026       -0.80902220966620
H           -0.84765495891185        1.02382136768303       -1.98607431502343
H           -0.85501674570261       -1.15398828484717        1.02729868692771
O           -1.55769887283281       -3.70549452240394       -1.69178207264780
H           -2.04907523092964       -2.97473847744669       -2.15029300217833
H           -0.64777327197196       -3.35047060559522       -1.49771226054595
O           -3.55404829110128       -1.86675461730386       -0.20252433986152
H           -4.45303344044051       -2.22180683347198       -0.19141136549282
H           -3.61117712470474       -1.00832511319211       -0.65066670795780
O           -2.48709257582802       -4.25062610373676       -4.57258281861143
H           -1.63227961566693       -4.38480938439918       -4.09783278586341
H           -2.41981724273489       -3.31012786457548       -4.89907908755538
O           -1.26480901652219       -1.98994768577245       -6.01737751174723
H           -0.72741425835876       -2.52907963473997       -6.62403734729465
H           -1.18354109034078       -1.07953928231155       -6.35569638475354
O           -3.48922894436221       -1.53900502821537       -3.38275052759639
H           -4.41696695736056       -1.33616102958281       -3.34931046220874
H           -3.04714922654723       -0.89873013895748       -3.91598111802435
O            0.14552289353819       -4.02366668846212        2.02388142296292
H           -0.46078076574127       -3.34530328872761        2.37340722764551
H           -0.44796035077827       -4.68382651578320        1.63703803367472
O           -2.69635064136698       -3.46094875164123        1.92646142079369
H           -2.75149208835493       -2.66413065960799        1.34123466541177
H           -3.24307695667362       -4.12623022252709        1.45178112977893
37
 energy: -59.797478010960 gnorm: 0.128575792501 xtb: 6.7.1 (edcfbbe)
N           -0.41964000762513       -0.50452737750680        1.67647659020098
C            0.73030367351272        0.13024495892148        0.98384663081152
C            0.25177661622068        1.04582364200011       -0.13353487465607
C           -0.55115507918414        0.31606893894730       -1.21249357001186
C            0.19678241036128       -0.84722722032755       -1.94866195392657
O            0.61528787637539       -0.58179772474551       -3.11524763159139
O            0.59091549446891       -1.78235612273258       -1.24796867819459
H           -0.09541665438359       -1.02826383092155        2.49103802210758
H           -1.10759438637460        0.19754944339662        1.96277373503804
H            1.31934080747572        0.69723668306919        1.69744257617974
H            1.33374874859668       -0.66462620177680        0.55108924807625
H            1.12426633539699        1.49835915204142       -0.60214562306657
H           -0.35391461415099        1.85594034513278        0.27425003694783
H           -1.44414659695299       -0.14573785702158       -0.80840395061336
H           -0.83996619605719        1.02197612399940       -1.98784735099699
H           -0.84575341533734       -1.16568259496610        1.01784928008816
O           -1.56289025114202       -3.69100604148904       -1.66822399936948
H           -2.02260776765128       -2.97486115997240       -2.12947981869475
H           -0.67306666814214       -3.36921313953358       -1.49932342613759
O           -3.55986864523469       -1.81449138956356       -0.14810344871723
H           -4.45851935055099       -2.18845849619157       -0.19335642727088
H           -3.62962679621282       -0.97901675409290       -0.64704836953111
O           -2.46986321618252       -4.21498722491762       -4.51758499469583
H           -1.64119714521014       -4.40131240155629       -4.13993107869014
H           -2.44449405256559       -3.39945841128625       -4.95065194227778
O           -1.22605049469674       -1.96483984567998       -6.02601877263448
H           -0.74619784819561       -2.52708961340787       -6.62254229277786
H           -1.20429779020108       -1.08402691030253       -6.36078240290081
O           -3.45273662353711       -1.50185000244853       -3.27742262793399
H           -4.44528202079030       -1.32561003601889       -3.41272704804253
H           -3.04348998874519       -0.91246526189169       -3.95041027396722
O            0.15299965620293       -4.01548599164817        2.02081045733280
H           -0.50960674685888       -3.37746951431756        2.40605765068467
H           -0.40945014730145       -4.69286248852076        1.63323641661916
O           -2.71181760319641       -3.46768342955828        1.91950315946718
H           -2.74488275333624       -2.69493011698508        1.34824591248955
H           -3.24137375879439       -4.10778712812473        1.44255584065482
37
 energy: -59.809588519635 gnorm: 0.055072096808 xtb: 6.7.1 (edcfbbe)
N           -0.41646892996811       -0.51105827955924        1.67111431168904
C            0.73043888072719        0.12717976718784        0.98188201927996
C            0.25025210022151        1.04660309002948       -0.13549325318058
C           -0.54937422387024        0.32059094460661       -1.21953694358097
C            0.26892918554370       -0.80302453602008       -1.93597365238668
O            0.59190585515224       -0.59424179583594       -3.11867554970740
O            0.55211654422448       -1.81668462298125       -1.24968366618431
H           -0.09067706245226       -1.03724847609320        2.48821011415302
H           -1.10950194496685        0.19031566195037        1.95845307304260
H            1.32103751651819        0.69537004861461        1.69995743893640
H            1.34165215962019       -0.66513456575407        0.54852024999744
H            1.12512831362847        1.50372940716130       -0.60338049741603
H           -0.36106297953948        1.85471376404065        0.27639738610610
H           -1.44092855559618       -0.15495766710332       -0.81048738450853
H           -0.84823772144213        1.02744273976154       -1.99310527554945
H           -0.84278120642770       -1.17553646357697        1.01242181087062
O           -1.56655673985317       -3.68619253517449       -1.67634879809616
H           -2.00713154984846       -2.97689157720150       -2.10946454292153
H           -0.68806443544902       -3.36657203180587       -1.49854916324769
O           -3.57601834680404       -1.79293610705578       -0.16226094165528
H           -4.45380373735787       -2.17482344183781       -0.17544101678468
H           -3.62442125948206       -0.96592250945165       -0.63028293163093
O           -2.48638759507500       -4.23945588853624       -4.56056914503957
H           -1.65689829754070       -4.41233369221676       -4.09635458050455
H           -2.41655002272145       -3.37644877013056       -4.95331813894065
O           -1.27118186567717       -1.96986471060010       -6.03821694612850
H           -0.73944404562560       -2.52711300135052       -6.61881440952587
H           -1.18615576514470       -1.07107818140275       -6.37254304819310
O           -3.48382677467441       -1.50675980719828       -3.33234175201037
H           -4.41116931594271       -1.30720457155933       -3.36678654112478
H           -3.02539186576136       -0.91162284954063       -3.93171027913289
O            0.14092481657254       -4.02324218612216        2.06179749584314
H           -0.51144366407829       -3.38341158130416        2.38881347082961
H           -0.40256581018664       -4.69763153429186        1.62204667578936
O           -2.70907442173923       -3.46685354025958        1.91573568174237
H           -2.75277359888602       -2.70142006580825        1.33487136479773
H           -3.23397863609766       -4.11220543357747        1.45438236437259
37
 energy: -59.794142052002 gnorm: 0.152072871316 xtb: 6.7.1 (edcfbbe)
N           -0.41466019267798       -0.51361194003820        1.66432860934934
C            0.72945554211016        0.12921497498715        0.97693977113445
C            0.24690899821839        1.04812460324764       -0.14186523044612
C           -0.55026729210510        0.32051017539830       -1.22705703285238