46
 energy: -431.752072599154 gnorm: 0.000427865710 xtb: 6.7.1 (edcfbbe)
N       -0.7383920139      0.0496360020      1.7416944718                 
C        0.5137167674      0.1073422308      0.9694361810                 
C        0.3416826811      0.8481134432     -0.3527385653                 
C       -0.5294191833      0.1025623697     -1.3734071476                 
C        0.0978120829     -1.2231332523     -1.7857342337                 
O        1.0845200477     -1.2039966484     -2.5727385743                 
O       -0.3710530792     -2.2859299437     -1.3188616410                 
H       -0.5499170127     -0.3453555148      2.6950892735                 
H       -1.1688060954      0.9840467735      1.8208673923                 
H        1.2686363895      0.6224111271      1.5641362651                 
H        0.8625393177     -0.9088636715      0.7811604970                 
H        1.3266116367      1.0197536775     -0.7887736748                 
H       -0.1171862765      1.8192003524     -0.1700231097                 
H       -1.5260030008     -0.0815701315     -0.9727496571                 
H       -0.6195663961      0.7145189367     -2.2728558518                 
H       -1.4169040014     -0.5971592649      1.2943851248                 
O       -1.9582936411     -2.4242198576     -3.5907360764                 
H       -2.0259881630     -2.0347364863     -2.6964369750                 
H       -2.7371351654     -2.1224027005     -4.0653469061                 
O        0.0838490853     -3.5807170500      2.4877090514                 
H       -0.0721122468     -4.4814493653      2.7861368838                 
H        0.6957409008     -3.6488944787      1.7346935206                 
O        1.0551367668      0.9386642231     -4.3956351452                 
H        1.8546285408      1.4000270468     -4.1154627333                 
H        1.0407165766      0.1250477003     -3.8612547937                 
O       -2.0553570007      2.5822131894      2.1326223131                 
H       -2.3865542900      2.6517254497      3.0343792352                 
H       -1.6682804384      3.4323545825      1.9060758797                 
O       -0.2598493375     -1.2978963934      4.0593285659                 
H       -0.0089554615     -2.1239904231      3.6111446780                 
H       -1.0460943117     -1.4986508210      4.5761633473                 
O        3.2635205753      0.5083067660     -2.1671237330                 
H        4.0926920080      0.0218537271     -2.1928468308                 
H        2.5616655399     -0.1498514770     -2.3115078771                 
O       -3.3359085550      0.8062519158      0.2415674124                 
H       -4.2950303540      0.7848003711      0.2527866892                 
H       -3.0675468254      1.5336262085      0.8235719353                 
O       -1.8971247108     -2.3443694771      0.9606695156                 
H       -1.2580605730     -2.7989404943      1.5462124895                 
H       -1.4903262831     -2.3840670256      0.0751913896                 
O        2.6437264476     -3.4646284770     -2.5028787784                 
H        2.5373924701     -3.9557522334     -3.3226167267                 
H        2.0537530063     -2.6854158898     -2.5806510455                 
O        1.4163841858     -3.7948654147      0.0902494610                 
H        2.1692827521     -3.9026249824     -0.5043443110                 
H        0.7304625386     -3.3742611745     -0.4642724742                 
