46
 energy: -75.146536868929 gnorm: 0.020413300779 xtb: 6.7.1 (edcfbbe)
N           -0.73839201390000        0.04963600200000        1.74169447180000
C            0.51371676740000        0.10734223080000        0.96943618100000
C            0.34168268110000        0.84811344320000       -0.35273856530000
C           -0.52941918330000        0.10256236970000       -1.37340714760000
C            0.09781208290000       -1.22313325230000       -1.78573423370000
O            1.08452004770000       -1.20399664840000       -2.57273857430000
O           -0.37105307920000       -2.28592994370000       -1.31886164100000
H           -0.54991701270000       -0.34535551480000        2.69508927350000
H           -1.16880609540000        0.98404677350000        1.82086739230000
H            1.26863638950000        0.62241112710000        1.56413626510000
H            0.86253931770000       -0.90886367150000        0.78116049700000
H            1.32661163670000        1.01975367750000       -0.78877367480000
H           -0.11718627650000        1.81920035240000       -0.17002310970000
H           -1.52600300080000       -0.08157013150000       -0.97274965710000
H           -0.61956639610000        0.71451893670000       -2.27285585180000
H           -1.41690400140000       -0.59715926490000        1.29438512480000
O           -1.95829364110000       -2.42421985760000       -3.59073607640000
H           -2.02598816300000       -2.03473648630000       -2.69643697500000
H           -2.73713516540000       -2.12240270050000       -4.06534690610000
O            0.08384908530000       -3.58071705000000        2.48770905140000
H           -0.07211224680000       -4.48144936530000        2.78613688380000
H            0.69574090080000       -3.64889447870000        1.73469352060000
O            1.05513676680000        0.93866422310000       -4.39563514520000
H            1.85462854080000        1.40002704680000       -4.11546273330000
H            1.04071657660000        0.12504770030000       -3.86125479370000
O           -2.05535700070000        2.58221318940000        2.13262231310000
H           -2.38655429000000        2.65172544970000        3.03437923520000
H           -1.66828043840000        3.43235458250000        1.90607587970000
O           -0.25984933750000       -1.29789639340000        4.05932856590000
H           -0.00895546150000       -2.12399042310000        3.61114467800000
H           -1.04609431170000       -1.49865082100000        4.57616334730000
O            3.26352057530000        0.50830676600000       -2.16712373300000
H            4.09269200800000        0.02185372710000       -2.19284683080000
H            2.56166553990000       -0.14985147700000       -2.31150787710000
O           -3.33590855500000        0.80625191580000        0.24156741240000
H           -4.29503035400000        0.78480037110000        0.25278668920000
H           -3.06754682540000        1.53362620850000        0.82357193530000
O           -1.89712471080000       -2.34436947710000        0.96066951560000
H           -1.25806057300000       -2.79894049430000        1.54621248950000
H           -1.49032628310000       -2.38406702560000        0.07519138960000
O            2.64372644760000       -3.46462847700000       -2.50287877840000
H            2.53739247010000       -3.95575223340000       -3.32261672670000
H            2.05375300630000       -2.68541588980000       -2.58065104550000
O            1.41638418580000       -3.79486541470000        0.09024946100000
H            2.16928275210000       -3.90262498240000       -0.50434431100000
H            0.73046253860000       -3.37426117450000       -0.46427247420000
46
 energy: -75.148178903525 gnorm: 0.016415320840 xtb: 6.7.1 (edcfbbe)
N           -0.73576841383175        0.05173487042630        1.74253050974292
C            0.51599613543421        0.11170586806306        0.97002042895027
C            0.34427888120907        0.85523052198508       -0.35093159404191
C           -0.52255904333242        0.10852811808571       -1.37291411809846
C            0.12028342806251       -1.21514221026674       -1.76992723929722
O            1.10845301933325       -1.19650779248303       -2.55309295126302
O           -0.34092734049276       -2.27410466913555       -1.28547319129571
H           -0.54618622550853       -0.34330319291571        2.69550232609100
H           -1.16843176094350        0.98513368032626        1.82148306792804
H            1.27063505008342        0.62584838343463        1.56575509817224
H            0.86459966308492       -0.90449750030933        0.78053223012914
H            1.32925128602052        1.02672869820286       -0.78661696539788
H           -0.11622724891426        1.82542087644814       -0.16798726725676
H           -1.51795995526062       -0.07810170171020       -0.96889869085655
H           -0.61339326901915        0.71624516721925       -2.27515906596235
H           -1.41226010105111       -0.59848267488390        1.29567346901408
O           -1.99720713363713       -2.40598282573341       -3.66573169099881
H           -2.06397766082875       -2.13779233751928       -2.73003568175589
H           -2.80621543858057       -2.09476705594178       -4.08861599780390
O            0.08484256369576       -3.58143174179325        2.49339266911230
H           -0.06756684725889       -4.48461140916634        2.78609385977826
H            0.69183214407560       -3.64353014715339        1.73561512327960
O            1.05017783419098        0.94231261738691       -4.38617865067967
H            1.85725058210974        1.39495997702519       -4.11338256409239
H            1.03977246419379        0.12104593262524       -3.86293339510551
O           -2.05976444237050        2.58223307670143        2.13151309566086
H           -2.38785697182517        2.65000660430009        3.03453530695247
H           -1.66805779699918        3.43103751147347        1.90764476382184
O           -0.25497833302437       -1.29575854037157        4.06138912229667
H           -0.00593502730864       -2.12056989474851        3.60984457827016
H           -1.04098696369134       -1.49691344520121        4.57833599835051
O            3.27083927227467        0.51237009790975       -2.16221338033935
H            4.09849904401902        0.02390171995061       -2.19484323534386
H            2.56784944510698       -0.14275667098631       -2.31373989636654
O           -3.33523512306514        0.81008321246327        0.22907812544572
H           -4.29413164329720        0.77690810373755        0.25495361594089
H           -3.06580052836023        1.53278849032847        0.81673772343059
O           -1.89471716156510       -2.32122698810159        0.96469246589342
H           -1.29041177169625       -2.81215050558138        1.55855455819652
H           -1.47899196797771       -2.39533867664106        0.08647874727841
O            2.65480128429535       -3.46046856970789       -2.50829439875324
H            2.52608009787083       -3.96119388526841       -3.31922691578550
H            2.04893440478736       -2.69218058748377       -2.57341863101425
O            1.42583469809152       -3.79668176004295        0.09646891567875
H            2.17393474640556       -3.90941838302673       -0.50337933084921
H            0.73600802579514       -3.38259691752062       -0.45755623565657
46
 energy: -75.149177884415 gnorm: 0.010601124965 xtb: 6.7.1 (edcfbbe)
N           -0.73280797839516        0.05181659285114        1.74412159551698
C            0.51927903578342        0.11775168946595        0.97269165607239
C            0.34762938987401        0.86300230950556       -0.34727010714386
C           -0.51365372125381        0.11381017295300       -1.37214348592792
C            0.13740947580466       -1.20910805817467       -1.76030252086945
O            1.13101664937013       -1.19026379724933       -2.53386511773117
O           -0.32340036630288       -2.26543218959213       -1.26780013556915
H           -0.54028319855929       -0.33944407273391        2.69751028317584
H           -1.17240543401965        0.98221871701177        1.81967431312803
H            1.27264786007291        0.63237332834666        1.56966814918502
H            0.86979911699107       -0.89744930264490        0.78135466939988
H            1.33332960296561        1.03730297904684       -0.78029428343241
H           -0.11536130609357        1.83179065531924       -0.16303303456989
H           -1.50884203934594       -0.07484938880415       -0.96871768247605
H           -0.60248526019481        0.71963367278648       -2.27535849796101
H           -1.40300352451792       -0.61001182881551        1.29953514898305
O           -2.07373106028937       -2.44892578220697       -3.73502605820849
H           -2.06199556598976       -2.21599045321076       -2.79831881848178
H           -2.87614043604459       -2.05586819141813       -4.11732034516389
O            0.08083837323065       -3.58623621178298        2.49794511598581
H           -0.05390229963197       -4.49350059672976        2.78736522691295
H            0.68554488820122       -3.63462676297414        1.73707110392702
O            1.04824895846583        0.94639311886167       -4.37866810444474
H            1.85994634913499        1.39225444315783       -4.10849887667656
H            1.03720639136683        0.12117122541020       -3.86225328103531
O           -2.06564802770454        2.58013733194110        2.13177525793218
H           -2.39031153516793        2.64713313741186        3.03613482745543
H           -1.66851424393984        3.42707535152912        1.90998950888811
O           -0.24557373140381       -1.29450348938806        4.06407033555119
H           -0.00039574417197       -2.11784106771646        3.60750794764342
H           -1.03037879819402       -1.49566556024949        4.58277819442202
O            3.28095799593671        0.52116000315156       -2.16626176490447
H            4.10542134267668        0.02721886285380       -2.19563710097259
H            2.57339698573213       -0.13369301508223       -2.30126859899195
O           -3.33704886949636        0.81336285529945        0.21481425046919
H           -4.29532255047888        0.76501353635778        0.26236468701056
H           -3.06465411480613        1.53171693939038        0.80659469615391
O           -1.90730471131844       -2.30876318771540        0.96939082392738
H           -1.32454662099224       -2.80439563743382        1.57841440175749
H           -1.46274750875675       -2.38077268246498        0.10618539106055
O            2.64794311036217       -3.47237010207682       -2.50356979346138
H            2.51091454086153       -3.96646995064659       -3.31699919999480
H            2.06693209329394       -2.68552878546687       -2.57250556510331
O            1.42962940024281       -3.81276818208454        0.10015937511712
H            2.18132957667962       -3.91061986457728       -0.49788209334888
H            0.74564341032231       -3.37852531701259       -0.44784778180597
46
 energy: -75.149652910872 gnorm: 0.019661163588 xtb: 6.7.1 (edcfbbe)
N           -0.72827573671901        0.05369379471780        1.74737863036484
C            0.52473038435605        0.12569110917710        0.97771764980807
C            0.35279287278021        0.87160986387306       -0.34168774043888
C           -0.50370067321250        0.11908498329295       -1.36900505153176
C            0.14789212342897       -1.20526657254543       -1.75125510905589
O            1.14383899156580       -1.18883724235176       -2.52059434618361
O           -0.32734120671484       -2.26068333806434       -1.27000974646094
H           -0.53303302737952       -0.33150401266979        2.70206094666596
H           -1.17561314501791        0.98054378429353        1.81774915798905
H            1.27621845012522        0.64175713269156        1.57590483087783
H            0.87895569041781       -0.88788019089690        0.78469010900663
H            1.33913899259459        1.05100206256836       -0.77166805565142
H           -0.11409126734835        1.83849923082930       -0.15725990069996
H           -1.50073586278621       -0.06993778289238       -0.97151746502820
H           -0.58731018195119        0.72436132658287       -2.27265226899518
H           -1.39234386975927       -0.62018826702306        1.30677721238646
O           -2.11849215249144       -2.45918590894631       -3.81910665382681
H           -2.07533565197933       -2.32613996117164       -2.85311153282538
H           -2.94287531216511       -2.04415319544791       -4.13564249887808
O            0.07328607471982       -3.59058543995137        2.50204860351721
H           -0.03975823313315       -4.49981562824505        2.79564770360625
H            0.67757635946151       -3.63036014330164        1.74071849370785
O            1.04915220582866        0.95047158664061       -4.37082904790752
H            1.86258745002601        1.39533953978819       -4.10483428706567
H            1.04316507182064        0.12363834537359       -3.85871423203190
O           -2.07031393994850        2.57645914547168        2.13197280313438
H           -2.39632148070815        2.64350651547619        3.03584957840541
H           -1.67110339687712        3.42281817992207        1.91175984461283
O           -0.23313943714678       -1.29362832139994        4.06524042308380
H            0.00674917192922       -2.11826746743424        3.60807776871156
H           -1.01364316147574       -1.49243344469833        4.59140073086497
O            3.29069153951574        0.53033670794200       -2.16580731320988
H            4.11253516509806        0.03205347752590       -2.19801514106445
H            2.57882780562871       -0.12274382554791       -2.29435630961175
O           -3.33724079278009        0.81733914635430        0.19909551853459
H           -4.29383106165088        0.75051681572145        0.26833589933322
H           -3.06477259998606        1.53220530370561        0.79477404351395
O           -1.91694670558917       -2.29264726776987        0.97479665526321
H           -1.35298018254788       -2.80040497659995        1.58907493074818
H           -1.45623392698929       -2.36089308117109        0.11984476830575
O            2.65307732974673       -3.47888962999368       -2.50279579619251
H            2.48967128553234       -3.97486448829962       -3.31135092977622
H            2.07684598786543       -2.68678689377139       -2.56002751994078
O            1.43101045329591       -3.81356994408188        0.10461936328921
H            2.18069169530606       -3.92054494642796       -0.49445783642566
H            0.75060380561298       -3.37200263684623       -0.44456217152784
46
 energy: -75.150125633499 gnorm: 0.012056541025 xtb: 6.7.1 (edcfbbe)
N           -0.72090027440633        0.05727610221646        1.75307972968839
C            0.53324285600896        0.13593524992955        0.98549044394308
C            0.36061460435219        0.88253167228485       -0.33332226949956
C           -0.49137516913738        0.12707058031036       -1.36311211553611
C            0.15314311543703       -1.20058633081741       -1.74441433003753
O            1.15692639730217       -1.18828053982382       -2.50349398628387
O           -0.34032486330922       -2.25524179757729       -1.27812868123710
H           -0.52281407196694       -0.32005662151681        2.70963146344234
H           -1.17715576776329        0.97991882165924        1.81673651860303
H            1.28214205258050        0.65396196253938        1.58534897684632
H            0.89259298294564       -0.87550634136494        0.79065106381113
H            1.34721089653574        1.06839521939381       -0.76057710678473
H           -0.11136880038846        1.84701533084615       -0.14907817114681
H           -1.49138150784394       -0.06002848298238       -0.97355615061023
H           -0.56797890665696        0.73209938796517       -2.26730565487931
H           -1.37870217031223       -0.62959953420710        1.31808693890151
O           -2.17725310652012       -2.50699885097982       -3.88092351585429
H           -2.11998449659768       -2.39054537004545       -2.93452212370245
H           -2.98981737297696       -2.08583715400776       -4.18033082274322
O            0.06237515497876       -3.59598251418999        2.50715970892339
H           -0.02472637309371       -4.50587043951730        2.80949905332836
H            0.66593904258765       -3.62954465333035        1.74582587829638
O            1.05240268446047        0.95630265366505       -4.35984420159832
H            1.86657488531095        1.40285321140594       -4.09948851189861
H            1.05529268776999        0.12790109708486       -3.85238313908996
O           -2.07658974149627        2.57058669369098        2.13169210197225
H           -2.40767767948689        2.63740859841670        3.03374366247154
H           -1.67659241121288        3.41716648122162        1.91408175538283
O           -0.21543654324268       -1.29347866877667        4.06668995115318
H            0.01572001421026       -2.12062514879651        3.60931478792369
H           -0.98886583560362       -1.48814209739067        4.60512825707223
O            3.30210285276541        0.54251153644199       -2.16002610350651
H            4.12185328545214        0.04117214756305       -2.20232558726613
H            2.58667971161261       -0.10764527346478       -2.28992958988624
O           -3.33580445627304        0.82163350248133        0.17865271461647
H           -4.28935660628265        0.73235059793502        0.27118797481609
H           -3.06515518801458        1.53307651694430        0.77871963311042
O           -1.92275337099377       -2.26721142925643        0.97972706538718
H           -1.38489771896682       -2.80242652516481        1.59378182102596
H           -1.45523479687939       -2.34140783738780        0.12901289906901
O            2.66081538224705       -3.48540361000955       -2.50156081448717
H            2.46500109213424       -3.98534034908281       -3.30245559086781
H            2.08496764195850       -2.69115012621805       -2.54296728986552
O            1.43229542230466       -3.80156542047673        0.11031020501481
H            2.17561578031294       -3.93538802999546       -0.49219344117009
H            0.75324458645575       -3.36459077321765       -0.44533869544655
46
 energy: -75.150502471197 gnorm: 0.008404187756 xtb: 6.7.1 (edcfbbe)
N           -0.71326877350498        0.06015273685998        1.75955907970925
C            0.54063691919445        0.14205863334817        0.99198754909441
C            0.36570497935207        0.88740794583214       -0.32718337316164
C           -0.48601369896968        0.13268898710491       -1.35765744306142
C            0.14394864942782       -1.19874998544557       -1.74933689796233
O            1.16272056430299       -1.18862620337332       -2.49052704602166
O           -0.35643088138154       -2.25366940191460       -1.29006638892741
H           -0.51305896023242       -0.31149424071984        2.71756703186466
H           -1.17474412471992        0.98041281227955        1.81841152237552
H            1.28758152786672        0.66265900413285        1.59222438827754
H            0.90393330353986       -0.86805629427151        0.79743119573366
H            1.35149337597312        1.07623261997384       -0.75484649445949
H           -0.10886327089144        1.85076267516430       -0.14315522323219
H           -1.48814707437974       -0.04905244114282       -0.97124180450789
H           -0.55848854281523        0.73836605956713       -2.26211263216432
H           -1.36836432750295       -0.63331783537577        1.32910589107558
O           -2.20327650569750       -2.52636918950283       -3.94888711643053
H           -2.11279390824358       -2.47467119640119       -2.98805596162681
H           -3.03736355547757       -2.09685596776484       -4.18642608596925
O            0.05396610319938       -3.59894576364478        2.51216339678388
H           -0.01766594673615       -4.50748988241981        2.82229667600497
H            0.65544631890818       -3.63070752411933        1.74970936728436
O            1.05915406252000        0.95824155978502       -4.35383564055470
H            1.87040171130536        1.41027488933239       -4.09392079736024
H            1.06593247908499        0.13099558707908       -3.84529190506795
O           -2.08139068435783        2.56643963733049        2.13049404890109
H           -2.41733331183016        2.63289701041388        3.03083209515466
H           -1.68114428120802        3.41341461331958        1.91502552304696
O           -0.19914867683672       -1.29262890065525        4.07123370455109
H            0.02071019569451       -2.12084837149513        3.60966490431804
H           -0.96676085659000       -1.48311848633215        4.61962127005671
O            3.30729530022867        0.55157003326307       -2.15871299525957
H            4.12756695210003        0.05154450518554       -2.20447337219650
H            2.59246765431440       -0.10078057021431       -2.27906709935892
O           -3.33590834780723        0.82190096652676        0.16875181544821
H           -4.28617606223981        0.72347744481484        0.27008616037890
H           -3.06577332852447        1.53218408172115        0.77008155843425
O           -1.92304374551883       -2.25296312668411        0.97819048704172
H           -1.39520007397084       -2.80007806679283        1.58811643256818
H           -1.46213954033546       -2.33290342672165        0.12479619547082
O            2.64263987201957       -3.50265219284993       -2.48992253007246
H            2.45749344534451       -3.99120763575595       -3.29619378971950
H            2.09469849853203       -2.68935520816439       -2.54399322297223
O            1.42682078337711       -3.78659983786143        0.11231692135234
H            2.16759578589581       -3.93703657722543       -0.49013304124349
H            0.74889589788735       -3.35679003178849       -0.44835164219429
46
 energy: -75.150744624439 gnorm: 0.015503703903 xtb: 6.7.1 (edcfbbe)
N           -0.70309801162747        0.06277826046325        1.76766078887976
C            0.54982706118298        0.14815733174125        0.99918718330207
C            0.37175234237331        0.89209860179859       -0.32032136626935
C           -0.48084269444875        0.13930790706941       -1.35027945798811
C            0.14330471637202       -1.19493589674161       -1.74266469988015
O            1.16435622617033       -1.18898806797260       -2.48187424471973
O           -0.37891330958157       -2.25201854046387       -1.31173249186747
H           -0.50062142929004       -0.30405567560664        2.72669662868876
H           -1.16941202418772        0.98086446989456        1.82259901586008
H            1.29469428445832        0.67218681086807        1.59921090185110
H            0.91733839258245       -0.86068230642854        0.80557912541830
H            1.35643199081086        1.08232731506791       -0.74933383554940
H           -0.10531637210095        1.85436856406623       -0.13692895983975
H           -1.48521259585998       -0.03644860238212       -0.96596979732919
H           -0.54984433290225        0.74371793488536       -2.25678353473792
H           -1.35607538604698       -0.63508600513503        1.34056815288122
O           -2.22669775215653       -2.56118549165830       -4.01224665741443
H           -2.09655310130286       -2.55119543814363       -3.04880586584721
H           -3.07683232407687       -2.12218792139430       -4.19179592789091
O            0.04419883998880       -3.60150080652373        2.51827493768741
H           -0.01474291362660       -4.50746825365468        2.83609636026672
H            0.64153449535460       -3.63196216139002        1.75268033836704
O            1.07052296873718        0.96056542419883       -4.34859338845976
H            1.87653881816438        1.42024885680355       -4.08535677005046
H            1.07745390296071        0.13638666613737       -3.83531140917754
O           -2.08713800945295        2.56160554147178        2.12822019474651
H           -2.43025390199376        2.62704744044101        3.02602654900629
H           -1.68723109004413        3.40953482245355        1.91583652593894
O           -0.17825636285585       -1.29148578602225        4.07859723981879
H            0.02548813202466       -2.12008661760096        3.60928046960384
H           -0.93836395632861       -1.47696361279662        4.63908832589472
O            3.30935739094026        0.56140923648288       -2.15965021032463
H            4.13283434747584        0.06708233509902       -2.20432064208460
H            2.59887023273568       -0.09754980108846       -2.26436098520230
O           -3.33655353716715        0.82599586092472        0.15386471983123
H           -4.28299703535805        0.71224846977615        0.27076969924384
H           -3.06650605590369        1.52864655072134        0.76461572335387
O           -1.92193653381869       -2.24349422626534        0.97135306091883
H           -1.39660502553886       -2.79393142308254        1.57537138473665
H           -1.47334683865751       -2.32470806279189        0.11159560587736
O            2.63294477910603       -3.51119068025377       -2.48552174571986
H            2.44342638735872       -3.99945864397574       -3.28974832279552
H            2.08717435625050       -2.69783200165792       -2.53762664612476
O            1.41153276858629       -3.77089543518837        0.11170133599591
H            2.15321049397901       -3.92591603066426       -0.48757114728079
H            0.73516356701037       -3.34663746708420       -0.45180145021264
46
 energy: -75.151118179967 gnorm: 0.009612124277 xtb: 6.7.1 (edcfbbe)
N           -0.69091079347447        0.06454033163799        1.77583871807708
C            0.56016137547293        0.15137802421866        1.00497788014185
C            0.37820564494635        0.89403368278347       -0.31467924586082
C           -0.48015096655720        0.14583505781326       -1.34168621529748
C            0.13263959237726       -1.19061414992024       -1.74459852643772
O            1.16069754067788       -1.18727493277882       -2.47602700464327
O           -0.40494864421898       -2.25026646683662       -1.33971321544058
H           -0.48710315647428       -0.30078642826157        2.73483564514563
H           -1.15883775368710        0.98193808712082        1.82992679092124
H            1.30393852941533        0.67868738816377        1.60363057266450
H            0.93037764866615       -0.85681481093415        0.81299888466346
H            1.36122284761798        1.08244725053551       -0.74726341262899
H           -0.09781580876390        1.85658094452258       -0.12999215486088
H           -1.48542734100377       -0.02274516007413       -0.95523261960573
H           -0.54929042005103        0.75052213170959       -2.24895084773685
H           -1.34435645088266       -0.63104685029467        1.34886146130398
O           -2.23366272930572       -2.60936860317801       -4.04587873355950
H           -2.08123381985525       -2.60154590301332       -3.09287479330761
H           -3.07853376144718       -2.16257288165000       -4.20027730812716
O            0.03353287327073       -3.60218297604215        2.52377894323395
H           -0.01893349624824       -4.50394638185851        2.84981712561424
H            0.62653595258120       -3.63387285298641        1.75458840908971
O            1.08562076338743        0.96324291673515       -4.34294398688410
H            1.88561078924055        1.43138963587669       -4.07470965435300
H            1.09167644570021        0.14203368693738       -3.82379253103882
O           -2.09261405515050        2.55562763682185        2.12517403581075
H           -2.44659464709578        2.62019762974072        3.01901470477978
H           -1.69576852127529        3.40573927196159        1.91566391094442
O           -0.15605281875439       -1.29065042668294        4.08691664670344
H            0.02910027110029       -2.11962181684111        3.60939455049284
H           -0.90675885781461       -1.47063927172295        4.66164433957927
O            3.30656706328099        0.57007588141599       -2.15389762658275
H            4.13685203877470        0.08761027069265       -2.20253754165394
H            2.60530076241740       -0.09726944836930       -2.25339463446426
O           -3.33732914485300        0.83025567704754        0.14161792215514
H           -4.27955825478785        0.70501900442402        0.26879783283179
H           -3.06635512926736        1.52427668143084        0.76264066441108
O           -1.91617415810850       -2.23787625773905        0.95916442236979
H           -1.38705225312770       -2.79260472049443        1.55309322815055
H           -1.49008476184717       -2.31937624647647        0.08710054997501
O            2.61429444259006       -3.52038263900293       -2.48020790900796
H            2.43254104452676       -4.00703317719822       -3.28550301132230
H            2.07352018131133       -2.70578835831903       -2.53716226526970
O            1.38733085168152       -3.75036914526520        0.10930059200812
H            2.13257992386553       -3.90379074650704       -0.48424591626757
H            0.71184706144326       -3.33427709474520       -0.45693396531311
46
 energy: -75.151479281973 gnorm: 0.014282791475 xtb: 6.7.1 (edcfbbe)
N           -0.67226169810062        0.06562342034416        1.78560841646299
C            0.57692148410099        0.15585259675179        1.01194120517216
C            0.38989100443051        0.89889336414077       -0.30665589223462
C           -0.47918189123676        0.15732228267484       -1.32891063306544
C            0.11393476751447       -1.18088471318447       -1.75378038483451
O            1.15978360051190       -1.17937275177242       -2.46204915509516
O           -0.44731050303583       -2.24292420583046       -1.38634053144059
H           -0.46636773078996       -0.29919073004782        2.74368544369065