166
 energy: -278.914871940407 gnorm: 0.000448720189 xtb: 6.7.1 (edcfbbe)
N           -0.49389039760276       -0.46896650911349        1.14117427492954
C            0.66447176787032       -0.86044254633225        0.31528316409775
C            0.40450167954996       -0.65741130869540       -1.17567771504048
C           -0.35310925908198       -1.82907783354325       -1.84417770372845
C            0.42365758108767       -2.35444660055800       -3.03929448919500
O            0.23186899234990       -1.84873473745775       -4.17094560066357
O            1.27457143120119       -3.27262049828943       -2.83919765513896
H           -0.43431063468373       -0.91452502729299        2.06805116111941
H           -0.55072552570057        0.55170974512258        1.29558496799652
H            1.52516950882815       -0.26046217766559        0.60136252422932
H            0.90347885895481       -1.90748175853418        0.49039440569697
H            1.36290856674338       -0.52682880613810       -1.67933382217446
H           -0.16971621747261        0.24997750800354       -1.32763190791269
H           -0.47559503715748       -2.65816663698152       -1.15166332091451
H           -1.32921695201082       -1.51483373408989       -2.20693940726724
H           -1.37155627706457       -0.81638505118430        0.70913824072789
O           -1.81024217143394       -0.30723663578709        4.16526143881195
H           -2.39360123039290       -0.95562360986670        4.56707023923148
H           -2.05582855489034        0.58125052702485        4.50326367008226
O            1.54920177635973       -3.02130539346243        5.20226696901573
H            1.27613811094889       -2.10177992877177        5.40645939346974
H            2.23515052001115       -2.92173008525016        4.52200231974420
O            2.35615484623427        4.27258211786867        2.34704944680594
H            2.17924400732518        3.40190490269009        1.89309683777862
H            2.96544431665154        4.05304813962853        3.05587301279548
O           -0.20456847262333       -2.44808312578755        3.10305730277085
H           -0.39385094155607       -3.06980149384110        2.36642100096027
H            0.21887548124460       -2.94023510116928        3.82122020552931
O            2.89873555943651        1.10069793227192       -4.29764500059017
H            2.44127866080049        0.65314712750807       -5.03209903918747
H            2.17756651309844        1.46824001323723       -3.73047878958263
O           -4.12580071395018       -1.98541968820265       -2.16534589032179
H           -3.74928240280713       -1.10993450497832       -2.41408851151284
H           -5.07880338778074       -1.87268310838007       -2.17151410917905
O            3.16543493452908       -3.92768049775306        0.71526677323657
H            3.48529578649698       -3.35979699957576       -0.00306294513872
H            2.99817058998070       -3.32043169256400        1.47407513677163
O            0.51124055436237       -0.48181563265662        5.48940362337162
H           -0.29538489490162       -0.51903829028763        4.90937204868785
H            0.18893400362772       -0.33864618233049        6.38065044283647
O            0.97785023467532       -4.81060413447743       -0.57319148058433
H            1.07051852155544       -4.25562691957473       -1.37385680492110
H            1.79442970017950       -4.62743104321252       -0.04962797400113
O           -2.76399101365216        3.94345617414167        1.47868539291502
H           -2.11498994864580        4.52702370457184        1.89510948856673
H           -2.33104389083440        3.06846666569265        1.49298352259378
O           -0.86364425889654        0.65233427052600       -4.12546152379747
H           -1.68386011753901        0.58120647999097       -3.58431245622454
H           -0.50480960690653       -0.25511507241802       -4.15179133322401
O           -3.55712705409507        0.35615365978385        2.14667846370597
H           -4.10412691522202       -0.44405123395953        2.12359338034188
H           -2.80417831081236        0.13547046282050        2.73769908884834
O           -0.28682813233925        2.66717502198369       -0.42617244235645
H           -1.07893872237789        2.10351922573301       -0.27732201892327
H            0.12606871353576        2.39371062791116       -1.26534612633824
O            3.11762798124580        5.32603830083304       -0.88303594366271
H            3.22373779033691        4.34762565262595       -0.84591845721485
H            2.18377015869913        5.45524166601530       -0.61465209273438
O           -0.70864687548321        2.09129765293715        2.36825235729531
H           -0.50391683380083        3.03371608931513        2.23072972637287
H           -0.00727361314790        1.81291568765027        2.98532242750424
O            3.51323784080188       -2.29987164043241       -1.54613827033357
H            4.05173371740409       -1.92293189411378       -2.26432651522289
H            2.71304585331977       -2.64509816789795       -1.97979052273755
O           -4.65703553562219        2.67282558504135        3.06699436268144
H           -4.42726995953810        1.79104780323639        2.69323507302913
H           -4.21775143600337        3.30585590836900        2.46979515899781
O            0.89432469221907        2.16872409556772       -2.83781385105099
H            0.74408455022487        3.11150759371613       -3.08016727194258
H            0.21926685245527        1.64634383864113       -3.33049430331831
O            1.82295882757387        2.00070412731669        1.09926669560255
H            0.94539552736550        2.19580098895915        0.69792713723983
H            2.44547463359497        2.11678700980313        0.35953768831901
O            3.12408719964458        2.65657678769121       -1.13650611278374
H            2.46942044451422        2.42554608373971       -1.81296802421386
H            3.97964553267410        2.31104542108840       -1.43105333617212
O           -3.13007807065695       -4.43941557153127       -1.07301968312177
H           -2.87083962636195       -5.20009306433809       -1.61283712253020
H           -3.46295753711632       -3.76346222866265       -1.68056629612805
O            4.20752136551521        0.04900514072453       -0.20670488944701
H            4.82335740839480        0.43811339995943       -0.83657693232709
H            3.91767328927682       -0.78982031823205       -0.59827199616378
O           -3.02233482489079        0.43510553592482       -2.53381936406546
H           -3.51524846265030        1.22928508679788       -2.81587322859536
H           -2.78016083466415        0.64382656559033       -1.59033987215027
O           -2.46530534612181        4.26812361752406       -1.19055984994702
H           -1.59375141099027        3.82527717381790       -1.13723693722651
H           -2.73994256796581        4.34944583986310       -0.25513407503079
O           -4.50552664404496       -2.25288490453410        2.13468035553290
H           -3.83094073147280       -2.14356529625110        1.40729644768850
H           -3.95853909415200       -2.53124096431454        2.90284589891341
O            1.83118365026407       -5.57620944197710       -4.16969068490710
H            2.78965670332018       -5.65853312438221       -4.19053114822107
H            1.64480208366680       -4.68820160390614       -3.79851558990461
O            3.46093299913070        0.34564500984470        2.38626388773043
H            3.98366159603009        0.21981663369202        1.57666309915318
H            2.70097222441098        0.88734387350929        2.06820851249508
O           -2.18616416542526        5.38640471873437       -3.74567497587148
H           -2.38193302253228        5.24707893160115       -2.80266026454711
H           -1.22698183547764        5.24492217282394       -3.80169556227624
O           -3.99929388680003        2.92743418363416       -2.96306495845618
H           -3.87681918169205        3.43643078386392       -3.76751987445939
H           -3.47865027841701        3.42035509148108       -2.28371426226459
O           -2.68094600558283       -1.88916285423043        0.28077702314379
H           -2.17016533385685       -2.71004377047638        0.42408009155627
H           -3.13078426006477       -1.98606133249509       -0.56815160062543
O           -2.59624115816401        1.36228737441475       -0.09255846002697
H           -2.93334462976971        0.88909825415557        0.70783167500588
H           -3.21169094212509        2.08435974432993       -0.24669478929278
O            1.16665864367680        1.91141971707994        4.32944782753149
H            1.08173994524614        1.04185545221375        4.76353949357660
H            2.11326689347865        2.10553234708116        4.26330470968332
O           -4.74067950995277       -4.78077928451456        1.13792401191993
H           -4.23647232022292       -4.68229307912045        0.30368268193830
H           -4.84442518699550       -3.86407060434742        1.48462445702606
O            0.51714264996094        4.80788513793034       -3.13410101305674
H            1.40454552089418        5.08616656500075       -3.42142444851405
H            0.44714165856571        5.09765223256328       -2.20534667634662
O            4.68790975377639       -0.80505766063677       -3.50620847111672
H            4.05881119731840       -0.08776876832012       -3.73403669064558
H            5.20873337160422       -0.96564699253515       -4.29488805854459
O           -2.67468239077638       -5.54901553884020        2.61543556671517
H           -2.64153076545731       -6.50261577538169        2.69711015725794
H           -3.49833444321024       -5.33648675044081        2.10282503665025
O            0.44013035150273        5.27523180849696       -0.34433128346545
H            0.14296155698457        5.67739222207729        0.47560963932956
H            0.25941071569288        4.31462902987201       -0.23649307643299
O           -0.39214192655976        4.03659604699730        5.15041672044176
H           -1.22673958580081        3.52543706833550        5.13137737696441
H            0.28477123002844        3.34991666172021        4.97027983945278
O           -2.72048830376086       -3.05675082497190        4.00152652266822
H           -2.72947858616609       -3.99448495259670        3.76890807972488
H           -1.85665066648851       -2.72817042259487        3.65428139134179
O            1.38083474492648       -0.27562708739748       -6.13102712259494
H            0.60279409857441        0.24355335225765       -6.36443476949907
H            1.05120206831835       -0.98337932109217       -5.54899178947005
O            3.91623376966636        2.36588212680466        4.11160939414255
H            3.92988753992885        1.60485274689505        3.48404765748001
H            4.54462548631007        2.16228897744797        4.80546568602135
O            0.39468244383501       -6.94357399181459       -2.19776476136862
H            0.60817556407205       -6.30842535501544       -1.48267767536756
H            0.88132013495651       -6.60539661351574       -2.97125033488741
O            2.56777691821742       -2.19537853252442        2.71782774419882
H            1.59673874795680       -2.08028308523186        2.71245650634344
H            2.93230109203281       -1.28809406577696        2.64272408765703
O            5.66190834319033        1.93113269222161       -1.98713265568458
H            5.42443520410097        2.35876237135908       -2.84109223964805
H            6.42954642929940        2.40316813848378       -1.65691321664903
O            3.18221963033763        5.43108144164195       -3.49953430915582
H            3.53418958454385        6.27374504540225       -3.78983853220759
H            3.22344776942321        5.44065144507922       -2.49658877932805
O           -0.27621633547774        4.83209979076807        2.54843466065376
H           -0.39487701370682        4.74353590553825        3.51647660467932
H            0.69627897523123        4.75515586393696        2.43821071926684
O            4.69007547255319        3.17795978912994       -4.18464560323283
H            4.15630124334485        3.96688691768878       -3.96253016887932
H            4.04059276721201        2.47625984978126       -4.38405186632987
O           -1.02884945721851       -3.93678013025155        1.05786251770498
H           -1.56733009208120       -4.61836950639994        1.49204392966849
H           -0.38990809685204       -4.38365308059654        0.47686179408188
O           -2.24677129235119       -6.54138397079110       -2.70513383393630
H           -2.30526713007747       -6.60317300325650       -3.66171747590929
H           -1.31799637357381       -6.76712042205779       -2.47552988959076
O           -2.36629559683360        2.29409216663377        4.48443233316492
H           -3.26813619272311        2.50614437902291        4.18068214705287
H           -1.82218224259866        2.25207757716243        3.64925807890358
