13
 energy: -275.739171342912 gnorm: 0.000288247458 xtb: 6.7.1 (edcfbbe)
H            0.85071085249627       -0.39917955494793       -0.67491263861731
C            0.02583639257483       -1.05544605626013       -0.40351011744639
H           -0.78391913697555       -0.46549387199096       -2.18611655567772
H            0.30998049635366       -2.08877617892099       -0.57917359013520
N           -1.13530176550519       -0.71855479115885       -1.24272392851691
H            0.44295077747113       -1.41425635891066        1.67604954816387
C           -0.27863302230341       -0.86797230287018        1.07235571428953
O           -0.38044127163170        1.50417212226645        0.70593465684580
C           -0.24896799750634        0.57626815927188        1.52488477522330
H           -1.63928632124934        0.07593867696449       -0.82665864443766
O           -0.07433188972996        0.79729414151726        2.76468200572708
H           -1.82970608628783       -1.48623881060472       -1.29215794289731
H           -1.27502314382928       -1.24554660187385        1.29935644549321
