
                                 *****************
                                 * O   R   C   A *
                                 *****************

                                            #,                                       
                                            ###                                      
                                            ####                                     
                                            #####                                    
                                            ######                                   
                                           ########,                                 
                                     ,,################,,,,,                         
                               ,,#################################,,                 
                          ,,##########################################,,             
                       ,#########################################, ''#####,          
                    ,#############################################,,   '####,        
                  ,##################################################,,,,####,       
                ,###########''''           ''''###############################       
              ,#####''   ,,,,##########,,,,          '''####'''          '####       
            ,##' ,,,,###########################,,,                        '##       
           ' ,,###''''                  '''############,,,                           
         ,,##''                                '''############,,,,        ,,,,,,###''
      ,#''                                            '''#######################'''  
     '                                                          ''''####''''         
             ,#######,   #######,   ,#######,      ##                                
            ,#'     '#,  ##    ##  ,#'     '#,    #''#        ,####,   ,####,        
            ##       ##  ##   ,#'  ##            #'  '#       #'       #'  '#        
            ##       ##  #######   ##           ,######,      #####,   #    #        
            '#,     ,#'  ##    ##  '#,     ,#' ,#      #,     #,   #   #,  ,#        
             '#######'   ##     ##  '#######'  #'      '#     '####' # '####'        



                #########################################################
                #                        -***-                          #
                #          Department of theory and spectroscopy        #
                #                                                       #
                #                      Frank Neese                      #
                #                                                       #
                #     Directorship, Architecture, Infrastructure        #
                #                    SHARK, DRIVERS                     #
                #        Core code/Algorithms in most modules           #
                #                                                       #
                #        Max Planck Institute fuer Kohlenforschung      #
                #                Kaiser Wilhelm Platz 1                 #
                #                 D-45470 Muelheim/Ruhr                 #
                #                      Germany                          #
                #                                                       #
                #                  All rights reserved                  #
                #                        -***-                          #
                #########################################################


                         Program Version 6.0.1  -  RELEASE   -


 With contributions from (in alphabetic order):
[Max-Planck-Institut fuer Kohlenforschung]                               
  Daniel Aravena         : Magnetic Suceptibility                        
  Michael Atanasov       : Ab Initio Ligand Field Theory (pilot matlab implementation)
  Alexander A. Auer      : GIAO ZORA, VPT2 properties, NMR spectrum      
  Ute Becker             : All parallelization in ORCA, NUMFREQ, NUMCALC 
  Giovanni Bistoni       : ED, misc. LED, open-shell LED, HFLD           
  Martin Brehm           : Molecular dynamics                            
  Dmytro Bykov           : pre 5.0 version of the SCF Hessian            
  Marcos Casanova-Páez   : Triplet and SCS-CIS(D). UHF-(DLPNO)-IP/EA/STEOM-CCSD. UHF-CVS-IP/STEOM-CCSD   
  Vijay G. Chilkuri      : MRCI spin determinant printing, contributions to CSF-ICE 
  Pauline Colinet        : FMM embedding                                 
  Dipayan Datta          : RHF DLPNO-CCSD density                        
  Achintya Kumar Dutta   : EOM-CC, STEOM-CC                              
  Nicolas Foglia         : Exact transition moments, OPA infrastructure, MCD improvements    
  Dmitry Ganyushin       : Spin-Orbit,Spin-Spin,Magnetic field MRCI      
  Miquel Garcia-Rates    : C-PCM and meta-GGA Hessian, CCSD/C-PCM, Gaussian charge scheme 
  Tiago L. C. Gouveia    : GS-ROHF, GS-ROCIS                             
  Yang Guo               : DLPNO-NEVPT2, F12-NEVPT2, CIM, IAO-localization        
  Andreas Hansen         : Spin unrestricted coupled pair/coupled cluster methods 
  Ingolf Harden          : AUTO-CI MPn and infrastructure                
  Benjamin Helmich-Paris : MC-RPA, TRAH-(SCF,CASSCF), AVAS, COSX integrals, SCF dyn. polar. 
  Lee Huntington         : MR-EOM, pCC                                   
  Robert Izsak           : Overlap fitted RIJCOSX, COSX-SCS-MP3, EOM     
  Riya Kayal             : Wick's Theorem for AUTO-CI, AUTO-CI UHF-CCSDT 
  Emily Kempfer          : AUTO-CI, RHF CISDT and CCSDT                  
  Christian Kollmar      : KDIIS, OOCD, Brueckner-CCSD(T), CCSD density, CASPT2, CASPT2-K, improved NEVPT2 
  Axel Koslowski         : Symmetry handling                             
  Simone Kossmann        : meta-GGA functionals, TD-DFT gradient, OOMP2, (MP2 Hessian; deprecated post 5.0) 
  Lucas Lang             : DCDCAS                                        
  Marvin Lechner         : AUTO-CI (C++ implementation), FIC-MRCC        
  Spencer Leger          : CASSCF response                               
  Dagmar Lenk            : GEPOL surface, SMD, ORCA-2-JSON               
  Dimitrios Liakos       : Extrapolation schemes; Compound Job, initial MDCI parallelization 
  Dimitrios Manganas     : Further ROCIS development; embedding schemes. LFT, Crystal Embedding 
  Dimitrios Pantazis     : SARC Basis sets                               
  Anastasios Papadopoulos: AUTO-CI, single reference methods and gradients 
  Taras Petrenko         : pre 6.0 DFT Hessian and TD-DFT gradient, (ASA, deprecated), ECA, 1-Electron XAS/XES, NRVS 
  Peter Pinski           : DLPNO-MP2, DLPNO-MP2 Gradient                 
  Christoph Reimann      : Effective Core Potentials                     
  Marius Retegan         : Local ZFS, SOC                                
  Christoph Riplinger    : Optimizer, TS searches, QM/MM, DLPNO-CCSD(T), (RO)-DLPNO pert. Triples 
  Michael Roemelt        : Original ROCIS implementation                 
  Masaaki Saitow         : Open-shell DLPNO-CCSD energy and density      
  Barbara Sandhoefer     : DKH picture change effects                    
  Kantharuban Sivalingam : CASSCF convergence/infrastructure, NEVPT2 and variants, FIC-MRCI 
  Bernardo de Souza      : ESD, SOC TD-DFT                               
  Georgi L. Stoychev     : AutoAux, RI-MP2 NMR, DLPNO-MP2 response, X2C  
  Van Anh Tran           : RI-MP2 g-tensors                              
  Willem Van den Heuvel  : Paramagnetic NMR                              
  Zikuan Wang            : NOTCH, Electric field optimization            
  Frank Wennmohs         : Technical directorship and infrastructure     
  Hang Xu                : AUTO-CI-Response properties                   
                                                                         
[FACCTs GmbH]                                                            
  Markus Bursch, Miquel Garcia-Rates, Christoph Riplinger, Bernardo de Souza, Georgi L. Stoychev 
                                                                 
  APM, Basis sets (HGBS, AHGBS, def-TZVP (Ac-Lr), def2-XVPD (La-Lu)), CI-OPT, improved COSX, DLPNO-Multilevel,           
  DOCKER, DRACO, updates on ESD, GOAT, IRC, LR-CPCM, MBIS, meta-GGA TD-DFT gradient, ML-optimized integration grids, 
  MM, NACMEs, nearIR, NEB, NEB-TS, NL-DFT gradient (VV10), 2- and 3-layer-ONIOM, interface openCOSMO-RS, QMMM,   
  Crystal-QMMM, SF, symmetry and pop. for TD-DFT, r2SCAN hybrids, SOLVATOR                                   
                                                                         
[Other institutions]                                                     
  V. Asgeirsson          : NEB                                           
  Christoph Bannwarth    : sTDA-DFT, sTD-DFT, PBEh-3c, B97-3c, D3        
  Sebastian Ehlert       : rSCAN, r2SCAN, r2SCAN-3c, D4, dhf basis sets  
  Marvin Friede          : D4 for Fr, Ra, Ac-Lr                          
  Lars Goerigk           : TD-DFT with DH, B97 family of functionals     
  Stefan Grimme          : VdW corrections, initial TS optimization, DFT functionals, gCP, sTDA/sTD-DF 
  Waldemar Hujo          : DFT-NL                                        
  H. Jonsson             : NEB                                           
  Holger Kruse           : gCP                                           
  Marcel Mueller         : wB97X-3c, vDZP basis set                      
  Hagen Neugebauer       : wr2SCAN                                       
  Tobias Risthaus        : range-separated hybrid DFT                    
  Lukas Wittmann         : regularized MP2, r2SCAN double-hybrids, wr2SCAN        
                                                                         
We gratefully acknowledge several colleagues who have allowed us to      
interface, adapt or use parts of their codes:                            
  Ed Valeev, F. Pavosevic, A. Kumar             : LibInt (2-el integral package), F12 methods 
  Garnet Chan, S. Sharma, J. Yang, R. Olivares  : DMRG                   
  Ulf Ekstrom                                   : XCFun DFT Library      
  Mihaly Kallay                                 : mrcc  (arbitrary order and MRCC methods)
  Frank Weinhold                                : gennbo (NPA and NBO analysis)           
  Simon Mueller                                 : openCOSMO-RS                            
  Christopher J. Cramer and Donald G. Truhlar   : smd solvation model                     
  S Lehtola, MJT Oliveira, MAL Marques          : LibXC Library                           
  Liviu Ungur et al                             : ANISO software                          


 Your calculation uses the libint2 library for the computation of 2-el integrals
 For citations please refer to: http://libint.valeyev.net

 Your ORCA version has been built with support for libXC version: 6.2.2
 For citations please refer to: https://libxc.gitlab.io

 This ORCA versions uses:
   CBLAS   interface :  Fast vector & matrix operations
   LAPACKE interface :  Fast linear algebra routines
   SCALAPACK package :  Parallel linear algebra routines
   Shared memory     :  Shared parallel matrices
   BLAS/LAPACK       :  OpenBLAS 0.3.27  USE64BITINT DYNAMIC_ARCH NO_AFFINITY SkylakeX SINGLE_THREADED
        Core in use  :  SkylakeX
   Copyright (c) 2011-2014, The OpenBLAS Project


NOTE: MaxCore=5000 MB was set to SCF,MP2,MDCI,CIPSI,MRCI and CIS
      => If you want to overwrite this, your respective input block should be placed after the MaxCore statement
Your calculation utilizes the atom-pairwise dispersion correction
based on EEQ partial charges (D4)


Warning: RI is on but no J-basis has been assigned. Assigning Def2/J (nothing to worry about!)
================================================================================

----- Orbital basis set information -----
Your calculation utilizes the basis: def2-TZVP
   F. Weigend and R. Ahlrichs, Phys. Chem. Chem. Phys. 7, 3297 (2005).

----- AuxJ basis set information -----
Your calculation utilizes the auxiliary basis: def2/J
   F. Weigend, Phys. Chem. Chem. Phys. 8, 1057 (2006).

================================================================================
                                        WARNINGS
                       Please study these warnings very carefully!
================================================================================


================================================================================
                                       INPUT FILE
================================================================================
NAME = input.inp
|  1> ! SP B3LYP D4 def2-TZVP TightSCF CPCM(water)
|  2> 
|  3> %maxcore 5000
|  4> 
|  5> %pal
|  6> nprocs 30
|  7> end
|  8> 
|  9> %geom
| 10>     MaxIter 500
| 11> end
| 12> 
| 13> * xyz 0 1
| 14> H            0.85071085249627       -0.39917955494793       -0.67491263861731
| 15> C            0.02583639257483       -1.05544605626013       -0.40351011744639
| 16> H           -0.78391913697555       -0.46549387199096       -2.18611655567772
| 17> H            0.30998049635366       -2.08877617892099       -0.57917359013520
| 18> N           -1.13530176550519       -0.71855479115885       -1.24272392851691
| 19> H            0.44295077747113       -1.41425635891066        1.67604954816387
| 20> C           -0.27863302230341       -0.86797230287018        1.07235571428953
| 21> O           -0.38044127163170        1.50417212226645        0.70593465684580
| 22> C           -0.24896799750634        0.57626815927188        1.52488477522330
| 23> H           -1.63928632124934        0.07593867696449       -0.82665864443766
| 24> O           -0.07433188972996        0.79729414151726        2.76468200572708
| 25> H           -1.82970608628783       -1.48623881060472       -1.29215794289731
| 26> H           -1.27502314382928       -1.24554660187385        1.29935644549321
| 27> *
| 28> 
| 29>                          ****END OF INPUT****
================================================================================

                       ****************************
                       * Single Point Calculation *
                       ****************************

---------------------------------
CARTESIAN COORDINATES (ANGSTROEM)
---------------------------------
  H      0.850711   -0.399180   -0.674913
  C      0.025836   -1.055446   -0.403510
  H     -0.783919   -0.465494   -2.186117
  H      0.309980   -2.088776   -0.579174
  N     -1.135302   -0.718555   -1.242724
  H      0.442951   -1.414256    1.676050
  C     -0.278633   -0.867972    1.072356
  O     -0.380441    1.504172    0.705935
  C     -0.248968    0.576268    1.524885
  H     -1.639286    0.075939   -0.826659
  O     -0.074332    0.797294    2.764682
  H     -1.829706   -1.486239   -1.292158
  H     -1.275023   -1.245547    1.299356

----------------------------
CARTESIAN COORDINATES (A.U.)
----------------------------
  NO LB      ZA    FRAG     MASS         X           Y           Z
   0 H     1.0000    0     1.008    1.607611   -0.754340   -1.275400
   1 C     6.0000    0    12.011    0.048824   -1.994504   -0.762524
   2 H     1.0000    0     1.008   -1.481392   -0.879656   -4.131162
   3 H     1.0000    0     1.008    0.585778   -3.947215   -1.094479
   4 N     7.0000    0    14.007   -2.145409   -1.357872   -2.348408
   5 H     1.0000    0     1.008    0.837056   -2.672557    3.167275
   6 C     6.0000    0    12.011   -0.526540   -1.640230    2.026459
   7 O     8.0000    0    15.999   -0.718930    2.842473    1.334023
   8 C     6.0000    0    12.011   -0.470481    1.088989    2.881615
   9 H     1.0000    0     1.008   -3.097802    0.143503   -1.562158
  10 O     8.0000    0    15.999   -0.140467    1.506668    5.224492
  11 H     1.0000    0     1.008   -3.457643   -2.808584   -2.441825
  12 H     1.0000    0     1.008   -2.409445   -2.353742    2.455428

--------------------------------
INTERNAL COORDINATES (ANGSTROEM)
--------------------------------
 H      0   0   0     0.000000000000     0.00000000     0.00000000
 C      1   0   0     1.088468154735     0.00000000     0.00000000
 H      2   1   0     2.044855327642    84.76648085     0.00000000
 H      2   1   3     1.085986496117   109.57719599   102.71753097
 N      3   2   1     1.038026603428    43.23396367   214.27380830
 H      2   1   3     2.151115442325   101.22548538   193.47110838
 C      6   2   1     1.087913459352    41.51160256   108.59563300
 O      7   6   2     2.402435948090   127.48478498   255.08853652
 C      8   7   6     1.244576346690    32.75465350   313.91777055
 H      5   3   2     1.028751973964   110.18941479   119.40882865
 O      9   8   7     1.271395857997   121.77329492   179.40607398
 H      5   3   2     1.036329984229   111.34994762   235.81541394
 H      7   6   2     1.089442498487   108.47969490   120.52269292

---------------------------
INTERNAL COORDINATES (A.U.)
---------------------------
 H      0   0   0     0.000000000000     0.00000000     0.00000000
 C      1   0   0     2.056906717945     0.00000000     0.00000000
 H      2   1   0     3.864216552733    84.76648085     0.00000000
 H      2   1   3     2.052217062797   109.57719599   102.71753097
 N      3   2   1     1.961586000203    43.23396367   214.27380830
 H      2   1   3     4.065019068443   101.22548538   193.47110838
 C      6   2   1     2.055858495582    41.51160256   108.59563300
 O      7   6   2     4.539945996178   127.48478498   255.08853652
 C      8   7   6     2.351908448001    32.75465350   313.91777055
 H      5   3   2     1.944059490523   110.18941479   119.40882865
 O      9   8   7     2.402589979416   121.77329492   179.40607398
 H      5   3   2     1.958379854564   111.34994762   235.81541394
 H      7   6   2     2.058747960795   108.47969490   120.52269292

---------------------
BASIS SET INFORMATION
---------------------
There are 4 groups of distinct atoms

 Group   1 Type H   : 5s1p contracted to 3s1p pattern {311/1}
 Group   2 Type C   : 11s6p2d1f contracted to 5s3p2d1f pattern {62111/411/11/1}
 Group   3 Type N   : 11s6p2d1f contracted to 5s3p2d1f pattern {62111/411/11/1}
 Group   4 Type O   : 11s6p2d1f contracted to 5s3p2d1f pattern {62111/411/11/1}

Atom   0H    basis set group =>   1
Atom   1C    basis set group =>   2
Atom   2H    basis set group =>   1
Atom   3H    basis set group =>   1
Atom   4N    basis set group =>   3
Atom   5H    basis set group =>   1
Atom   6C    basis set group =>   2
Atom   7O    basis set group =>   4
Atom   8C    basis set group =>   2
Atom   9H    basis set group =>   1
Atom  10O    basis set group =>   4
Atom  11H    basis set group =>   1
Atom  12H    basis set group =>   1
---------------------------------
AUXILIARY/J BASIS SET INFORMATION
---------------------------------
There are 4 groups of distinct atoms

 Group   1 Type H   : 5s2p1d contracted to 3s1p1d pattern {311/2/1}
 Group   2 Type C   : 12s5p4d2f1g contracted to 6s4p3d1f1g pattern {711111/2111/211/2/1}
 Group   3 Type N   : 12s5p4d2f1g contracted to 6s4p3d1f1g pattern {711111/2111/211/2/1}
 Group   4 Type O   : 12s5p4d2f1g contracted to 6s4p3d1f1g pattern {711111/2111/211/2/1}

Atom   0H    basis set group =>   1
Atom   1C    basis set group =>   2
Atom   2H    basis set group =>   1
Atom   3H    basis set group =>   1
Atom   4N    basis set group =>   3
Atom   5H    basis set group =>   1
Atom   6C    basis set group =>   2
Atom   7O    basis set group =>   4
Atom   8C    basis set group =>   2
Atom   9H    basis set group =>   1
Atom  10O    basis set group =>   4
Atom  11H    basis set group =>   1
Atom  12H    basis set group =>   1
--------------------------------------------------------------------------
By default, for Open MPI 4.0 and later, infiniband ports on a device
are not used by default.  The intent is to use UCX for these devices.
You can override this policy by setting the btl_openib_allow_ib MCA parameter
to true.

  Local host:              psid05
  Local adapter:           mlx4_0
  Local port:              1

--------------------------------------------------------------------------
--------------------------------------------------------------------------
WARNING: There was an error initializing an OpenFabrics device.

  Local host:   psid05
  Local device: mlx4_0
--------------------------------------------------------------------------


           ************************************************************
           *        Program running with 30 parallel MPI-processes    *
           *              working on a common directory               *
           ************************************************************
------------------------------------------------------------------------------
                             ORCA STARTUP CALCULATIONS
                           -- RI-GTO INTEGRALS CHOSEN --
------------------------------------------------------------------------------
------------------------------------------------------------------------------
                   ___                                                        
                  /   \      - P O W E R E D   B Y -                         
                 /     \                                                     
                 |  |  |   _    _      __       _____    __    __             
                 |  |  |  | |  | |    /  \     |  _  \  |  |  /  |          
                  \  \/   | |  | |   /    \    | | | |  |  | /  /          
                 / \  \   | |__| |  /  /\  \   | |_| |  |  |/  /          
                |  |  |   |  __  | /  /__\  \  |    /   |      \           
                |  |  |   | |  | | |   __   |  |    \   |  |\   \          
                \     /   | |  | | |  |  |  |  | |\  \  |  | \   \       
                 \___/    |_|  |_| |__|  |__|  |_| \__\ |__|  \__/        
                                                                              
                      - O R C A' S   B I G   F R I E N D -                    
                                      &                                       
                       - I N T E G R A L  F E E D E R -                       
                                                                              
 v1 FN, 2020, v2 2021, v3 2022-2024                                           
------------------------------------------------------------------------------


----------------------
SHARK INTEGRAL PACKAGE
----------------------

Number of atoms                             ...     13
Number of basis functions                   ...    228
Number of shells                            ...     94
Maximum angular momentum                    ...      3
Integral batch strategy                     ... SHARK/LIBINT Hybrid
RI-J (if used) integral strategy            ... SPLIT-RIJ (Revised 2003 algorithm where possible)
Printlevel                                  ...      1
Contraction scheme used                     ... SEGMENTED contraction
Prescreening option                         ... SCHWARTZ
   Thresh                                   ... 2.500e-11
   Tcut                                     ... 2.500e-12
   Tpresel                                  ... 2.500e-12 
Coulomb Range Separation                    ... NOT USED
Exchange Range Separation                   ... NOT USED
Multipole approximations                    ... NOT USED
Finite Nucleus Model                        ... NOT USED
CABS basis                                  ... NOT available
Auxiliary Coulomb fitting basis             ... AVAILABLE
   # of basis functions in Aux-J            ...    371
   # of shells in Aux-J                     ...    125
   Maximum angular momentum in Aux-J        ...      4
Auxiliary J/K fitting basis                 ... NOT available
Auxiliary Correlation fitting basis         ... NOT available
Auxiliary 'external' fitting basis          ... NOT available

Checking pre-screening integrals            ... done (  0.0 sec) Dimension = 94
Check shell pair data                       ... done (  0.0 sec)
Shell pair information
Shell pair cut-off parameter TPreSel        ...   2.5e-12
Total number of shell pairs                 ...      4465
Shell pairs after pre-screening             ...      4202
Total number of primitive shell pairs       ...     13356
Primitive shell pairs kept                  ...      9760
          la=0 lb=0:   1212 shell pairs
          la=1 lb=0:   1213 shell pairs
          la=1 lb=1:    321 shell pairs
          la=2 lb=0:    570 shell pairs
          la=2 lb=1:    291 shell pairs
          la=2 lb=2:     76 shell pairs
          la=3 lb=0:    284 shell pairs
          la=3 lb=1:    145 shell pairs
          la=3 lb=2:     70 shell pairs
          la=3 lb=3:     20 shell pairs

Calculating one electron integrals          ... done (  0.0 sec)
Calculating RI/J V-Matrix + Cholesky decomp.... done (  0.2 sec)
Calculating Nuclear repulsion               ... done (  0.0 sec) ENN=    245.377363861150 Eh

Diagonalization of the overlap matrix:
Smallest eigenvalue                        ... 1.934e-04
Time for diagonalization                   ...    0.005 sec
Threshold for overlap eigenvalues          ... 1.000e-07
Number of eigenvalues below threshold      ... 0
Time for construction of square roots      ...    0.003 sec
Total time needed                          ...    0.015 sec

-------------------
DFT GRID GENERATION
-------------------

General Integration Accuracy     IntAcc      ... 4.388
Radial Grid Type                 RadialGrid  ... OptM3 with GC (2021)
Angular Grid (max. ang.)         AngularGrid ... 4 (Lebedev-302)
Angular grid pruning method      GridPruning ... 4 (adaptive)
Weight generation scheme         WeightScheme... mBecke (2022)
Basis function cutoff            BFCut       ... 1.0000e-11
Integration weight cutoff        WCut        ... 1.0000e-14
Partially contracted basis set               ... off
Rotationally invariant grid construction     ... off
Angular grids for H and He will be reduced by one unit

Total number of grid points                  ...    58845
Total number of batches                      ...      926
Average number of points per batch           ...       63
Average number of grid points per atom       ...     4527

--------------------
COSX GRID GENERATION
--------------------

GRIDX 1
-------
General Integration Accuracy     IntAcc      ... 3.816
Radial Grid Type                 RadialGrid  ... OptM3 with GC (2021)
Angular Grid (max. ang.)         AngularGrid ... 1 (Lebedev-50)
Angular grid pruning method      GridPruning ... 4 (adaptive)
Weight generation scheme         WeightScheme... mBecke (2022)
Basis function cutoff            BFCut       ... 1.0000e-11
Integration weight cutoff        WCut        ... 1.0000e-14
Partially contracted basis set               ... on
Rotationally invariant grid construction     ... off
Angular grids for H and He will be reduced by one unit

Total number of grid points                  ...     7523
Total number of batches                      ...       69
Average number of points per batch           ...      109
Average number of grid points per atom       ...      579
UseSFitting                                  ... on

GRIDX 2
-------
General Integration Accuracy     IntAcc      ... 4.020
Radial Grid Type                 RadialGrid  ... OptM3 with GC (2021)
Angular Grid (max. ang.)         AngularGrid ... 2 (Lebedev-110)
Angular grid pruning method      GridPruning ... 4 (adaptive)
Weight generation scheme         WeightScheme... mBecke (2022)
Basis function cutoff            BFCut       ... 1.0000e-11
Integration weight cutoff        WCut        ... 1.0000e-14
Partially contracted basis set               ... on
Rotationally invariant grid construction     ... off
Angular grids for H and He will be reduced by one unit

Total number of grid points                  ...    16246
Total number of batches                      ...      135
Average number of points per batch           ...      120
Average number of grid points per atom       ...     1250
UseSFitting                                  ... on

GRIDX 3
-------
General Integration Accuracy     IntAcc      ... 4.338
Radial Grid Type                 RadialGrid  ... OptM3 with GC (2021)
Angular Grid (max. ang.)         AngularGrid ... 3 (Lebedev-194)
Angular grid pruning method      GridPruning ... 4 (adaptive)
Weight generation scheme         WeightScheme... mBecke (2022)
Basis function cutoff            BFCut       ... 1.0000e-11
Integration weight cutoff        WCut        ... 1.0000e-14
Partially contracted basis set               ... on
Rotationally invariant grid construction     ... off
Angular grids for H and He will be reduced by one unit

Total number of grid points                  ...    35732
Total number of batches                      ...      284
Average number of points per batch           ...      125
Average number of grid points per atom       ...     2749
UseSFitting                                  ... on
Initializing property integral containers    ... done (  0.0 sec)

SHARK setup successfully completed in   1.0 seconds

Maximum memory used throughout the entire STARTUP-calculation: 19.5 MB
[psid05:148365] 29 more processes have sent help message help-mpi-btl-openib.txt / ib port not selected
[psid05:148365] Set MCA parameter "orte_base_help_aggregate" to 0 to see all help / error messages
[psid05:148365] 29 more processes have sent help message help-mpi-btl-openib.txt / error in device init
--------------------------------------------------------------------------
By default, for Open MPI 4.0 and later, infiniband ports on a device
are not used by default.  The intent is to use UCX for these devices.
You can override this policy by setting the btl_openib_allow_ib MCA parameter
to true.

  Local host:              psid05
  Local adapter:           mlx4_0
  Local port:              1

--------------------------------------------------------------------------
--------------------------------------------------------------------------
WARNING: There was an error initializing an OpenFabrics device.

  Local host:   psid05
  Local device: mlx4_0
--------------------------------------------------------------------------


           ************************************************************
           *        Program running with 30 parallel MPI-processes    *
           *              working on a common directory               *
           ************************************************************
-------------------------------------------------------------------------------
                                 ORCA GUESS
                   Start orbitals & Density for SCF / CASSCF
-------------------------------------------------------------------------------

------------
SCF SETTINGS
------------
Hamiltonian:
 Density Functional     Method          .... DFT(GTOs)
 Exchange Functional    Exchange        .... B88
   X-Alpha parameter    XAlpha          ....  0.666667
   Becke's b parameter  XBeta           ....  0.004200
 Correlation Functional Correlation     .... LYP
 LDA part of GGA corr.  LDAOpt          .... VWN-5
 Gradients option       PostSCFGGA      .... off
 Hybrid DFT is turned on
   Fraction HF Exchange ScalHFX         ....  0.200000
   Scaling of DF-GGA-X  ScalDFX         ....  0.720000
   Scaling of DF-GGA-C  ScalDFC         ....  0.810000
   Scaling of DF-LDA-C  ScalLDAC        ....  1.000000
   Perturbative correction              ....  0.000000
   NL short-range parameter             ....  4.800000
 RI-approximation to the Coulomb term is turned on
   Number of AuxJ basis functions       .... 371
   RIJ-COSX (HFX calculated with COS-X)).... on


General Settings:
 Integral files         IntName         .... input
 Hartree-Fock type      HFTyp           .... RHF
 Total Charge           Charge          ....    0
 Multiplicity           Mult            ....    1
 Number of Electrons    NEL             ....   48
 Basis Dimension        Dim             ....  228
 Nuclear Repulsion      ENuc            ....    245.3773638611 Eh

Convergence Acceleration:
 AO-DIIS                CNVDIIS         .... on
   Start iteration      DIISMaxIt       ....    12
   Startup error        DIISStart       ....  0.200000
   # of expansion vecs  DIISMaxEq       ....     5
   Bias factor          DIISBfac        ....   1.050
   Max. coefficient     DIISMaxC        ....  10.000
 MO-DIIS                CNVKDIIS        .... off
 Trust-Rad. Augm. Hess. CNVTRAH         .... auto
   Auto Start mean grad. ratio tolernc. ....  1.125000
   Auto Start start iteration           ....    50
   Auto Start num. interpolation iter.  ....    10
   Max. Number of Micro iterations      ....    24
   Max. Number of Macro iterations      .... Maxiter - #DIIS iter
   Number of Davidson start vectors     ....     2
   Converg. threshold    (grad. norm)   ....   1.000e-05
   Grad. Scal. Fac. for Micro threshold ....   0.100
   Minimum threshold for Micro iter.    ....   1.000e-02
   NR start threshold (gradient norm)   ....   1.000e-04
   Initial trust radius                 ....   0.400
   Minimum AH scaling param. (alpha)    ....   1.000
   Maximum AH scaling param. (alpha)    .... 1000.000
   Quad. conv. algorithm                .... NR
   White noise on init. David. guess    .... on
   Maximum white noise                  ....   0.010
   Pseudo random numbers                .... off
   Inactive MOs                         .... canonical
   Orbital update algorithm             .... Taylor
   Preconditioner                       .... Diag
   Full preconditioner red. dimension   ....   250
 SOSCF                  CNVSOSCF        .... on
   Start iteration      SOSCFMaxIt      ....   150
   Startup grad/error   SOSCFStart      ....  0.003300
   Hessian update       SOSCFHessUp     .... L-BFGS
 Level Shifting         CNVShift        .... on
   Level shift para.    LevelShift      ....    0.2500
   Turn off err/grad.   ShiftErr        ....    0.0010
 Zerner damping         CNVZerner       .... off
 Static damping         CNVDamp         .... on
   Fraction old density DampFac         ....    0.7000
   Max. Damping (<1)    DampMax         ....    0.9800
   Min. Damping (>=0)   DampMin         ....    0.0000
   Turn off err/grad.   DampErr         ....    0.1000

SCF Procedure:
 Maximum # iterations   MaxIter         ....   125
 SCF integral mode      SCFMode         .... Direct
   Integral package                     .... SHARK and LIBINT hybrid scheme
 Reset frequency        DirectResetFreq ....    20
 Integral Threshold     Thresh          ....  2.500e-11 Eh
 Primitive CutOff       TCut            ....  2.500e-12 Eh

Convergence Tolerance:
 Convergence Check Mode ConvCheckMode   .... Total+1el-Energy
 Convergence forced     ConvForced      .... 0
 Energy Change          TolE            ....  1.000e-08 Eh
 1-El. energy change                    ....  1.000e-05 Eh
 Orbital Gradient       TolG            ....  1.000e-05
 Orbital Rotation angle TolX            ....  1.000e-05
 DIIS Error             TolErr          ....  5.000e-07

------------------------------
INITIAL GUESS: MODEL POTENTIAL
------------------------------
Loading Hartree-Fock densities                     ... done
Calculating cut-offs                               ... done
Initializing the effective Hamiltonian             ... done
Setting up the integral package (SHARK)            ... done
Starting the Coulomb interaction                   ... done (   0.1 sec)
Making the grid                                    ... done (   0.1 sec)
Mapping shells                                     ... done
Starting the XC term evaluation                    ... done (   0.0 sec)
  promolecular density results
     # of electrons  =     47.996423351
     EX              =    -40.480031497
     EC              =     -1.635801846
     EX+EC           =    -42.115833343
Transforming the Hamiltonian                       ... done (   0.0 sec)
Diagonalizing the Hamiltonian                      ... done (   0.0 sec)
Back transforming the eigenvectors                 ... done (   0.0 sec)
Now organizing SCF variables                       ... done
                      ------------------
                      INITIAL GUESS DONE (   0.2 sec)
                      ------------------
             **** ENERGY FILE WAS UPDATED (input.en.tmp) ****
Finished Guess after   1.1 sec
Maximum memory used throughout the entire GUESS-calculation: 12.7 MB
[psid05:148473] 29 more processes have sent help message help-mpi-btl-openib.txt / ib port not selected
[psid05:148473] Set MCA parameter "orte_base_help_aggregate" to 0 to see all help / error messages
[psid05:148473] 29 more processes have sent help message help-mpi-btl-openib.txt / error in device init
--------------------------------------------------------------------------
By default, for Open MPI 4.0 and later, infiniband ports on a device
are not used by default.  The intent is to use UCX for these devices.
You can override this policy by setting the btl_openib_allow_ib MCA parameter
to true.

  Local host:              psid05
  Local adapter:           mlx4_0
  Local port:              1

--------------------------------------------------------------------------
--------------------------------------------------------------------------
WARNING: There was an error initializing an OpenFabrics device.

  Local host:   psid05
  Local device: mlx4_0
--------------------------------------------------------------------------


           ************************************************************
           *        Program running with 30 parallel MPI-processes    *
           *              working on a common directory               *
           ************************************************************

-------------------------------------------------------------------------------------------
                                      ORCA LEAN-SCF
                              memory conserving SCF solver
-------------------------------------------------------------------------------------------

--------------------
CPCM SOLVATION MODEL
--------------------
CPCM parameters:
  Epsilon                                         ...      80.1510
  Refrac                                          ...       1.3328
  Rsolv                                           ...       1.3000
  Surface type                                    ... GAUSSIAN VDW
  Discretization scheme                           ... Constant charge density
    Threshold for H atoms                         ...       5.0000 (charges/Ang^2)
    Threshold for non-H atoms                     ...       5.0000 (charges/Ang^2)
  Epsilon function type                           ...         CPCM
Solvent:                                          ... WATER
Radii:
  Scheme                                          ... Element-dependent radii
  Radius for H  used is    2.4944 Bohr (=   1.3200 Ang.)
  Radius for C  used is    3.8550 Bohr (=   2.0400 Ang.)
  Radius for N  used is    3.5149 Bohr (=   1.8600 Ang.)
  Radius for O  used is    3.4469 Bohr (=   1.8240 Ang.)
Calculating surface                               ...        done! (  0.0s)
Cavity surface points                             ...         1144
Cavity Volume                                     ...     757.0654
Cavity Surface-area                               ...     466.2067
Calculating surface distance matrix               ...        done! (  0.0s)
Performing Cholesky decomposition & store         ...        done! (  0.0s)
Overall time for CPCM initialization              ...                 0.1s

----------------------------------------D-I-I-S--------------------------------------------
Iteration    Energy (Eh)           Delta-E    RMSDP     MaxDP     DIISErr   Damp  Time(sec)
-------------------------------------------------------------------------------------------
               ***  Starting incremental Fock matrix formation  ***
    1    -323.4281267799169086     0.00e+00  4.79e-03  4.42e-01  3.54e-01  0.700   0.8
    2    -323.5700191788295683    -1.42e-01  4.53e-03  4.57e-01  1.45e-01  0.700   0.5
                               ***Turning on AO-DIIS***
    3    -323.6187955483608789    -4.88e-02  1.48e-03  1.31e-01  4.03e-02  0.700   0.5
    4    -323.6495036991253187    -3.07e-02  1.18e-03  7.44e-02  1.74e-02  0.000   0.4
    5    -323.7195229874761822    -7.00e-02  1.17e-03  1.24e-01  8.71e-03  0.000   0.4
                              *** Initializing SOSCF ***
---------------------------------------S-O-S-C-F--------------------------------------
Iteration    Energy (Eh)           Delta-E    RMSDP     MaxDP     MaxGrad    Time(sec)
--------------------------------------------------------------------------------------
    6    -323.7198979751893262    -3.75e-04  4.22e-04  4.45e-02  1.69e-03     0.5
               *** Restarting incremental Fock matrix formation ***
    7    -323.7198999924970053    -2.02e-06  2.63e-04  2.69e-02  3.11e-04     0.5
    8    -323.7199020798081506    -2.09e-06  6.97e-05  6.58e-03  3.82e-04     0.5
[psid05:148568] 29 more processes have sent help message help-mpi-btl-openib.txt / ib port not selected
[psid05:148568] Set MCA parameter "orte_base_help_aggregate" to 0 to see all help / error messages
[psid05:148568] 29 more processes have sent help message help-mpi-btl-openib.txt / error in device init
    9    -323.7199039893712893    -1.91e-06  7.66e-05  7.80e-03  2.05e-04     0.4
   10    -323.7199043778452392    -3.88e-07  8.90e-06  6.06e-04  7.06e-05     0.4
   11    -323.7199046569083407    -2.79e-07  2.33e-05  2.39e-03  4.21e-05     0.5
   12    -323.7199046813627206    -2.45e-08  4.66e-06  4.76e-04  2.94e-05     0.4
   13    -323.7199046977803505    -1.64e-08  4.82e-06  4.79e-04  9.00e-06     0.4
   14    -323.7199047008720640    -3.09e-09  2.00e-06  2.06e-04  2.24e-06     0.4
                 **** Energy Check signals convergence ****

               *****************************************************
               *                     SUCCESS                       *
               *           SCF CONVERGED AFTER  14 CYCLES          *
               *****************************************************

Recomputing exchange energy using gridx3       ... done (    0.354 sec)
Old exchange energy                            :     -8.226641276 Eh
New exchange energy                            :     -8.226630048 Eh
Exchange energy change after final integration :      0.000011229 Eh
Total energy after final integration           :   -323.719893472 Eh
             **** ENERGY FILE WAS UPDATED (input.en.tmp) ****

----------------
TOTAL SCF ENERGY
----------------

Total Energy       :       -323.71989347232034 Eh           -8808.86614 eV

Components:
Nuclear Repulsion  :        245.37736386114983 Eh            6677.05753 eV
Electronic Energy  :       -568.99999973641820 Eh          -15483.27715 eV
One Electron Energy:       -927.79177033033477 Eh          -25246.49758 eV
Two Electron Energy:        358.79177059391662 Eh            9763.22043 eV
CPCM Dielectric    :         -0.09726882560367 Eh              -2.64682 eV

Virial components:
Potential Energy   :       -646.04804819392484 Eh          -17579.86113 eV
Kinetic Energy     :        322.32815472160451 Eh            8770.99500 eV
Virial Ratio       :          2.00431776973351

DFT components:
N(Alpha)           :       24.000034833961 electrons
N(Beta)            :       24.000034833961 electrons
N(Total)           :       48.000069667922 electrons
E(X)               :      -32.727704268973 Eh       
E(C)               :       -1.935015671632 Eh       
E(XC)              :      -34.662719940605 Eh       

CPCM Solvation Model Properties:
Surface-charge          :         -0.01837723397057
Corrected charge        :          0.00000000000000
Outlying charge corr.   :          0.00002811765519 Eh               0.00077 eV
Free-energy (cav+disp)  :  This term is not implemented in the current solvation scheme

---------------
SCF CONVERGENCE
---------------

  Last Energy change         ...    3.0917e-09  Tolerance :   1.0000e-08
  Last MAX-Density change    ...    2.0598e-04  Tolerance :   1.0000e-07
  Last RMS-Density change    ...    1.9983e-06  Tolerance :   5.0000e-09
  Last DIIS Error            ...    1.6877e-03  Tolerance :   5.0000e-07
  Last Orbital Gradient      ...    2.2447e-06  Tolerance :   1.0000e-05
  Last Orbital Rotation      ...    9.6276e-06  Tolerance :   1.0000e-05


----------------
ORBITAL ENERGIES
----------------

  NO   OCC          E(Eh)            E(eV) 
   0   2.0000     -19.059501      -518.6354 
   1   2.0000     -19.048493      -518.3358 
   2   2.0000     -14.426149      -392.5555 
   3   2.0000     -10.244309      -278.7618 
   4   2.0000     -10.220584      -278.1162 
   5   2.0000     -10.168393      -276.6960 
   6   2.0000      -1.021319       -27.7915 
   7   2.0000      -0.993692       -27.0397 
   8   2.0000      -0.920322       -25.0432 
   9   2.0000      -0.774293       -21.0696 
  10   2.0000      -0.659671       -17.9506 
  11   2.0000      -0.578273       -15.7356 
  12   2.0000      -0.568460       -15.4686 
  13   2.0000      -0.509080       -13.8528 
  14   2.0000      -0.490589       -13.3496 
  15   2.0000      -0.439435       -11.9576 
  16   2.0000      -0.423730       -11.5303 
  17   2.0000      -0.413699       -11.2573 
  18   2.0000      -0.386347       -10.5130 
  19   2.0000      -0.369355       -10.0507 
  20   2.0000      -0.351765        -9.5720 
  21   2.0000      -0.246708        -6.7133 
  22   2.0000      -0.244629        -6.6567 
  23   2.0000      -0.223683        -6.0867 
  24   0.0000       0.018011         0.4901 
  25   0.0000       0.053036         1.4432 
  26   0.0000       0.064541         1.7563 
  27   0.0000       0.067655         1.8410 
  28   0.0000       0.077027         2.0960 
  29   0.0000       0.112584         3.0636 
  30   0.0000       0.116143         3.1604 
  31   0.0000       0.124894         3.3985 
  32   0.0000       0.147612         4.0167 
  33   0.0000       0.163044         4.4367 
  34   0.0000       0.184876         5.0307 
*Only the first 10 virtual orbitals were printed.

                    ********************************
                    * MULLIKEN POPULATION ANALYSIS *
                    ********************************

-----------------------
MULLIKEN ATOMIC CHARGES
-----------------------
   0 H :    0.152376
   1 C :   -0.100097
   2 H :    0.338186
   3 H :    0.158152
   4 N :   -0.264590
   5 H :    0.119931
   6 C :   -0.246203
   7 O :   -0.555875
   8 C :    0.227615
   9 H :    0.310724
  10 O :   -0.600807
  11 H :    0.333348
  12 H :    0.127239
Sum of atomic charges:   -0.0000000

--------------------------------
MULLIKEN REDUCED ORBITAL CHARGES
--------------------------------
  0 H s       :     0.825870  s :     0.825870
      pz      :     0.004500  p :     0.021753
      px      :     0.009654
      py      :     0.007599

  1 C s       :     3.227783  s :     3.227783
      pz      :     0.866865  p :     2.765562
      px      :     0.828964
      py      :     1.069733
      dz2     :     0.019695  d :     0.098351
      dxz     :     0.028182
      dyz     :     0.020973
      dx2y2   :     0.012967
      dxy     :     0.016534
      f0      :     0.001409  f :     0.008401
      f+1     :     0.002005
      f-1     :     0.001174
      f+2     :     0.001109
      f-2     :     0.000882
      f+3     :     0.000728
      f-3     :     0.001095

  2 H s       :     0.629814  s :     0.629814
      pz      :     0.018160  p :     0.032000
      px      :     0.007221
      py      :     0.006618

  3 H s       :     0.820166  s :     0.820166
      pz      :     0.004350  p :     0.021682
      px      :     0.004451
      py      :     0.012881

  4 N s       :     3.444527  s :     3.444527
      pz      :     1.265378  p :     3.773134
      px      :     1.224640
      py      :     1.283116
      dz2     :     0.014009  d :     0.044586
      dxz     :     0.006156
      dyz     :     0.004308
      dx2y2   :     0.005000
      dxy     :     0.015113
      f0      :     0.000286  f :     0.002343
      f+1     :     0.000673
      f-1     :     0.000127
      f+2     :     0.000135
      f-2     :     0.000450
      f+3     :     0.000494
      f-3     :     0.000178

  5 H s       :     0.857844  s :     0.857844
      pz      :     0.007315  p :     0.022225
      px      :     0.007934
      py      :     0.006976

  6 C s       :     3.192735  s :     3.192735
      pz      :     0.926721  p :     2.974013
      px      :     1.037354
      py      :     1.009938
      dz2     :     0.013908  d :     0.073562
      dxz     :     0.013028
      dyz     :     0.025291
      dx2y2   :     0.009825
      dxy     :     0.011511
      f0      :     0.001464  f :     0.005893
      f+1     :     0.000928
      f-1     :     0.001427
      f+2     :     0.000489
      f-2     :     0.000272
      f+3     :     0.000491
      f-3     :     0.000823

  7 O s       :     3.779158  s :     3.779158
      pz      :     1.618062  p :     4.748495
      px      :     1.556632
      py      :     1.573800
      dz2     :     0.005518  d :     0.026553
      dxz     :     0.003609
      dyz     :     0.008136
      dx2y2   :     0.004087
      dxy     :     0.005203
      f0      :     0.000230  f :     0.001669
      f+1     :     0.000055
      f-1     :     0.000461
      f+2     :     0.000320
      f-2     :     0.000356
      f+3     :     0.000140
      f-3     :     0.000107

  8 C s       :     3.018033  s :     3.018033
      pz      :     0.772142  p :     2.500281
      px      :     0.769122
      py      :     0.959017
      dz2     :     0.063161  d :     0.228371
      dxz     :     0.056973
      dyz     :     0.059901
      dx2y2   :     0.020475
      dxy     :     0.027861
      f0      :     0.004716  f :     0.025700
      f+1     :     0.002991
      f-1     :     0.009053
      f+2     :     0.002909
      f-2     :     0.002859
      f+3     :     0.001825
      f-3     :     0.001347

  9 H s       :     0.655113  s :     0.655113
      pz      :     0.008608  p :     0.034163
      px      :     0.009702
      py      :     0.015853

 10 O s       :     3.775969  s :     3.775969
      pz      :     1.408185  p :     4.797513
      px      :     1.573860
      py      :     1.815468
      dz2     :     0.010547  d :     0.025716
      dxz     :     0.007725
      dyz     :     0.006464
      dx2y2   :     0.000454
      dxy     :     0.000525
      f0      :     0.000581  f :     0.001610
      f+1     :     0.000446
      f-1     :     0.000451
      f+2     :     0.000057
      f-2     :     0.000068
      f+3     :     0.000003
      f-3     :     0.000004

 11 H s       :     0.634377  s :     0.634377
      pz      :     0.005650  p :     0.032276
      px      :     0.012957
      py      :     0.013669

 12 H s       :     0.850802  s :     0.850802
      pz      :     0.004747  p :     0.021959
      px      :     0.011415
      py      :     0.005797



                     *******************************
                     * LOEWDIN POPULATION ANALYSIS *
                     *******************************

----------------------
LOEWDIN ATOMIC CHARGES
----------------------
   0 H :    0.148704
   1 C :   -0.254274
   2 H :    0.236503
   3 H :    0.145804
   4 N :    0.186108
   5 H :    0.153006
   6 C :   -0.251945
   7 O :   -0.110800
   8 C :   -0.688332
   9 H :    0.217331
  10 O :   -0.169528
  11 H :    0.231861
  12 H :    0.155560

-------------------------------
LOEWDIN REDUCED ORBITAL CHARGES
-------------------------------
  0 H s       :     0.790053  s :     0.790053
      pz      :     0.012807  p :     0.061243
      px      :     0.025529
      py      :     0.022907

  1 C s       :     2.791583  s :     2.791583
      pz      :     0.993046  p :     2.975544
      px      :     0.926553
      py      :     1.055945
      dz2     :     0.106979  d :     0.434196
      dxz     :     0.120110
      dyz     :     0.068336
      dx2y2   :     0.064146
      dxy     :     0.074625
      f0      :     0.007186  f :     0.052952
      f+1     :     0.011339
      f-1     :     0.008264
      f+2     :     0.008883
      f-2     :     0.007780
      f+3     :     0.004041
      f-3     :     0.005459

  2 H s       :     0.667474  s :     0.667474
      pz      :     0.054144  p :     0.096022
      px      :     0.022546
      py      :     0.019333

  3 H s       :     0.792863  s :     0.792863
      pz      :     0.012600  p :     0.061332
      px      :     0.012789
      py      :     0.035943

  4 N s       :     2.978098  s :     2.978098
      pz      :     1.218161  p :     3.669219
      px      :     1.218781
      py      :     1.232277
      dz2     :     0.043689  d :     0.156318
      dxz     :     0.026954
      dyz     :     0.015944
      dx2y2   :     0.018641
      dxy     :     0.051090
      f0      :     0.000963  f :     0.010258
      f+1     :     0.002543
      f-1     :     0.000783
      f+2     :     0.001524
      f-2     :     0.001631
      f+3     :     0.001930
      f-3     :     0.000884

  5 H s       :     0.787001  s :     0.787001
      pz      :     0.018984  p :     0.059993
      px      :     0.022650
      py      :     0.018358

  6 C s       :     2.784744  s :     2.784744
      pz      :     1.002466  p :     3.070008
      px      :     1.027993
      py      :     1.039550
      dz2     :     0.084195  d :     0.359236
      dxz     :     0.062964
      dyz     :     0.098534
      dx2y2   :     0.058023
      dxy     :     0.055520
      f0      :     0.006495  f :     0.037956
      f+1     :     0.005567
      f-1     :     0.008443
      f+2     :     0.004554
      f-2     :     0.004875
      f+3     :     0.003314
      f-3     :     0.004708

  7 O s       :     3.419950  s :     3.419950
      pz      :     1.599040  p :     4.623264
      px      :     1.458135
      py      :     1.566090
      dz2     :     0.014905  d :     0.062057
      dxz     :     0.006543
      dyz     :     0.021908
      dx2y2   :     0.011681
      dxy     :     0.007020
      f0      :     0.000811  f :     0.005528
      f+1     :     0.000193
      f-1     :     0.001719
      f+2     :     0.001301
      f-2     :     0.000756
      f+3     :     0.000286
      f-3     :     0.000461

  8 C s       :     2.774197  s :     2.774197
      pz      :     0.976723  p :     2.738747
      px      :     0.745472
      py      :     1.016551
      dz2     :     0.298377  d :     1.011910
      dxz     :     0.191564
      dyz     :     0.310862
      dx2y2   :     0.111150
      dxy     :     0.099956
      f0      :     0.030606  f :     0.163478
      f+1     :     0.017229
      f-1     :     0.056002
      f+2     :     0.019335
      f-2     :     0.021617
      f+3     :     0.009509
      f-3     :     0.009180

  9 H s       :     0.680837  s :     0.680837
      pz      :     0.026411  p :     0.101832
      px      :     0.027594
      py      :     0.047826

 10 O s       :     3.441604  s :     3.441604
      pz      :     1.495896  p :     4.665552
      px      :     1.480898
      py      :     1.688758
      dz2     :     0.026412  d :     0.057385
      dxz     :     0.011903
      dyz     :     0.017580
      dx2y2   :     0.000849
      dxy     :     0.000641
      f0      :     0.002064  f :     0.004988
      f+1     :     0.001018
      f-1     :     0.001614
      f+2     :     0.000149
      f-2     :     0.000131
      f+3     :     0.000005
      f-3     :     0.000007

 11 H s       :     0.671354  s :     0.671354
      pz      :     0.016560  p :     0.096785
      px      :     0.037100
      py      :     0.043125

 12 H s       :     0.783369  s :     0.783369
      pz      :     0.013591  p :     0.061071
      px      :     0.030924
      py      :     0.016556



                      *****************************
                      * MAYER POPULATION ANALYSIS *
                      *****************************

  NA   - Mulliken gross atomic population
  ZA   - Total nuclear charge
  QA   - Mulliken gross atomic charge
  VA   - Mayer's total valence
  BVA  - Mayer's bonded valence
  FA   - Mayer's free valence

  ATOM       NA         ZA         QA         VA         BVA        FA
  0 H      0.8476     1.0000     0.1524     0.9825     0.9825     0.0000
  1 C      6.1001     6.0000    -0.1001     3.7712     3.7712     0.0000
  2 H      0.6618     1.0000     0.3382     0.8838     0.8838    -0.0000
  3 H      0.8418     1.0000     0.1582     0.9642     0.9642     0.0000
  4 N      7.2646     7.0000    -0.2646     3.5193     3.5193    -0.0000
  5 H      0.8801     1.0000     0.1199     0.9992     0.9992    -0.0000
  6 C      6.2462     6.0000    -0.2462     3.6283     3.6283     0.0000
  7 O      8.5559     8.0000    -0.5559     1.8297     1.8297    -0.0000
  8 C      5.7724     6.0000     0.2276     4.6170     4.6170    -0.0000
  9 H      0.6893     1.0000     0.3107     0.9321     0.9321    -0.0000
 10 O      8.6008     8.0000    -0.6008     1.8194     1.8194    -0.0000
 11 H      0.6667     1.0000     0.3333     0.8882     0.8882    -0.0000
 12 H      0.8728     1.0000     0.1272     0.9790     0.9790    -0.0000

  Mayer bond orders larger than 0.100000
B(  0-H ,  1-C ) :   0.9679 B(  1-C ,  3-H ) :   0.9575 B(  1-C ,  4-N ) :   0.8958 
B(  1-C ,  6-C ) :   0.9327 B(  2-H ,  4-N ) :   0.8711 B(  4-N ,  9-H ) :   0.8664 
B(  4-N , 11-H ) :   0.8694 B(  5-H ,  6-C ) :   0.9518 B(  6-C ,  8-C ) :   0.9480 
B(  6-C , 12-H ) :   0.9375 B(  7-O ,  8-C ) :   1.8013 B(  8-C , 10-O ) :   1.8363 


-------
TIMINGS
-------

Total SCF time: 0 days 0 hours 0 min 8 sec 

Total time                  ....       8.272 sec
Sum of individual times     ....       8.068 sec  ( 97.5%)

SCF preparation             ....       1.031 sec  ( 12.5%)
Fock matrix formation       ....       5.707 sec  ( 69.0%)
  Startup                   ....       0.180 sec  (  3.2% of F)
  Split-RI-J                ....       0.531 sec  (  9.3% of F)
  Chain of spheres X        ....       2.639 sec  ( 46.2% of F)
  XC integration            ....       1.581 sec  ( 27.7% of F)
    Basis function eval.    ....       0.134 sec  (  8.5% of XC)
    Density eval.           ....       0.082 sec  (  5.2% of XC)
    XC-Functional eval.     ....       0.027 sec  (  1.7% of XC)
    XC-Potential eval.      ....       0.152 sec  (  9.6% of XC)
  CPCM terms                ....       0.541 sec  (  9.5% of F)
Diagonalization             ....       0.000 sec  (  0.0%)
Density matrix formation    ....       0.446 sec  (  5.4%)
Total Energy calculation    ....       0.214 sec  (  2.6%)
Population analysis         ....       0.057 sec  (  0.7%)
Orbital Transformation      ....       0.040 sec  (  0.5%)
Orbital Orthonormalization  ....       0.000 sec  (  0.0%)
DIIS solution               ....       0.307 sec  (  3.7%)
SOSCF solution              ....       0.265 sec  (  3.2%)
Finished LeanSCF after   8.3 sec

Maximum memory used throughout the entire LEANSCF-calculation: 20.9 MB


-------------------------------------------------------------------------------
                          DFT DISPERSION CORRECTION                            
                                                                               
                                DFTD4 V3.4.0                                   
-------------------------------------------------------------------------------
The B3LYP functional is recognized
Active option DFTDOPT                   ...         5   

-------------------------   ----------------
Dispersion correction           -0.014216374
-------------------------   ----------------


-------------------------   --------------------
FINAL SINGLE POINT ENERGY      -323.734109846025
-------------------------   --------------------

--------------------------------------------------------------------------
By default, for Open MPI 4.0 and later, infiniband ports on a device
are not used by default.  The intent is to use UCX for these devices.
You can override this policy by setting the btl_openib_allow_ib MCA parameter
to true.

  Local host:              psid05
  Local adapter:           mlx4_0
  Local port:              1

--------------------------------------------------------------------------
--------------------------------------------------------------------------
WARNING: There was an error initializing an OpenFabrics device.

  Local host:   psid05
  Local device: mlx4_0
--------------------------------------------------------------------------


           ************************************************************
           *        Program running with 30 parallel MPI-processes    *
           *              working on a common directory               *
           ************************************************************

------------------------------------------------------------------------------
                              ORCA PROPERTY CALCULATIONS
------------------------------------------------------------------------------

GBWName                                 ... input.gbw
Number of atoms                         ...     13
Number of basis functions               ...    228
Max core memory                         ...   5000 MB

Electric properties:
Dipole moment                           ... YES
Quadrupole moment                       ...  NO
Static polarizability (Dipole/Dipole)   ...  NO
Static polarizability (Dipole/Quad.)    ...  NO
Static polarizability (Quad./Quad.)     ...  NO
Static polarizability (Velocity)        ...  NO

Atomic electric properties:
Dipole moment                           ...  NO
Quadrupole moment                       ...  NO
Static polarizability                   ...  NO

Choice of electric origin               ... Center of mass
Position of electric origin             ...    -0.703349     0.074152     1.312169

General magnetic properties:
Magnetizability                         ...  NO

EPR properties:
g-Tensor (aka g-matrix)                 ...  NO
Zero-Field splitting spin-orbit         ...  NO
Zero-field splitting spin-spin          ...  NO
Hyperfine couplings                     ...  NO (   0 nuclei)
Quadrupole couplings                    ...  NO (   0 nuclei)
Contact density                         ...  NO (   0 nuclei)

NMR properties:
Chemical shifts                         ...  NO (   0 nuclei)
Spin-rotation constants                 ...  NO (   0 nuclei)
Spin-spin couplings                     ...  NO (   0 nuclei,    0 pairs)

Choice of magnetic origin               ... GIAO
Position of magnetic origin             ...     0.000000     0.000000     0.000000

Properties with geometric perturbations:
SCF Hessian                             ...  NO
IR spectrum                             ...  NO
VCD spectrum                            ...  NO
X-ray spectroscopy properties:
SCF XES/XAS/RIXS spectra                ...  NO


-------------
DIPOLE MOMENT
-------------

Method             : SCF
Type of density    : Electron Density
Multiplicity       :   1
Irrep              :   0
Energy             :  -323.7198934723203365 Eh
Relativity type    : 
Basis              : AO
                                X                 Y                 Z
Electronic contribution:     -0.288493722       2.717788800       1.461044982
Nuclear contribution   :     -1.237296172      -6.818322681      -6.963851558
                        -----------------------------------------
Total Dipole Moment    :     -1.525789894      -4.100533882      -5.502806576
                        -----------------------------------------
Magnitude (a.u.)       :      7.030170206
Magnitude (Debye)      :     17.869272569



--------------------
Rotational spectrum 
--------------------
 
Rotational constants in cm-1:             0.257615             0.076161             0.064147 
Rotational constants in MHz :          7723.102866          2283.251624          1923.071331 

Dipole components along the rotational axes: 
x,y,z [a.u.] :    -6.968576    -0.676339     0.636248 
x,y,z [Debye]:   -17.712712    -1.719118     1.617214 

 

Dipole moment calculation done in   0.0 sec 

Maximum memory used throughout the entire PROP-calculation: 10.3 MB
[psid05:148673] 29 more processes have sent help message help-mpi-btl-openib.txt / ib port not selected
[psid05:148673] Set MCA parameter "orte_base_help_aggregate" to 0 to see all help / error messages
[psid05:148673] 29 more processes have sent help message help-mpi-btl-openib.txt / error in device init
--------------------------------------------------------------------------
By default, for Open MPI 4.0 and later, infiniband ports on a device
are not used by default.  The intent is to use UCX for these devices.
You can override this policy by setting the btl_openib_allow_ib MCA parameter
to true.

  Local host:              psid05
  Local adapter:           mlx4_0
  Local port:              1

--------------------------------------------------------------------------
--------------------------------------------------------------------------
WARNING: There was an error initializing an OpenFabrics device.

  Local host:   psid05
  Local device: mlx4_0
--------------------------------------------------------------------------
[psid05:148768] 29 more processes have sent help message help-mpi-btl-openib.txt / ib port not selected
[psid05:148768] Set MCA parameter "orte_base_help_aggregate" to 0 to see all help / error messages
[psid05:148768] 29 more processes have sent help message help-mpi-btl-openib.txt / error in device init

--------------------------------
SUGGESTED CITATIONS FOR THIS RUN
--------------------------------

Below you find a list of papers that are relevant to this ORCA run
We neither can nor want to force you to cite these papers, but we appreciate if you do
You receive ORCA, which is the product of decades of hard work by many enthusiastic individuals, for free
The only thing we kindly ask in return is that you cite our papers,
We deeply appreciate it, if you show your appreciation for ORCA by not just citing the generic ORCA reference.

Please note that relegating all ORCA citations to the supporting information does *not* help us.
SI sections are not indexed - citations you put there will not count into any citation statistics
But we need these citations in order to attract the funding resources that allow us to do what we are doing

Therefore, if you are a happy ORCA user, please consider citing a few of the papers listed below in the main body of your paper

In addition to the list printed below, the program has created the file input.bibtex that contains the list in bibtex format
You can import this file easily into all common literature databanks and citation aid programs


List of essential papers. We consider these as the minimum necessary citations

  1. Neese,F.
     Software update: the ORCA program system, version 5.0
     WIRES Comput. Molec. Sci., 2022 12(1)e1606
     doi.org/10.1002/wcms.1606

List of papers to cite with high priority. The work reported in these papers was absolutely
necessary for this run to complete.
Our perspective: the developers of density functionals and basis sets usually get cited in chemistry papers
Good! But without the algorithms to do something with them, the functionals or basis sets would not do anything.
Hence, in our opinion, the algorithm design and method developments papers are equally worthy of getting cited

  1. Neese,F.
     An improvement of the resolution of the identity approximation for the formation of the Coulomb matrix
     J. Comp. Chem., 2003 24(14)1740-1747
     doi.org/10.1002/jcc.10318
  2. Neese,F.; Wennmohs,F.; Hansen,A.; Becker,U.
     Efficient, approximate and parallel Hartree-Fock and hybrid DFT calculations. A 'chain-of-spheres' algorithm for the Hartree-Fock exchange
     Chem. Phys., 2009 356(1-3)98-109
     doi.org/10.1016/j.chemphys.2008.10.036
  3. Garcia-Rates,M.; Neese,F.
     Effect of the Solute Cavity on the Solvation Energy and its Derivatives within the Framework of the Gaussian Charge Scheme
     J. Comput. Chem., 2020 41 922-939
     doi.org/10.1002/jcc.26139
  4. Helmich-Paris,B.; de Souza,B.; Neese,F.; Izsák,R.
     An improved chain of spheres for exchange algorithm
     J. Chem. Phys., 2021 155 104109
     doi.org/doi: 10.1063/5.0058766.
  5. Neese,F.
     The SHARK Integral Generation and Digestion System
     J. Comp. Chem., 2022  1-16
     doi.org/10.1002/jcc.26942
  6. Caldeweyher,E.; Bannwarth,C.; Grimme,S.
     Extension of the D3 dispersion coefficient model
     J. Chem. Phys., 2017 147 034112
     doi.org/10.1063/1.4993215
  7. Caldeweyher,E.; Ehlert,S.; Hansen,A.; Neugebauer,H.; Spicher,S.; Bannwarth,C.; Grimme,S.
     A generally applicable atomic-charge dependent London dispersion correction
     J. Chem. Phys., 2019 150 154122
     doi.org/10.1063/1.5090222
  8. Caldeweyher,E.; Mewes,J.; Ehlert,S.; Grimme,S.
     Extension and evaluation of the D4 London-dispersion model for periodic systems
     Phys. Chem. Chem. Phys., 2020 22(16)8499-8512
     doi.org/10.1039/D0CP00502A
  9. Wittmann,L.; Gordiy,I.; Friede,M.; Helmich-Paris,B.; Grimme,S.; Hansen,A.; Bursch,M.
     Extension of the D3 and D4 London Dispersion Corrections to the full Actinides Series
     Phys. Chem. Chem. Phys., 2024 26(32)21379-21394
     doi.org/https://doi.org/10.1039/D4CP01514B 

List of suggested additional citations. These are papers that are important in the 'surrounding' of 
of this run, or papers that preceded the highly important papers. If you like your results we are grateful for a citation.

  1. Izsak,R.; Neese,F.
     An overlap fitted chain of spheres exchange method
     J. Chem. Phys., 2011 135 144105
     doi.org/10.1063/1.3646921
  2. Izsak,R.; Hansen,A.; Neese,F.
     The resolution of identity and chain of spheres approximations for the LPNO-CCSD singles Fock term
     Molec. Phys., 2012 110 2413-2417
     doi.org/10.1080/00268976.2012.687466
  3. Neese,F.
     The ORCA program system
     WIRES Comput. Molec. Sci., 2012 2(1)73-78
     doi.org/10.1002/wcms.81
  4. Izsak,R.; Neese,F.; Klopper,W.
     Robust fitting techniques in the chain of spheres approximation to the Fock exchange: The role of the complementary space
     J. Chem. Phys., 2013 139 
     doi.org/10.1063/1.4819264
  5. Neese,F.
     Software update: the ORCA program system, version 4.0
     WIRES Comput. Molec. Sci., 2018 8(1)1-6
     doi.org/10.1002/wcms.1327
  6. Neese,F.; Wennmohs,F.; Becker,U.; Riplinger,C.
     The ORCA quantum chemistry program package
     J. Chem. Phys., 2020 152 Art. No. L224108
     doi.org/10.1063/5.0004608

List of optional additional citations

  1. Neese,F.
     Approximate second-order SCF convergence for spin unrestricted wavefunctions
     Chem. Phys. Lett., 2000 325(1-3)93-98
     doi.org/10.1016/s0009-2614(00)00662-x

Timings for individual modules:

Sum of individual times          ...       13.388 sec (=   0.223 min)
Startup calculation              ...        2.596 sec (=   0.043 min)  19.4 %
SCF iterations                   ...        9.770 sec (=   0.163 min)  73.0 %
Property calculations            ...        1.022 sec (=   0.017 min)   7.6 %
                             ****ORCA TERMINATED NORMALLY****
TOTAL RUN TIME: 0 days 0 hours 0 minutes 14 seconds 682 msec
