37
 energy: -59.773824473260 gnorm: 0.171347599076 xtb: 6.7.1 (edcfbbe)
N            0.00260500000000        0.26833900000000        2.34949800000000
C            0.00561000000000       -0.53426800000000        1.12782400000000
C           -0.01360500000000        0.36044200000000       -0.11757000000000
C           -0.00658000000000       -0.48411400000000       -1.39958300000000
C            0.00530900000000        0.34606300000000       -2.65559300000000
O            0.01598000000000        1.56658800000000       -2.61114500000000
O            0.01013600000000       -0.27058000000000       -3.85192000000000
H            0.84383000000000        0.88923800000000        2.37341700000000
H           -0.86762500000000        0.84621600000000        2.39703300000000
H           -0.88589600000000       -1.19861800000000        1.12403900000000
H            0.91775600000000       -1.17084600000000        1.11100500000000
H            0.88289000000000        1.01613200000000       -0.10393900000000
H           -0.92488100000000        0.99783100000000       -0.09978000000000
H           -0.91002800000000       -1.12912700000000       -1.41351300000000
H            0.89428700000000       -1.13411000000000       -1.40682800000000
H            0.03021100000000       -0.36918600000000        3.17705500000000
O            3.18756700000000        1.72076300000000        1.19601400000000
H            3.38011100000000        0.75915500000000        1.05872600000000
H            2.99903700000000        2.06813300000000        0.28804800000000
O           -2.57283500000000       -0.00995200000000       -3.06183500000000
H           -2.61122300000000        0.66426400000000       -3.78610800000000
H           -2.69277700000000       -0.87754800000000       -3.52389900000000
O           -2.87072500000000        2.62381100000000        4.53086800000000
H           -2.34610800000000        3.45644300000000        4.64092100000000
H           -2.74525600000000        2.13692900000000        5.38399000000000
O            1.81678500000000        3.46746100000000       -2.30084500000000
H            0.91547600000000        3.66569600000000       -1.94174100000000
H            1.64621500000000        2.94634400000000       -3.12544000000000
O            0.13026900000000        1.61062400000000        6.32692700000000
H           -0.74580400000000        1.16266100000000        6.43844200000000
H           -0.06419100000000        2.39788900000000        5.75858600000000
O           -0.76347000000000        3.46345000000000        0.18241900000000
H           -1.21167300000000        3.68441600000000       -0.67250700000000
H            0.12108700000000        3.90421500000000        0.11997600000000
O           -0.70172100000000        4.02133000000000        2.76061200000000
H           -1.49336700000000        3.59813700000000        2.34250200000000
H           -0.45331000000000        3.40872900000000        3.49792200000000
37
 energy: -59.796404680848 gnorm: 0.089641425908 xtb: 6.7.1 (edcfbbe)
N            0.00494719585010        0.27188223506707        2.35392512216858
C            0.00618974194007       -0.53989162190828        1.12612350016922
C           -0.01128721446662        0.35067694835870       -0.11513871463603
C           -0.00170987165633       -0.48987850459008       -1.39246430457626
C            0.00111723384494        0.34030843933064       -2.66576632629739
O            0.00724200830069        1.57579561586261       -2.61715873047917
O            0.06523007031051       -0.29335603385336       -3.79589758655942
H            0.83049258592567        0.89414956374916        2.36878346315062
H           -0.84906439162336        0.85052906152971        2.39335809242051
H           -0.87314138749885       -1.19461995316479        1.11864200948362
H            0.90238885736643       -1.17112121264750        1.10949274678246
H            0.86212774974109        1.01265860776607       -0.11627615179571
H           -0.90252061282970        0.98874327353125       -0.11660569110347
H           -0.88904767234763       -1.13293914129608       -1.42607287996537
H            0.88353635146620       -1.13942025287605       -1.41715895775469
H            0.03342468573328       -0.34425469119788        3.18151524966877
O            3.12306660293708        1.69383262528081        1.19413664925864
H            3.40934073628366        0.77205220171915        1.04390414098237
H            3.02518199549886        2.06791422932206        0.29843695857540
O           -2.68797554423747       -0.00706765391672       -3.05863622215306
H           -2.59177495648520        0.65329189653288       -3.77552031313563
H           -2.67689456440408       -0.86433856388579       -3.53313368995396
O           -2.81058050501917        2.59811543116831        4.51159288769386
H           -2.38284824504970        3.46716161098103        4.64761305164582
H           -2.77701264022318        2.16737844948399        5.38802728865195
O            1.82410118267938        3.51833607214856       -2.31921524285284
H            0.93182301283040        3.64501563634777       -1.95056790781824
H            1.66188953420980        2.93885699542630       -3.08587265471420
O            0.12507027851886        1.59622990221167        6.29648837347935
H           -0.73633269164551        1.17121806992083        6.44695714530775
H           -0.06910807569337        2.39853269088570        5.78215534033160
O           -0.76684528897415        3.45368392354858        0.15535624661634
H           -1.20192218128478        3.67603291222298       -0.68064734039146
H            0.09684749499533        3.89758534507149        0.12545191088266
O           -0.72642048045637        4.04201181020074        2.81521304300239
H           -1.46344256844395        3.61661579923889        2.33694553562832
H           -0.45200242609288        3.39122828243019        3.48559195828650
37
 energy: -59.801788169365 gnorm: 0.054412222592 xtb: 6.7.1 (edcfbbe)
N            0.01007324967678        0.28131099615535        2.35693384249748
C            0.00587131757275       -0.54488777594222        1.12480081823947
C           -0.00519210412579        0.34150329999732       -0.11229986751272
C            0.01634427109478       -0.50055145908654       -1.38121170799036
C            0.06721318692190        0.32741724635699       -2.68192345814882
O           -0.01585960520806        1.57831410796069       -2.61154533760992
O            0.04000203827129       -0.31231652875944       -3.73894489222925
H            0.82340181226393        0.90438660556373        2.35237275966822
H           -0.82900874579506        0.86284005579726        2.38490175485964
H           -0.86876874967734       -1.18503058357886        1.11866424847171
H            0.89010843054625       -1.17029496543914        1.11310428414512
H            0.85382523662360        1.00345762720179       -0.12230602682813
H           -0.88495393360450        0.97532944706734       -0.13675459016222
H           -0.86920958733434       -1.12833192709067       -1.44579489618001
H            0.88342642978419       -1.15561622241629       -1.41847815871114
H            0.04159369914434       -0.31066367596788        3.18843954596856
O            3.08521237644338        1.66393847451659        1.18537448109434
H            3.43083039363703        0.77796307870425        1.03223254477594
H            3.02377377890098        2.06419392544233        0.31700037146688
O           -2.68494094179523       -0.01839284145088       -3.08295090414671
H           -2.63155969611771        0.64968596295721       -3.75190696286208
H           -2.71583245892506       -0.84871235198367       -3.54003874857439
O           -2.78689120548020        2.59658775749789        4.51440047070154
H           -2.40255544042072        3.46795022339025        4.63276834717909
H           -2.79651232702462        2.18986625780079        5.38218164349553
O            1.83372372789350        3.54651035952253       -2.32228838310161
H            0.94865938548384        3.63395066493670       -1.96500274025791
H            1.68567161031623        2.94683226494366       -3.05558877433883
O            0.11528800267146        1.57961416902871        6.26062674877594
H           -0.72922102157159        1.17296611278279        6.45616447391859
H           -0.07574080616611        2.40201593128479        5.80572998536504
O           -0.77622488558377        3.44903407858116        0.13874859527085
H           -1.19750435090074        3.65198770548042       -0.68808459923510
H            0.07168588922625        3.88923348132295        0.13762418540033
O           -0.74420522728921        4.06153699413418        2.86701576867433
H           -1.43160244381509        3.65374219804489        2.32357711385811
H           -0.45683530563722        3.37557930524423        3.47603606406240
37
 energy: -59.806394719093 gnorm: 0.076795077097 xtb: 6.7.1 (edcfbbe)
N            0.01626299772263        0.29485905617004        2.35563190412240
C            0.00770569804552       -0.54308136920906        1.12915435957236
C            0.00003753726224        0.33907016833620       -0.11057581153981
C            0.01840925569791       -0.50658032105729       -1.37463500388353
C            0.03375833913221        0.31684583030357       -2.68870450835797
O            0.01097951382653        1.56713450571423       -2.61035633278549
O            0.09321111116080       -0.33510738051125       -3.73712732919000
H            0.83186416715250        0.91807740008033        2.33571007594423
H           -0.82306882618851        0.87978773060923        2.37606737896277
H           -0.87445963153191       -1.17742146562086        1.12840390731142
H            0.89287208038352       -1.17167181753154        1.12226153190786
H            0.86295704444815        0.99995110287920       -0.12345642367982
H           -0.88645429290494        0.96792807502486       -0.14215262815327
H           -0.87123306516479       -1.13057704336499       -1.44052457416041
H            0.88871768235840       -1.16169497714534       -1.42127535980200
H            0.05041671644424       -0.28684467070020        3.19640956002774
O            3.00091900107269        1.62682070070890        1.19383460374732
H            3.47370973651600        0.77498257834495        1.01621961737946
H            3.04449483710142        2.07669152162357        0.32531655694717
O           -2.78182582320527       -0.02770578070744       -3.08003929682200
H           -2.61412950014517        0.66246935234542       -3.73683235399604
H           -2.70762507975073       -0.85618147000349       -3.57146864633051
O           -2.71413142876342        2.55593880736375        4.48095267773286
H           -2.44412112632399        3.49283361237656        4.62341408514358
H           -2.84398123562152        2.22438419530259        5.40486526549550
O            1.84181195538677        3.59514076667641       -2.33587108565509
H            0.94824409267074        3.61567627643333       -1.96095188905036
H            1.72248017867392        2.92922235363835       -3.03326420110345
O            0.12211567378830        1.53981950096802        6.19715687128974
H           -0.73411149370992        1.17771928642299        6.48166569369350
H           -0.08834331259950        2.42564341111698        5.83837756244947
O           -0.79244328113716        3.44288550425814        0.14214911972180
H           -1.19718925687094        3.62248558158676       -0.70398580499291
H            0.05578419657692        3.88935091611980        0.15846389490961
O           -0.76869380009551        4.10153892429274        2.92550121513774
H           -1.39912476349485        3.68794426235686        2.29123947870119
H           -0.45172989791315        3.34461487480018        3.46200388930433
37
 energy: -59.801811103972 gnorm: 0.095782884540 xtb: 6.7.1 (edcfbbe)
N            0.02710583703849        0.31190604839913        2.34983847574841
C            0.01082790922736       -0.53899175322616        1.13189065319031
C            0.00517208018965        0.33695816467467       -0.11268937007037
C            0.01828553795232       -0.51046150359741       -1.37306680248414
C           -0.01229072413498        0.30959567753207       -2.69865681003559
O            0.03851072561535        1.55694095800876       -2.61657540885640
O            0.17192629482730       -0.36203848774657       -3.75120783361860
H            0.84825862641272        0.93363763130302        2.31089040631193
H           -0.81408995272954        0.90087912287632        2.36503862252959
H           -0.87986311071318       -1.16904932459053        1.13815525585334
H            0.89724402772437       -1.17386919275970        1.12840511982838
H            0.87324343222396        0.99755102389171       -0.12585351078409
H           -0.88805783259754        0.96293993311304       -0.14851439291682
H           -0.87351221749695       -1.13550432410374       -1.43692734725122
H            0.89464160403315       -1.16439690993536       -1.42585155260679
H            0.06537467269873       -0.25845362803779        3.20249320804707
O            3.06699730716352        1.62039465152971        1.17913885791855
H            3.41201751359150        0.75598026449672        1.02674874483835
H            3.00171756470712        2.06897851263676        0.34324715499641
O           -2.90888101894242       -0.03416969760755       -3.07417348660346
H           -2.59706057339297        0.67516274457604       -3.72266892928348
H           -2.69359751022716       -0.86551658867891       -3.60244414860574
O           -2.79132895057485        2.60381066763352        4.52671337667250
H           -2.41828559655848        3.47320057394243        4.58730971031236
H           -2.81103922810443        2.20512017208707        5.37852115702366
O            1.85102175627806        3.61193994299052       -2.32577715349966
H            0.95044569746253        3.61037571387990       -1.95812339299581
H            1.76436243829427        2.93572382725878       -3.02014192635481
O            0.11499260165243        1.53634103953957        6.18535835833952
H           -0.73079538804433        1.16845167057158        6.49032206664221
H           -0.09272181331514        2.42098432864608        5.83868729372732
O           -0.81306957340532        3.43409196732738        0.15143757364215
H           -1.19629262752158        3.58795145340362       -0.72019398542467
H            0.03495840845266        3.89379921971434        0.18708146035779
O           -0.74797092135243        4.09315138771061        2.93244678623494
H           -1.38868937337499        3.73273890663180        2.29673293912554
H           -0.46547162305927        3.34679580591171        3.47598683005109
37
 energy: -59.809322509992 gnorm: 0.035436928313 xtb: 6.7.1 (edcfbbe)
N            0.03207153167406        0.32035526747834        2.34626126831938
C            0.01117523308388       -0.53524365864300        1.13318880109065
C            0.00504080697855        0.33454059226071       -0.11654140903976
C            0.02209646243621       -0.51456826207952       -1.37657747889534
C            0.03826252081825        0.30621686516651       -2.69930192624327
O            0.02854485843639        1.55242722726858       -2.62187792664444
O            0.16200312697184       -0.36503113185954       -3.75862159420283
H            0.85512657134331        0.93962801182883        2.30336282570288
H           -0.80891582583120        0.90999580540673        2.36233472430397
H           -0.87898339753541       -1.16564903257683        1.14328353699584
H            0.89524055835418       -1.17380370134828        1.13057902446323
H            0.87323580676504        0.99481417166713       -0.12722806878091
H           -0.88452942505440        0.96497539041964       -0.15082531516124
H           -0.87032356855132       -1.14010605498198       -1.44178803439966
H            0.89576233842024       -1.17050122759489       -1.41686221893152
H            0.07163178654800       -0.24576965400839        3.20208011975514
O            3.02635898139910        1.60360053724547        1.18648374618815
H            3.42783902329190        0.75308047033829        1.01985692876160
H            3.01034283829987        2.07508385510460        0.35024502002621
O           -2.79944804268694       -0.03709067208549       -3.09839591530013
H           -2.67645368041047        0.66852516467385       -3.72334158129780
H           -2.76426844861287       -0.85735579854078       -3.57960897339959
O           -2.76855824767655        2.58533917276042        4.51496698233691
H           -2.43326127074524        3.47849985575073        4.57739025784805
H           -2.82933639011250        2.21985670994340        5.39162452653639
O            1.85275919221043        3.59150160090068       -2.30792779572039
H            0.95332645007679        3.61811960966303       -1.96326252839932
H            1.77797715277397        2.95403317992455       -3.02339106843584
O            0.10575634299730        1.54559329392792        6.19508551476262
H           -0.72736858039159        1.16283091853762        6.48441587792527
H           -0.09357138412463        2.41005759221480        5.83177787894038
O           -0.82075151026762        3.43117831618395        0.16027859406863
H           -1.19478246348579        3.57489969667645       -0.71743049490619
H            0.02434200533196        3.89621862223891        0.19574597247032
O           -0.74143688076953        4.09034432874024        2.93280871424529
H           -1.38227555827628        3.74777873652352        2.29828872428229
H           -0.47054291367927        3.34857420087680        3.47650129073520
37
 energy: -59.805139155415 gnorm: 0.100992407211 xtb: 6.7.1 (edcfbbe)
N            0.04103087616990        0.33622505924504        2.34187930194366
C            0.01023578747868       -0.52933406647574        1.13631190549084
C            0.00455978954163        0.32982924154678       -0.12093018598816
C            0.03258495002515       -0.52679266554787       -1.37765526365414
C            0.15367130632985        0.29660969644934       -2.69498678735874
O           -0.00344682478007        1.54394093985212       -2.61704925145205
O            0.08782383039106       -0.35622536509456       -3.74843269360774
H            0.86534395264287        0.95035305743149        2.29100852679464
H           -0.79598581704352        0.92748881118810        2.35910629150938
H           -0.87827746185870       -1.15675413719809        1.15557148630368
H            0.88873483688183       -1.17066323560571        1.13649563562230
H            0.87231366735279        0.98670692146504       -0.12958209256934
H           -0.87811276483699        0.96565899921375       -0.15524416745838
H           -0.86548300892947       -1.14344639121901       -1.45308951845590
H            0.89639579426805       -1.18971409539405       -1.39856404879713
H            0.08273265444526       -0.22090452693351        3.20092562773288
O            2.94235364779383        1.57575100633001        1.19953581424951
H            3.47170339206154        0.75339537584363        1.00915364139085
H            3.01601481102706        2.07877831078279        0.36127081046600
O           -2.88413292654539       -0.05011566701187       -3.09438466076958
H           -2.64019841552146        0.67029556661037       -3.70602480597582
H           -2.73161352601311       -0.86117614026389       -3.61586958570317
O           -2.69470658137284        2.53710519812002        4.47472726669163
H           -2.46988266847405        3.49717737390196        4.56577330602132
H           -2.87857383013818        2.25982711705061        5.42109469396802
O            1.85379042356045        3.59420533942502       -2.29887959794433
H            0.94869809480557        3.60784939752970       -1.97408513631110
H            1.80885007979670        2.95986407035045       -3.01773538426185
O            0.10673069145548        1.51258423476044        6.14004693754271
H           -0.72987802984086        1.16701207150753        6.49865380640344
H           -0.10783358697836        2.42706137268049        5.85946300050125
O           -0.83292564804534        3.43390191529108        0.17796656829377
H           -1.19579025932240        3.55105360368231       -0.70294682014535
H            0.00846341431390        3.89285543124742        0.19993978733973
O           -0.76419944992528        4.12758443874365        2.97648134315541
H           -1.34713088088668        3.77369499615231        2.25935401473656
H           -0.46977431982954        3.32126674434702        3.45427823429493
37
 energy: -59.813728281474 gnorm: 0.033888458956 xtb: 6.7.1 (edcfbbe)
N            0.04822336672302        0.34485170858060        2.33795707452905
C            0.01334903865533       -0.52745784817113        1.13640943086862
C            0.01059014207010        0.32868433169831       -0.12260172927488
C            0.03345608517053       -0.52846904202005       -1.37734930285847
C            0.07550679879394        0.29603832345435       -2.69913523295854
O            0.03481971671718        1.54087190344493       -2.61607692717630
O            0.13931177707085       -0.36349363016190       -3.75140524769317
H            0.87474362391118        0.95728835961066        2.27862492686932
H           -0.78801064567429        0.93879311925607        2.35289068931453
H           -0.87945258348354       -1.15096367213845        1.15938758612833
H            0.89085796483800       -1.17171624745109        1.13808444234748
H            0.87851333277155        0.98663018109423       -0.13447877965974
H           -0.87544590049838        0.96159801624435       -0.16034126410005
H           -0.86412174416160       -1.14413871903639       -1.44855564737659
H            0.89867347497117       -1.19355106446447       -1.40801077998735
H            0.09107549542889       -0.20615384701277        3.20184810832374
O            2.95423925116114        1.56919971547734        1.19565861592096
H            3.44973684412864        0.74883101344140        1.01736463302287
H            3.00248978403889        2.07389958213905        0.37039724111915
O           -2.86138321881382       -0.05302914299863       -3.10461931728368
H           -2.67201406221189        0.67156453225661       -3.70441200256669
H           -2.76298959002611       -0.86093393845824       -3.61162065662687
O           -2.72892125362354        2.55923946998196        4.49624574061521
H           -2.46131564684930        3.48744707602438        4.55456675544425
H           -2.86175932417773        2.24822397968055        5.40297271176238
O            1.85727470645405        3.61130555476989       -2.29528494949907
H            0.94384069536392        3.59639360558580       -1.97494409184980
H            1.83455830037979        2.95869691216261       -3.00768021639836
O            0.09768700454434        1.52025325631806        6.14801634633643
H           -0.72773072045553        1.15827957217798        6.49361425752331
H           -0.10742806332112        2.41851721525242        5.85210638193337
O           -0.84120687173348        3.43169271814917        0.18883585519243
H           -1.19929854866316        3.53327705265515       -0.69929390733865
H            0.00000631259422        3.89414700653869        0.21138623528245
O           -0.75694221057546        4.12085782687779        2.97140129007511
H           -1.34313127766553        3.78576282323554        2.26389152625575
H           -0.47371605385309        3.33051229580936        3.45772820378353
37
 energy: -59.811683073715 gnorm: 0.077178760216 xtb: 6.7.1 (edcfbbe)
N            0.06947661273115        0.37044981999118        2.32760612006481
C            0.01873921941784       -0.51923378124417        1.13870126794982
C            0.01614569145042        0.32500928813927       -0.12845582952021
C            0.03564061345315       -0.53680364194830       -1.37890366074458
C            0.06270175230593        0.28751598768941       -2.70416060249274
O            0.04419777413745        1.53213965666609       -2.61843401966647
O            0.17670744039006       -0.37819753074098       -3.75887164810295
H            0.90246578895835        0.97532983058100        2.24857356611829
H           -0.76297454070707        0.97132276188359        2.34025579585039
H           -0.88107713491023       -1.13434737392008        1.17465449139868
H            0.89184776500460       -1.17123838614055        1.14280425245571
H            0.88642353840259        0.98141046852556       -0.14516794094212
H           -0.87106998321417        0.95737608881710       -0.17080112722608
H           -0.86240534910490       -1.15244567008120       -1.44982633482753
H            0.90182319997243       -1.20221911805031       -1.40877902669986
H            0.11532358606571       -0.16568717836931        3.20208568544464
O            2.96465127896584        1.55282436367587        1.19647502252904
H            3.39451082996455        0.73335364068483        1.03939428622564
H            2.97342553249979        2.06219086289235        0.39360305951033
O           -2.90570620774299       -0.06366681613964       -3.11358880589594
H           -2.69249864513691        0.67515499345575       -3.69234790697486
H           -2.77717763405072       -0.86392952269847       -3.63380520000752
O           -2.66783194825810        2.51766864055699        4.47135964379219
H           -2.49562940812975        3.49470987159709        4.53695671347926
H           -2.90923548565537        2.28148381838328        5.42171453208179
O            1.87083400213242        3.58632524069335       -2.25730106478304
H            0.94978213944787        3.59575518647332       -1.98586470326214
H            1.88138971691137        2.99594254930005       -3.00809270231568
O            0.08376977417422        1.51419938031645        6.12945917193632
H           -0.72759387654356        1.14782984442888        6.49572595058182
H           -0.11596748723873        2.40910992791937        5.84739958581249
O           -0.85823813755316        3.41495822034655        0.21254787693446
H           -1.20858781209564        3.49353931847846       -0.68170251574779
H           -0.02414942884771        3.89597363275517        0.23674104361710
O           -0.74199781930298        4.11527746826821        2.95667514413015
H           -1.33562540610617        3.81477867058757        2.27511293518676
H           -0.47800395178926        3.35908948623131        3.46183494411034
37
 energy: -59.817018994379 gnorm: 0.041388527473 xtb: 6.7.1 (edcfbbe)
N            0.08745992982584        0.39377834531448        2.32011272171138
C            0.02240690931424       -0.51105212393938        1.14404525534976
C            0.01991917369860        0.32119372334304       -0.13159841935706
C            0.03766605350543       -0.54542504001153       -1.37828613531663
C            0.06895052479872        0.27929364811124       -2.70374949409065
O            0.04524808404074        1.52392029173571       -2.61778869017748
O            0.20155395720604       -0.39032525270577       -3.76488797310038
H            0.92685000532232        0.99044190943361        2.22485925410129
H           -0.74176798408292        1.00062737975459        2.33136961341098
H           -0.88325696196162       -1.11882806078947        1.19135518018208
H            0.89113185291761       -1.17067449483839        1.15060048072253
H            0.89251978903912        0.97618505938853       -0.15252799923177
H           -0.86791310716348        0.95358669072093       -0.17794338624351
H           -0.86107505188367       -1.16152542321442       -1.44958765137837
H            0.90433390518794       -1.21132697968731       -1.40341946506968
H            0.13540509310432       -0.12880051873771        3.20367198834660
O            2.86430646158197        1.51145708874033        1.21068520240639
H            3.41968192453021        0.73254445031578        1.04211115579137
H            2.98447553084299        2.06833479012121        0.41402878282626
O           -2.95489993142749       -0.07298537204251       -3.12137562653848
H           -2.69975401834852        0.67527191721850       -3.68296083609894
H           -2.78123696395901       -0.86788387190657       -3.65335082875509
O           -2.71224056516916        2.55044066882551        4.49693399016831
H           -2.48152623695503        3.48058743481341        4.51664859429657
H           -2.89419357571902        2.26898552048718        5.38952219153132
O            1.87825135928261        3.58034993641978       -2.23466503189229
H            0.94887912759637        3.58233065344032       -1.99962745064072
H            1.92882119694613        3.01773437749276       -3.00351907224039
O            0.07249710139034        1.49767445971706        6.09153506192230
H           -0.72752990801062        1.14130324636619        6.50123940830117
H           -0.12524979953932        2.40969714725659        5.85518080509124
O           -0.87404845040129        3.40257004106454        0.23533738376344
H           -1.21465395267405        3.45985641250661       -0.66293976133910
H           -0.04357048292912        3.89538834503603        0.25575638028416
O           -0.76531129343924        4.14356211187812        2.98838322507944
H           -1.30200400498861        3.84370026043582        2.24769637048043
H           -0.47603969148147        3.35096122794102        3.44073277570402
37
 energy: -59.798446444941 gnorm: 0.158185417723 xtb: 6.7.1 (edcfbbe)
N            0.10615245582121        0.41492375848024        2.31248407834726
C            0.02556985344776       -0.50238167446662        1.14838138434418
C            0.02158667535270        0.31746344441608       -0.13553285242585
C            0.04044390411223       -0.55550091696353       -1.37888316681392