37
 energy: -59.734044759900 gnorm: 0.198918272518 xtb: 6.7.1 (edcfbbe)
N           -0.44376700000000       -0.47181200000000        1.74520500000000
C            0.69351000000000        0.10436000000000        1.02689900000000
C            0.25232500000000        0.99958500000000       -0.14624500000000
C           -0.57382300000000        0.30680200000000       -1.24485700000000
C            0.17276200000000       -0.78812900000000       -1.95771100000000
O            0.40822200000000       -0.68794500000000       -3.15102700000000
O            0.54634400000000       -1.90328400000000       -1.30373900000000
H           -0.08747200000000       -1.00411400000000        2.57127000000000
H           -1.08118400000000        0.28586300000000        2.08138600000000
H            1.28097900000000        0.73286000000000        1.73117400000000
H            1.36804500000000       -0.70373400000000        0.67713900000000
H            1.15866700000000        1.44313000000000       -0.61117500000000
H           -0.35578800000000        1.83434200000000        0.26527400000000
H           -1.51736400000000       -0.10080200000000       -0.82923500000000
H           -0.85273400000000        1.08677100000000       -1.98587200000000
H           -0.96872000000000       -1.13389300000000        1.13151600000000
O           -0.78846400000000        3.03316900000000       -4.52746000000000
H           -1.10467100000000        3.14698500000000       -3.59597200000000
H           -1.56635400000000        2.65415700000000       -5.00896800000000
O           -0.14869400000000        0.17563900000000        7.19361800000000
H           -0.44672200000000        1.10985800000000        7.05568700000000
H           -0.73882600000000       -0.36209600000000        6.60778500000000
O            0.01090000000000       -3.93746700000000       -2.19724200000000
H            0.07550900000000       -3.78508300000000       -3.17357000000000
H            0.94803900000000       -4.06395600000000       -1.90333000000000
O            1.70854500000000        1.11699200000000       -6.77659500000000
H            1.97536100000000        0.16379500000000       -6.74770100000000
H            1.92384100000000        1.46236900000000       -5.87383500000000
O            2.80580200000000       -1.99085500000000       -2.69311000000000
H            3.50483300000000       -1.82753900000000       -2.01098500000000
H            3.14262100000000       -1.53809500000000       -3.50685100000000
O            2.85702400000000       -2.63488900000000        0.01245400000000
H            3.52051500000000       -1.92250400000000        0.19383400000000
H            2.31065500000000       -2.68084600000000        0.83706400000000
O            1.51308600000000        2.62017900000000       -3.74987500000000
H            2.48922500000000        2.49255100000000       -3.64275600000000
H            1.42462600000000        3.19727900000000       -4.54971500000000
37
 energy: -59.768129147413 gnorm: 0.097893593866 xtb: 6.7.1 (edcfbbe)
N           -0.43990172470514       -0.47105820446252        1.74477937420985
C            0.70186189528382        0.11480092936446        1.02430100794359
C            0.24958848635359        1.00831068625508       -0.13363120144131
C           -0.57899439962977        0.32105552242837       -1.22757654466898
C            0.16188835699598       -0.78864177794772       -1.95097820579600
O            0.40331358033186       -0.69083504269878       -3.16394736545138
O            0.51672819448766       -1.80470566506780       -1.24332666024652
H           -0.09703164183286       -1.00487381785192        2.55791687643390
H           -1.07823952602210        0.27266379914479        2.07219449281343
H            1.28451197118602        0.73011066866896        1.72248221707287
H            1.34111528228526       -0.69290889566620        0.64444730932947
H            1.14132287314686        1.43725410718564       -0.60638880725019
H           -0.34693566517513        1.83939315590418        0.26490912253477
H           -1.51216686035466       -0.09452220644692       -0.82494022962145
H           -0.84473176890032        1.06923038204590       -1.98648350289669
H           -0.95116160101335       -1.12095441301956        1.12529282704167
O           -0.83708235523690        3.07103494678222       -4.54088067798997
H           -1.10986276979208        3.14586410328755       -3.61066637251693
H           -1.58439332616656        2.65459549167504       -4.99959248936780
O           -0.14897862433799        0.18154293999901        7.18125508362702
H           -0.44544560478230        1.09905911797605        7.05894003581054
H           -0.74142323717934       -0.35589630787534        6.62880131023574
O           -0.00938037404928       -4.08696371040175       -2.23435170187862
H            0.07967061364039       -3.76986350397694       -3.16207742630385
H            0.92246635428655       -4.02758976641517       -1.90378898176534
O            1.73800053762443        1.11742932155582       -6.78074952718762
H            1.95992865164494        0.17168988832420       -6.74885541562761
H            1.89229264100091        1.43847833877140       -5.87388982245404
O            2.85142737715694       -2.01819417826493       -2.72564205198176
H            3.50594615182202       -1.83328001059241       -2.03034910808557
H            3.15780069071216       -1.53437089369949       -3.50934302891958
O            2.90202808836379       -2.64899584295356        0.04807033155213
H            3.52119004911209       -1.92067167806714        0.22486863174073
H            2.32359664071292       -2.69069557750262        0.82885312793355
O            1.55334265402416        2.61572371116765       -3.74685600261084
H            2.51317993416941        2.51281047870730       -3.65280267900751
H            1.42138145483596        3.18361690366642       -4.52751494520993
37
 energy: -59.780096256425 gnorm: 0.034330234548 xtb: 6.7.1 (edcfbbe)
N           -0.43745058804389       -0.47139695926735        1.73803774151730
C            0.70730693003563        0.12780593195268        1.01476807471677
C            0.24407524092658        1.02986916532582       -0.12345837985187
C           -0.58410399657766        0.34355301721426       -1.21269363749590
C            0.18155363328795       -0.78998091367454       -1.92196216821901
O            0.36461809514498       -0.70235453438314       -3.15907700117515
O            0.47185928560949       -1.75258931577752       -1.20299228445037
H           -0.10474298084645       -1.01026771197684        2.53965453510046
H           -1.08068776788894        0.25921126908097        2.05733924843668
H            1.29222567086933        0.72318904802812        1.71227473394219
H            1.31074860588911       -0.68056177318208        0.59949036221390
H            1.12664011260380        1.44623978198332       -0.60295490911083
H           -0.34347853644748        1.85626658976241        0.27221276045240
H           -1.50607148831770       -0.08629703100928       -0.81968599234224
H           -0.84463967606893        1.07212569314684       -1.97951756141916
H           -0.93015432874770       -1.10982219907209        1.10411033204894
O           -0.89165399171166        3.12154010408440       -4.56092936913446
H           -1.11927541135188        3.15463952089850       -3.62709227270627
H           -1.60898144350675        2.65872201064370       -4.99987306919909
O           -0.14443378210647        0.18868480907914        7.16760520704055
H           -0.44154076010953        1.09473583848033        7.06467112622569
H           -0.75282924784589       -0.35612377618554        6.66118681466505
O           -0.01286720665501       -4.11212052106969       -2.25527679341336
H            0.07252714203528       -3.80531476064095       -3.15433250077466
H            0.88129231206547       -4.04281522424671       -1.90409770140499
O            1.77311310776641        1.12205655846968       -6.78586427436292
H            1.93874221868045        0.17546394734535       -6.76022809799971
H            1.84298303630375        1.40804460512130       -5.86203381087251
O            2.90563799894743       -2.06922726056158       -2.76969712305466
H            3.50943090351235       -1.86089705888696       -2.04968227134717
H            3.17833661556200       -1.53444584665064       -3.51941849494128
O            2.96407606730193       -2.65892009333799        0.08711835970100
H            3.54052088892478       -1.91578503736856        0.28099089327365
H            2.34395167628281       -2.72040222437523        0.82078476362349
O            1.60583595542160        2.60126153796154       -3.74278213651495
H            2.56058402990562        2.55436623905875       -3.66741395593449
H            1.40370467914944        3.17118957402750       -4.49670214723361
37
 energy: -59.786485170158 gnorm: 0.074716363408 xtb: 6.7.1 (edcfbbe)
N           -0.43650764884898       -0.47289331194193        1.72316973372911
C            0.70850886678483        0.13722458867996        0.99964176950468
C            0.23644303813022        1.05127280407255       -0.12420873025814
C           -0.59874488948265        0.36499381624146       -1.20963329587906
C            0.13540702114899       -0.83143817589238       -1.90065225912193
O            0.34725157628657       -0.72349756310418       -3.13112472608298
O            0.45135544016923       -1.75456951509995       -1.15064815943680
H           -0.10721726351622       -1.01927185213964        2.51973361883621
H           -1.08751019448877        0.25020124308309        2.03964646993324
H            1.30388278252342        0.71426721426939        1.70152975335902
H            1.29062949392557       -0.67150842691943        0.55820508960403
H            1.11844024371247        1.46200230939910       -0.60864585616194
H           -0.34017789010368        1.88027754380109        0.28184944653143
H           -1.52221039308802       -0.05369821066257       -0.81481794194533
H           -0.84545482407231        1.08863134025372       -1.98267058207328
H           -0.91366491606020       -1.10514664678387        1.07200243453074
O           -0.94691617042897        3.20421607446626       -4.59096583175968
H           -1.12088557724430        3.15685009047626       -3.63587736650543
H           -1.63223435082130        2.65244331866119       -5.00173995722447
O           -0.12123746563505        0.19635058395748        7.14238401280665
H           -0.44237655427878        1.09832511320722        7.07597934587894
H           -0.78036962781834       -0.36420933490598        6.70764980543873
O           -0.02012723582518       -4.22446881010637       -2.27712128645143
H            0.06885284130813       -3.75791149299157       -3.14335091390267
H            0.86750314563180       -3.98219043970318       -1.87998535728085
O            1.81765998929560        1.13560945554106       -6.79177691055653
H            1.90504925033727        0.17148850157956       -6.77808812388426
H            1.78556239581351        1.37393264048398       -5.83689305249562
O            2.96866658951877       -2.15653988661623       -2.82543839186622
H            3.50629748960672       -1.89493326884417       -2.05866774157132
H            3.19919059999318       -1.52229560286722       -3.52931960579227
O            3.05096578490077       -2.67423872688655        0.12622811323022
H            3.56746547967218       -1.89124820742383        0.35877804189337
H            2.35913751265772       -2.76035645464938        0.80334950010992
O            1.65605926111727        2.56525416035945       -3.74524170896328
H            2.62358525881791        2.62588129030845       -3.68941580023345
H            1.36457394036099        3.16083683869334       -4.46138453594077
37
 energy: -59.790628134244 gnorm: 0.056881087644 xtb: 6.7.1 (edcfbbe)
N           -0.44051671109288       -0.47614692694544        1.70314100984063
C            0.70448102435436        0.14693391722868        0.98645041587128
C            0.22644731701335        1.07811203646256       -0.12345424088482
C           -0.61658534479946        0.39631999865694       -1.20757838976465
C            0.10329068870691       -0.84150865227925       -1.87450017782102
O            0.32928994065499       -0.74982484969727       -3.10091768768796
O            0.46355114659782       -1.72632139210766       -1.06827409763345
H           -0.11332054270048       -1.03103298072984        2.49732305773880
H           -1.10178262808887        0.23947667285233        2.02030713465861
H            1.31013047557520        0.70623836904794        1.69656358029413
H            1.27642164449528       -0.65914259621986        0.52683337091072
H            1.10927577838629        1.48949819518254       -0.61074404277366
H           -0.34315138882665        1.90847492461606        0.29603887934716
H           -1.54517959592319       -0.01031733777857       -0.80861177644443
H           -0.84993791788104        1.10903230779056       -1.99519016970928
H           -0.90286376328213       -1.10487396858593        1.03465380778929
O           -0.97724978503956        3.23193418683647       -4.61394974721586
H           -1.13458357051269        3.17202049846281       -3.66159242988304
H           -1.64456071882352        2.66464907675389       -5.02569283859975
O           -0.10043088607746        0.20074347669284        7.12148831950921
H           -0.44481295038738        1.10203224495807        7.09149933674100
H           -0.80428910602630       -0.36930271655582        6.74922502075996
O           -0.02347452916179       -4.20938617332525       -2.28906286136180
H            0.04219480024830       -3.79970672512551       -3.15292466553739
H            0.82850007048763       -4.05930541213954       -1.89066150489998
O            1.78258241153990        1.13793187699777       -6.76008282034610
H            1.89011605236280        0.18383187241741       -6.79709102000979
H            1.79083142727486        1.36794811623448       -5.83026210383766
O            3.00234654924502       -2.19735740363090       -2.86021733908544
H            3.51438300077352       -1.96025485536124       -2.07374800413890
H            3.23635869962791       -1.55623350485297       -3.54444946867017
O            3.12309805636528       -2.67293421657960        0.15617086356770
H            3.60252529766753       -1.87424886380230        0.43705123796872
H            2.38929923081368       -2.79957910239069        0.79186335471390
O            1.70368728417166        2.54332807298346       -3.74745626967718
H            2.67622597880602        2.68965462413107       -3.70115669643796
H            1.35455556345624        3.15896020979683       -4.42851203729199
37
 energy: -59.795044320686 gnorm: 0.039685426005 xtb: 6.7.1 (edcfbbe)
N           -0.43874133616495       -0.47656200581701        1.68315332843062
C            0.70608710766572        0.16163722030181        0.98039482383981
C            0.22149390174293        1.10242091020149       -0.12080014794481
C           -0.62329061124484        0.41410049445772       -1.19876797408355
C            0.13027324579947       -0.82438938224951       -1.83714507119340
O            0.27974765597543       -0.79375686250868       -3.07691782340631
O            0.40748771605903       -1.74754802382837       -1.03024974783413
H           -0.11258423074937       -1.03588502708909        2.47869334528430
H           -1.11435241416787        0.23046192447729        1.99954172984297
H            1.31616330393403        0.71104006432953        1.69748910496727
H            1.28030390678554       -0.63725358091668        0.51248976499832
H            1.10200975866117        1.52283105589541       -0.61255634719087
H           -0.35142642362179        1.93041493239528        0.30657439861530
H           -1.56393940736094        0.02313106969786       -0.80066310642989
H           -0.84517731496791        1.11301917428117       -2.00518353909563
H           -0.88284388543609       -1.10736306659689        0.99908161078824
O           -0.99821213366093        3.24136161757481       -4.61986869752934
H           -1.15516066183958        3.20928292002990       -3.68276415832233
H           -1.65875654999656        2.70745245934675       -5.04759983365035
O           -0.12517699979224        0.19500453030689        7.14959928349980
H           -0.43419471460421        1.10520645123201        7.10082624278500
H           -0.78931218330019       -0.36194137214036        6.74781459446745
O           -0.03279211097288       -4.25512246539991       -2.31768960104765
H            0.02931516820183       -3.82124525599388       -3.16640649932183
H            0.79771267010287       -4.04623427213683       -1.87363483739086
O            1.79985821745041        1.15175841345231       -6.74532773108654
H            1.86322598814021        0.18840707964619       -6.82292985977258
H            1.74939147803437        1.33564102529383       -5.79705514232395
O            3.02570047705481       -2.23651945218870       -2.89126537943036
H            3.51199588287815       -2.03756082814053       -2.08453259863115
H            3.27189940083603       -1.59588105860093       -3.55315736800129
O            3.15115369002281       -2.64183153769190        0.16796948121044
H            3.65567116095890       -1.88965217888796        0.48834985090812
H            2.45291292020627       -2.82127730835521        0.80247190756367
O            1.72590491357470        2.58237955249060       -3.74037283836823
H            2.67720650951170        2.68700721252475       -3.71308313705951
H            1.38729890428502        3.14710857060044       -4.43399902808797
37
 energy: -59.798448802580 gnorm: 0.061621088670 xtb: 6.7.1 (edcfbbe)
N           -0.43494816549396       -0.47903575888180        1.66344814088100
C            0.71116129470227        0.17765818219160        0.98148247101112
C            0.22030531805441        1.11821362761648       -0.11464267292968
C           -0.62729071619773        0.42045964630400       -1.18217245633245
C            0.11763296044016       -0.82489872687799       -1.81262166936236
O            0.24474379978642       -0.81577239026031       -3.05109623151171
O            0.34915566386116       -1.76591990696346       -1.02703026752632
H           -0.11364403982100       -1.03768805955051        2.46097893505422
H           -1.12752580690297        0.21539367728117        1.97369837637910
H            1.31276668020451        0.72543208666449        1.70427323758741
H            1.29508465507300       -0.61010944479284        0.51163067113363
H            1.09381865028775        1.54835839830411       -0.61106408514163
H           -0.35645402074579        1.94238191001110        0.31485318549204
H           -1.58424677664737        0.06014394583025       -0.78972528085317
H           -0.82965505890368        1.10940149505637       -2.00319958490045
H           -0.85458967332553       -1.11432244949861        0.96550110009793
O           -1.03313041896332        3.33297848912862       -4.64994313650633
H           -1.14453257380624        3.19347181172015       -3.68817663802360
H           -1.65210758411358        2.69904105254167       -5.05946982901979
O           -0.10146042196663        0.20052969562300        7.12513483427651
H           -0.43644250106833        1.10611226262849        7.11429102395454
H           -0.81673098596532       -0.36499762100046        6.79573550743594
O           -0.04255711341995       -4.31969521816788       -2.34933897510775
H            0.01259663392638       -3.80933927348737       -3.17553656391290
H            0.76841855142579       -4.03536208458090       -1.86833345261976
O            1.79018639004741        1.16007891353594       -6.72313870662498
H            1.85505898716928        0.20547702088159       -6.84249926313393
H            1.71616262681865        1.31681861727774       -5.77265843426088
O            3.07289033782908       -2.34149801638359       -2.94252404530432
H            3.47828395975983       -2.11918151903848       -2.07259544226901
H            3.30376098339006       -1.58644705516917       -3.53574592726025
O            3.20543021963673       -2.60300336834064        0.16768458441463
H            3.70623277297018       -1.88102279248413        0.57111160869974
H            2.49735791796714       -2.85362672594542        0.77399626226683
O            1.75842386035965        2.55084040727779       -3.75957915255617
H            2.71136441219953        2.76054965863896       -3.74337465446322
H            1.35133218143445        3.14822251290203       -4.40687446906567
37
 energy: -59.799760935493 gnorm: 0.084999149032 xtb: 6.7.1 (edcfbbe)
N           -0.42696059215758       -0.48237555293471        1.64484320806254
C            0.71879333351920        0.19214204856540        0.98248292348955
C            0.22141423646516        1.12759382432668       -0.11111253197379
C           -0.63499442119506        0.42495396396162       -1.16771729373359
C            0.03357709456998       -0.85579319446438       -1.80532443339638
O            0.23092427500623       -0.82344680609589       -3.02150525010941
O            0.31487076585705       -1.76634091164209       -1.02153070274844
H           -0.11125646145687       -1.03625603431124        2.44513994979494
H           -1.13483199689894        0.19897872548029        1.94644547416896
H            1.30588967350203        0.74357191964728        1.71022786510902
H            1.31726694330118       -0.58369437054814        0.51414269769147
H            1.08712539737970        1.56371267211474       -0.61222479948906
H           -0.35429678505150        1.94963424925647        0.32090514105681
H           -1.60715882568127        0.10681430318984       -0.77707397850877
H           -0.81327972246571        1.10943914682031       -1.99738656230630
H           -0.82258989530207       -1.12325010489859        0.93781696830011
O           -1.04115883257133        3.33741362862426       -4.65243415254041
H           -1.15862366931725        3.23295384169420       -3.70376283798741
H           -1.65901699733598        2.73663437657181       -5.07922627958166
O           -0.09194902382217        0.20424020885749        7.11620739817366
H           -0.43348788850252        1.10632438455176        7.12157445587509
H           -0.83246528121757       -0.36551209213778        6.82843279612108
O           -0.04510428747750       -4.36589627053561       -2.36655317417726
H           -0.01228917678406       -3.79228559193954       -3.17456806093544
H            0.74850839590390       -4.03715221371224       -1.87596778796004
O            1.82501452627241        1.17951796809802       -6.71979652165016
H            1.83148040051863        0.21776344608880       -6.85723621416364
H            1.65825684890930        1.28577651710913       -5.73884191388113
O            3.06854393945281       -2.33831496242010       -2.93343449906183
H            3.49671262075262       -2.21070600944869       -2.08724286766565
H            3.34361416579464       -1.67517606632877       -3.54184305722781
O            3.25642306633389       -2.56226465189769        0.16216073330541
H            3.75730173509257       -1.87472667714250        0.65010967054979
H            2.53786809307118       -2.87721462957156        0.74331849763615
O            1.78511874204361        2.53431090102799       -3.77148574125110
H            2.73353134173230        2.80100877460372       -3.77588234646071
H            1.32408126176206        3.14726423942982       -4.38917777252724
37
 energy: -59.798650425862 gnorm: 0.091560558100 xtb: 6.7.1 (edcfbbe)
N           -0.42220323088240       -0.49002722537147        1.62954244119132
C            0.72116361126026        0.19982605284409        0.98301694157559
C            0.22083575548612        1.13382969149092       -0.10954456281208
C           -0.63829971330156        0.43566780977582       -1.16750395319050
C           -0.04556398562205       -0.88176039039863       -1.80273855569866
O            0.22917778662152       -0.84031725143437       -3.00294133894102
O            0.29725898451633       -1.75420692141936       -0.98825359163520
H           -0.11213537381958       -1.03862251233211        2.43379484662217
H           -1.14090298785851        0.18091621151551        1.92294871987834
H            1.29207094470811        0.75608839552153        1.71949450224491
H            1.33834186048343       -0.56546966667610        0.51799870916780
H            1.08299695402789        1.57258105727268       -0.60972021254813
H           -0.35438266543753        1.95293216247827        0.32690543035636
H           -1.61586886383568        0.14510376790310       -0.77453174441000
H           -0.80286494899697        1.11748465088755       -2.00007889562332
H           -0.79965077827532       -1.13497931692681        0.91778928472240
O           -1.04134233275590        3.33098549484127       -4.65708338311571
H           -1.17105801437313        3.25045981113152       -3.72180995306117
H           -1.65367423539595        2.75502442298647       -5.10289326388751
O           -0.12484750162091        0.19824491491454        7.15073560345088
H           -0.42207135965983        1.10555516734006        7.12256384834549
H           -0.80841190648743       -0.35628730870083        6.81066091274413
O           -0.04645025839091       -4.34376313168034       -2.37424598046486
H           -0.03680342306276       -3.83055971050581       -3.18283108163451
H            0.72719939125669       -4.05222074521816       -1.89131957713895
O            1.76203281605003        1.17043255147942       -6.68667800608308
H            1.82702701153543        0.23378980624872       -6.84556518085118
H            1.70098744319647        1.31131412655325       -5.75968868678688
O            3.09990938153240       -2.41717883582498       -2.95758323532624
H            3.46956313127299       -2.26589102011895       -2.07273997766354
H            3.36618804638112       -1.66578105077800       -3.51428522964427
O            3.26904842398073       -2.54185829088134        0.16504718927390
H            3.79351850211802       -1.89520004731848        0.65765957907505
H            2.58775136307657       -2.85478588913756        0.75461026642313
O            1.78647315035827        2.60570228258056       -3.75956062207983
H            2.70225841781416        2.75024610213716       -3.77653004316206
H            1.37958160410359        3.15236783481082       -4.41216219931433
37
 energy: -59.805382310532 gnorm: 0.059938116043 xtb: 6.7.1 (edcfbbe)
N           -0.41618108500461       -0.49617896513356        1.62172000804791
C            0.72309557308478        0.20375747940001        0.97985502749339
C            0.21879558014716        1.14212424225679       -0.11243477859334
C           -0.64029335173408        0.45276752023303       -1.17715792957774
C            0.01972420716131       -0.84146034088735       -1.77301893234548
O            0.18805075681087       -0.88686465278613       -3.00836767891166
O            0.23839303497982       -1.76947400488397       -0.94006810475985
H           -0.10618917608314       -1.04256563591879        2.43078463144908
H           -1.14286845537684        0.17106840771713        1.91045477332958
H            1.28748771567022        0.76330199660866        1.72453702181612
H            1.35297668242751       -0.55613825950238        0.51780428170392
H            1.08360436255908        1.58093155347024       -0.61228395708184
H           -0.36011782795154        1.95869802321777        0.32800017637777
H           -1.61378579131887        0.15435228622346       -0.77792457862562
H           -0.80884950749174        1.12773458534321       -2.01582784702344
H           -0.78489509055094       -1.14526221152529        0.90625679181639
O           -1.04901601886312        3.37268670644759       -4.66664663149473
H           -1.16393929887267        3.23523855870892       -3.71748310738336
H           -1.64603234889063        2.75261574043274       -5.10413822402865
O           -0.09958879647474        0.20103823190195        7.12342310081454
H           -0.42792137216323        1.10747071315052        7.13168201117221
H           -0.83121592080028       -0.36049226591649        6.83657123034537
O           -0.05212178388310       -4.32505881739840       -2.38089398550092
H           -0.04571726613598       -3.86455585467300       -3.19271491361328
H            0.71329711305909       -4.05651765149753       -1.89199399761917
O            1.79614889022829        1.19404120733749       -6.69021316823537
H            1.80182500036729        0.23745775039901       -6.85976683061903
H            1.67843694583837        1.29181900472367       -5.73318864480039
O            3.10685603698356       -2.44803678502701       -2.95933733867523
H            3.45844465183622       -2.28561978849508       -2.06111215427181
H            3.38225322290998       -1.68519717994792       -3.50331906511323
O            3.27618871475944       -2.51993231597101        0.15904807023777
H            3.81626909187295       -1.90080046051578        0.66630345539984
H            2.61021672211598       -2.85522689298957        0.75362690418118
O            1.79421945519366        2.56365456660001       -3.77444636826124
H            2.73075639312315        2.81247203247363       -3.80098995737655
H            1.32854594047018        3.14579447641252       -4.39426029027568
37
 energy: -59.796380263330 gnorm: 0.144367458428 xtb: 6.7.1 (edcfbbe)
N           -0.41180936304303       -0.51055198901266        1.60502467008153
C            0.72519127779157        0.20998000817000        0.97866146149811
C            0.21781084885015        1.14965981869240       -0.11108192125387
C           -0.64910365148404        0.46056570123597       -1.17055950731924