37
 energy: -59.857830315715 gnorm: 0.006453085723 xtb: 6.7.1 (edcfbbe)
N           -0.65029927018081        0.33809265910965        1.39450881048670
C            0.27714021564806        0.60365421572744        0.27822195060507
C           -0.46752937714579        1.05713157251524       -0.97639725539510
C           -1.73611438282125        0.25096860913665       -1.30597638144848
C           -1.62238898285899       -1.27675907498921       -1.13805980252356
O           -1.59618941855839       -1.98724794165100       -2.16417545121857
O           -1.60756886357335       -1.72811117939015        0.03523718137835
H           -0.13568162190612        0.13905875091039        2.27810888486169
H           -1.27801084953570        1.12725287911639        1.54866000781231
H            0.99114067404384        1.37465248245805        0.56528607666137
H            0.82111986094213       -0.31781614585971        0.06805151140101
H            0.22509828115849        0.99805706928499       -1.81625424092528
H           -0.76496863571285        2.10220683032007       -0.87356249633399
H           -2.56383449192646        0.56724759947302       -0.66627701278784
H           -2.01904765018306        0.43898221896835       -2.34264037133955
H           -1.20040899914341       -0.51654202756114        1.09958258244493
O            1.06319032183294        3.67777149283853       -5.48902665166318
H            0.20078224924492        3.51649582312312       -5.88232177773913
H            1.68179462512677        3.83911954775344       -6.20928041814253
O            0.65401423843607       -0.08828093468001        3.80270855157016
H            1.60074206286771        0.04925619572394        3.91223938086604
H            0.41670413751648       -0.86663656885639        4.31216821363055
O           -1.52125769744577       -4.58529930756449       -1.24456467360485
H           -1.54971730618336       -3.70677348668408       -1.68216745950787
H           -1.60894551367540       -4.38836391496489       -0.30497902586696
O            2.92536204682001       -0.21815690026646       -4.88657254846180
H            2.22121476859107       -0.86976723631763       -4.90996804316166
H            2.59189353501509        0.51851770952950       -4.33876042214920
O            5.32229466583966       -0.80528534090758        0.17453289915066
H            4.47265106257030       -1.28113515428308        0.17617603199802
H            5.43027529359303       -0.46307614911837       -0.71897463177693
O            2.93148483595201       -2.32658787531916       -0.00753441247678
H            2.79580438222909       -2.98668560543689        0.68120085798142
H            2.89143521746984       -2.79391681813883       -0.84782701679489
O            1.96393823445214        1.98047433335201       -3.44687950343632
H            2.66919316370418        2.47794587245008       -3.01967599481931
H            1.59154218719054        2.57919880012806       -4.11232834962470
