[Molden Format]
[Title]
 Molden file created by orca_2mkl for BaseName=input

[Atoms] AU
N    1   7         -0.6039626242        -1.7892120969         2.5744540723 
C    2   6         -0.3148043757         0.0866249972         0.5414983642 
C    3   6         -2.4421770179        -0.0665522702        -1.3916527560 
C    4   6         -2.0912494254        -2.1417214288        -3.3685160928 
C    5   6         -2.4841327095        -4.8386943136        -2.5371589146 
O    6   8         -0.8877385779        -6.4585724285        -3.2775851982 
O    7   8         -4.3815318202        -5.4387057761        -1.2269435053 
H    8   1          0.5261952046        -1.3390276087         4.1253511940 
H    9   1         -2.4712919656        -1.8094924207         3.1595504786 
H   10   1         -0.3407319210         1.9483275841         1.4171838868 
H   11   1          1.4948379060        -0.1988229736        -0.3897534612 
H   12   1         -2.5286118689         1.7090326369        -2.4166101937 
H   13   1         -4.2532065296        -0.3133830812        -0.4529607823 
H   14   1         -0.2405281091        -1.9972421088        -4.2523243329 
H   15   1         -3.5215818296        -1.8808291714        -4.8397296898 
H   16   1         -0.1525558715        -3.6016326792         2.0298973869 
[GTO]
  1 0 
s   6 1.0  
    19730.8006470000         0.0005862639 
     2957.8958745000         0.0045428821 
      673.2213359500         0.0235584136 
      190.6824949400         0.0947091933 
       62.2954418980         0.2971978492 
       22.6541611820         0.6691624689 
s   2 1.0  
        8.9791477428         0.6459668363 
        3.6863002370         0.3870057440 
s   1 1.0  
        0.8466007680         1.0000000000 
s   1 1.0  
        0.3364713377         0.9999999998 
s   1 1.0  
        0.1364765367         1.0000000003 
p   4 1.0  
       49.2003805100         0.0114488252 
       11.3467905370         0.0784223379 
        3.4273972411         0.3081809474 
        1.1785525134         0.7202719637 
p   1 1.0  
        0.4164220497         0.9999999999 
p   1 1.0  
        0.1426082601         0.9999999997 
d   1 1.0  
        1.6540000000         1.0000000000 
d   1 1.0  
        0.4690000000         1.0000000000 
f   1 1.0  
        1.0930000000         1.0000000000 

  2 0 
s   6 1.0  
    13575.3496820000         0.0006064549 
     2035.2333680000         0.0046979088 
      463.2256235900         0.0243324776 
      131.2001959800         0.0973999683 
       42.8530158910         0.3019558425 
       15.5841857660         0.6623360915 
s   2 1.0  
        6.2067138508         0.6559530853 
        2.5764896527         0.3758563329 
s   1 1.0  
        0.5769633942         1.0000000000 
s   1 1.0  
        0.2297283136         1.0000000000 
s   1 1.0  
        0.0951644400         1.0000000003 
p   4 1.0  
       34.6972322440         0.0113272200 
        7.9582622826         0.0761696592 
        2.3780826883         0.3019225220 
        0.8143320818         0.7278502735 
p   1 1.0  
        0.2888754725         0.9999999999 
p   1 1.0  
        0.1005682367         0.9999999995 
d   1 1.0  
        1.0970000000         1.0000000000 
d   1 1.0  
        0.3180000000         1.0000000000 
f   1 1.0  
        0.7610000000         1.0000000000 

  3 0 
s   6 1.0  
    13575.3496820000         0.0006064549 
     2035.2333680000         0.0046979088 
      463.2256235900         0.0243324776 
      131.2001959800         0.0973999683 
       42.8530158910         0.3019558425 
       15.5841857660         0.6623360915 
s   2 1.0  
        6.2067138508         0.6559530853 
        2.5764896527         0.3758563329 
s   1 1.0  
        0.5769633942         1.0000000000 
s   1 1.0  
        0.2297283136         1.0000000000 
s   1 1.0  
        0.0951644400         1.0000000003 
p   4 1.0  
       34.6972322440         0.0113272200 
        7.9582622826         0.0761696592 
        2.3780826883         0.3019225220 
        0.8143320818         0.7278502735 
p   1 1.0  
        0.2888754725         0.9999999999 
p   1 1.0  
        0.1005682367         0.9999999995 
d   1 1.0  
        1.0970000000         1.0000000000 
d   1 1.0  
        0.3180000000         1.0000000000 
f   1 1.0  
        0.7610000000         1.0000000000 

  4 0 
s   6 1.0  
    13575.3496820000         0.0006064549 
     2035.2333680000         0.0046979088 
      463.2256235900         0.0243324776 
      131.2001959800         0.0973999683 
       42.8530158910         0.3019558425 
       15.5841857660         0.6623360915 
s   2 1.0  
        6.2067138508         0.6559530853 
        2.5764896527         0.3758563329 
s   1 1.0  
        0.5769633942         1.0000000000 
s   1 1.0  
        0.2297283136         1.0000000000 
s   1 1.0  
        0.0951644400         1.0000000003 
p   4 1.0  
       34.6972322440         0.0113272200 
        7.9582622826         0.0761696592 
        2.3780826883         0.3019225220 
        0.8143320818         0.7278502735 
p   1 1.0  
        0.2888754725         0.9999999999 
p   1 1.0  
        0.1005682367         0.9999999995 
d   1 1.0  
        1.0970000000         1.0000000000 
d   1 1.0  
        0.3180000000         1.0000000000 
f   1 1.0  
        0.7610000000         1.0000000000 

  5 0 
s   6 1.0  
    13575.3496820000         0.0006064549 
     2035.2333680000         0.0046979088 
      463.2256235900         0.0243324776 
      131.2001959800         0.0973999683 
       42.8530158910         0.3019558425 
       15.5841857660         0.6623360915 
s   2 1.0  
        6.2067138508         0.6559530853 
        2.5764896527         0.3758563329 
s   1 1.0  
        0.5769633942         1.0000000000 
s   1 1.0  
        0.2297283136         1.0000000000 
s   1 1.0  
        0.0951644400         1.0000000003 
p   4 1.0  
       34.6972322440         0.0113272200 
        7.9582622826         0.0761696592 
        2.3780826883         0.3019225220 
        0.8143320818         0.7278502735 
p   1 1.0  
        0.2888754725         0.9999999999 
p   1 1.0  
        0.1005682367         0.9999999995 
d   1 1.0  
        1.0970000000         1.0000000000 
d   1 1.0  
        0.3180000000         1.0000000000 
f   1 1.0  
        0.7610000000         1.0000000000 

  6 0 
s   6 1.0  
    27032.3826310000         0.0005722733 
     4052.3871392000         0.0044353233 
      922.3272271000         0.0230201076 
      261.2407098900         0.0928224906 
       85.3546413510         0.2937850002 
       31.0350352450         0.6740160450 
s   2 1.0  
       12.2608607280         0.6383993703 
        4.9987076005         0.3953458713 
s   1 1.0  
        1.1703108158         1.0000000000 
s   1 1.0  
        0.4647474099         1.0000000000 
s   1 1.0  
        0.1850453636         0.9999999999 
p   4 1.0  
       63.2749548010         0.0120183321 
       14.6270493790         0.0830054217 
        4.4501223456         0.3199174393 
        1.5275799647         0.7071554292 
p   1 1.0  
        0.5293511794         1.0000000000 
p   1 1.0  
        0.1747842127         1.0000000000 
d   1 1.0  
        2.3140000000         1.0000000000 
d   1 1.0  
        0.6450000000         1.0000000000 
f   1 1.0  
        1.4280000000         1.0000000000 

  7 0 
s   6 1.0  
    27032.3826310000         0.0005722733 
     4052.3871392000         0.0044353233 
      922.3272271000         0.0230201076 
      261.2407098900         0.0928224906 
       85.3546413510         0.2937850002 
       31.0350352450         0.6740160450 
s   2 1.0  
       12.2608607280         0.6383993703 
        4.9987076005         0.3953458713 
s   1 1.0  
        1.1703108158         1.0000000000 
s   1 1.0  
        0.4647474099         1.0000000000 
s   1 1.0  
        0.1850453636         0.9999999999 
p   4 1.0  
       63.2749548010         0.0120183321 
       14.6270493790         0.0830054217 
        4.4501223456         0.3199174393 
        1.5275799647         0.7071554292 
p   1 1.0  
        0.5293511794         1.0000000000 
p   1 1.0  
        0.1747842127         1.0000000000 
d   1 1.0  
        2.3140000000         1.0000000000 
d   1 1.0  
        0.6450000000         1.0000000000 
f   1 1.0  
        1.4280000000         1.0000000000 

  8 0 
s   3 1.0  
       34.0613410000         0.0254393072 
        5.1235746000         0.1900859489 
        1.1646626000         0.8524411301 
s   1 1.0  
        0.3272304100         1.0000000002 
s   1 1.0  
        0.1030724100         1.0000000001 
p   1 1.0  
        0.8000000000         1.0000000000 

  9 0 
s   3 1.0  
       34.0613410000         0.0254393072 
        5.1235746000         0.1900859489 
        1.1646626000         0.8524411301 
s   1 1.0  
        0.3272304100         1.0000000002 
s   1 1.0  
        0.1030724100         1.0000000001 
p   1 1.0  
        0.8000000000         1.0000000000 

 10 0 
s   3 1.0  
       34.0613410000         0.0254393072 
        5.1235746000         0.1900859489 
        1.1646626000         0.8524411301 
s   1 1.0  
        0.3272304100         1.0000000002 
s   1 1.0  
        0.1030724100         1.0000000001 
p   1 1.0  
        0.8000000000         1.0000000000 

 11 0 
s   3 1.0  
       34.0613410000         0.0254393072 
        5.1235746000         0.1900859489 
        1.1646626000         0.8524411301 
s   1 1.0  
        0.3272304100         1.0000000002 
s   1 1.0  
        0.1030724100         1.0000000001 
p   1 1.0  
        0.8000000000         1.0000000000 

 12 0 
s   3 1.0  
       34.0613410000         0.0254393072 
        5.1235746000         0.1900859489 
        1.1646626000         0.8524411301 
s   1 1.0  
        0.3272304100         1.0000000002 
s   1 1.0  
        0.1030724100         1.0000000001 
p   1 1.0  
        0.8000000000         1.0000000000 

 13 0 
s   3 1.0  
       34.0613410000         0.0254393072 
        5.1235746000         0.1900859489 
        1.1646626000         0.8524411301 
s   1 1.0  
        0.3272304100         1.0000000002 
s   1 1.0  
        0.1030724100         1.0000000001 
p   1 1.0  
        0.8000000000         1.0000000000 

 14 0 
s   3 1.0  
       34.0613410000         0.0254393072 
        5.1235746000         0.1900859489 
        1.1646626000         0.8524411301 
s   1 1.0  
        0.3272304100         1.0000000002 
s   1 1.0  
        0.1030724100         1.0000000001 
p   1 1.0  
        0.8000000000         1.0000000000 

 15 0 
s   3 1.0  
       34.0613410000         0.0254393072 
        5.1235746000         0.1900859489 
        1.1646626000         0.8524411301 
s   1 1.0  
        0.3272304100         1.0000000002 
s   1 1.0  
        0.1030724100         1.0000000001 
p   1 1.0  
        0.8000000000         1.0000000000 

 16 0 
s   3 1.0  
       34.0613410000         0.0254393072 
        5.1235746000         0.1900859489 
        1.1646626000         0.8524411301 
s   1 1.0  
        0.3272304100         1.0000000002 
s   1 1.0  
        0.1030724100         1.0000000001 
p   1 1.0  
        0.8000000000         1.0000000000 

[5D]
[9G]
[MO]
 Sym=     1a
 Ene= -1.90512706554671E+01
 Spin= Alpha
 Occup= 2.000000
  1       0.000000819869
  2      -0.000005123949
  3       0.000157437159
  4      -0.000795844962
  5       0.000514217645
  6      -0.000010087606
  7       0.000008884115
  8      -0.000013927837
  9       0.000040323127
 10       0.000008592482
 11       0.000192610675
 12      -0.001104185372
 13       0.000308366085
 14      -0.000562056808
 15      -0.000006281581
 16      -0.000020915276
 17      -0.000006336801
 18      -0.000010517370
 19      -0.000006763797
 20      -0.000007436523
 21       0.000033641825
 22       0.000008768181
 23       0.000108620137
 24       0.000009059793
 25      -0.000006087348
 26      -0.000010141646
 27      -0.000010887464
 28      -0.000021253130
 29      -0.000012255007
 30      -0.000001595872
 31      -0.000010890935
 32      -0.000001240332
 33       0.000006257806
 34      -0.000022118462
 35      -0.000405389471
 36      -0.001661868281
 37       0.000023949686
 38       0.000029477116
 39      -0.000008519890
 40      -0.000082333911
 41      -0.000246804604
 42       0.000184682207
 43       0.001162964163
 44      -0.001034030370
 45      -0.000310572246
 46       0.000011319171
 47      -0.000012730696
 48      -0.000026223885
 49       0.000001912211
 50      -0.000031789287
 51       0.000079692078
 52       0.000136452874
 53       0.000002699168
 54      -0.000111078886
 55       0.000215846394
 56      -0.000007859838
 57      -0.000012285976
 58      -0.000029646743
 59      -0.000005171480
 60      -0.000024677217
 61      -0.000005935340
 62       0.000013310017
 63      -0.000001555459
 64       0.000008308641
 65      -0.000094040305
 66       0.000360690632
 67      -0.001649316533
 68       0.000047755875
 69      -0.000004506324
 70      -0.000000534098
 71      -0.000520562104
 72      -0.000063480088
 73      -0.000202211189
 74       0.001771792219
 75       0.001338624457
 76       0.001292534895
 77       0.000010616873
 78      -0.000030514569
 79      -0.000022552063
 80      -0.000016500037
 81       0.000004127787
 82       0.000149525471
 83       0.000248555237
 84       0.000252469281
 85       0.000076191695
 86       0.000376272300
 87      -0.000045423910
 88       0.000020940571
 89      -0.000034015610
 90      -0.000024431100
 91      -0.000058557954
 92       0.000069580726
 93       0.000037576709
 94       0.000013173646
 95      -0.000062791778
 96      -0.000055865194
 97       0.003728794673
 98      -0.000435715398
 99       0.000014517197
100      -0.000102851285
101       0.000015239118
102      -0.001833161041
103      -0.002415593112
104       0.001051165992
105      -0.003596160249
106       0.001885678067
107       0.001480928193
108      -0.000135231602
109      -0.000114010421
110      -0.000066068388
111      -0.000095416306
112      -0.000048757853
113       0.000592915460
114       0.001325959384
115      -0.000622444698
116      -0.000755366354
117       0.001024836640
118      -0.000015097081
119       0.000007968556
120       0.000010352468
121      -0.000064272161
122      -0.000034841757
123      -0.000013875391
124       0.000113819354
125       0.000043375998
126      -0.000254371857
127       0.000156631492
128       0.004102448353
129      -0.005572046334
130      -0.000488052687
131      -0.000073549996
132       0.000175862496
133      -0.006103152630
134      -0.003355546072
135       0.005143422724
136       0.005816182111
137      -0.000439839668
138      -0.004796788520
139      -0.000099117694
140      -0.000432482516
141      -0.000180088439
142       0.000158880464
143       0.000148496000
144       0.000796333417
145      -0.003409317323
146      -0.000530448910
147       0.003931272605
148       0.001998117851
149      -0.000360767345
150      -0.000041893184
151      -0.000021397683
152       0.000107319304
153       0.000115548697
154       0.000124054008
155       0.000073692271
156      -0.000519256603
157      -0.000762803926
158      -0.000201311848
159       0.001665435450
160      -0.001818115672
161      -0.000030535565
162       0.000100075737
163       0.000038340027
164      -0.000490370293
165      -0.000216466634
166       0.000198456410
167      -0.000536784749
168      -0.000424211395
169       0.000873117260
170      -0.000062293477
171      -0.000043974444
172      -0.000025826535
173      -0.000053315013
174      -0.000010857061
175       0.000228298303
176       0.000059992247
177       0.000155705105
178       0.000342704650
179      -0.000045182248
180       0.000046746733
181       0.000012840739
182       0.000041501852
183      -0.000064393893
184       0.000010569094
185      -0.000000146883
186       0.000043488736
187       0.435092027952
188       0.639506748424
189       0.036543771436
190      -0.031153044902
191       0.014218816843
192       0.001559811492
193       0.000538531173
194      -0.001064122031
195      -0.005103110367
196      -0.001736613155
197       0.003459417009
198       0.000949108254
199       0.000728117908
200      -0.000392676379
201       0.000018567983
202      -0.000194434336
203      -0.000064757047
204       0.000175097773
205       0.000119310635
206      -0.000009100818
207       0.001164070489
208       0.000374163908
209      -0.000912185205
210      -0.000631939155
211      -0.000079111772
212      -0.000043417093
213      -0.000009192045
214       0.000127167667
215       0.000085300332
216      -0.000071828827
217      -0.000088143093
218      -0.000057963559
219       0.000366683149
220       0.000214541082
221       0.000002081682
222      -0.000028291587
223      -0.000035445973
224       0.000010451407
225      -0.000292766005
226      -0.000212706627
227       0.000002953255
228      -0.000037652002
229       0.000012477320
230      -0.000026125824
231       0.000266392656
232       0.000730681887
233      -0.000058515360
234      -0.000028171424
235      -0.000016998520
236       0.000026362754
237       0.000217080149
238      -0.000710457055
239      -0.000062376542
240       0.000013072395
241       0.000008088187
242       0.000050035377
243       0.000037167637
244      -0.000267807415
245      -0.000033343290
246       0.000004134726
247       0.000020184521
248      -0.000023606933
249       0.000148343913
250       0.001186283916
251      -0.000005467435
252      -0.000058460773
253       0.000029538901
254       0.000124489868
255       0.001801712400
256       0.001272445344
257      -0.000240471437
258      -0.000136868479
259       0.000068635815
260      -0.000116976949
261      -0.001349347649
262       0.000223788102
263      -0.000228614150
264       0.000097011213
265      -0.000054342174
266      -0.000036261518
267       0.000374787970
268       0.000632833346
269      -0.000079849367
270       0.000065332313
271      -0.000017007345
 Sym=     1a
 Ene= -1.90480796560208E+01
 Spin= Alpha
 Occup= 2.000000
  1       0.000000211735
  2      -0.000001288130
  3       0.000043139788
  4      -0.000007148832
  5      -0.002172660728
  6      -0.000007167635
  7      -0.000031966780
  8      -0.000022549510
  9      -0.000108029972
 10       0.000295499344
 11       0.000052759524
 12      -0.000860134309
 13       0.000283075790
 14       0.000085566905
 15      -0.000011147636
 16      -0.000005360523
 17       0.000020954002
 18      -0.000001567314
 19       0.000007946664
 20       0.000018726414
 21      -0.000071542430
 22      -0.000231040947
 23       0.000123082172
 24       0.000009539717
 25      -0.000018760212
 26      -0.000000767740
 27       0.000003831968
 28      -0.000019459717
 29      -0.000019033423
 30      -0.000004553226
 31      -0.000023052785
 32       0.000002482320
 33      -0.000012748344
 34       0.000306458000
 35      -0.001946348454
 36       0.005109679318
 37      -0.000017519967
 38       0.000001039633
 39      -0.000024354076
 40       0.000749173416
 41       0.000119876918
 42       0.000278147357
 43      -0.000519429182
 44      -0.002169503531
 45      -0.001070919774
 46       0.000000304280
 47      -0.000043002274
 48       0.000010370820
 49      -0.000003912420
 50      -0.000039775762
 51      -0.000010017209
 52      -0.000143811748
 53       0.000142062307
 54      -0.000023777490
 55       0.000164007180
 56      -0.000006557715
 57       0.000010042549
 58       0.000019309757
 59       0.000014411954
 60      -0.000016765255
 61       0.000017458707
 62      -0.000027011726
 63      -0.000001146317
 64       0.000006314309
 65      -0.000371140134
 66       0.002076028524
 67       0.001034780426
 68       0.000006669837
 69       0.000001321546
 70       0.000036965298
 71       0.000177075044
 72      -0.000499707957
 73      -0.000652604131
 74      -0.000920733374
 75       0.000104042589
 76      -0.001951944228
 77      -0.000025483620
 78      -0.000046719641
 79      -0.000034376696
 80      -0.000019245631
 81      -0.000012884997
 82       0.000316649725
 83       0.000642461055
 84       0.000645851537
 85      -0.000140957949
 86       0.000322912091
 87       0.000036868495
 88       0.000052568827
 89      -0.000041357323
 90       0.000057931590
 91      -0.000031953533
 92       0.000081927096
 93       0.000026024737
 94       0.000011141293
 95      -0.000053262167
 96       0.000065097807
 97       0.003496241121
 98      -0.004309976610
 99       0.000068286279
100      -0.000068773874
101       0.000022091888
102      -0.000743262523
103      -0.003618314930
104       0.000415313959
105       0.001972389097
106      -0.001975281964
107      -0.001897852461
108      -0.000097947658
109      -0.000105516718
110      -0.000035940683
111      -0.000090271636
112      -0.000032372255
113      -0.000000971129
114       0.001160362447
115      -0.000999438966
116      -0.000979920936
117       0.000784145583
118      -0.000049835716
119       0.000064464064
120      -0.000080215245
121      -0.000056177491
122      -0.000032780784
123       0.000045450174
124       0.000112640706
125       0.000045321770
126      -0.000263206706
127       0.000327117401
128       0.003022343706
129      -0.006046138692
130       0.000299643228
131      -0.000261176732
132      -0.000233718930
133       0.005097060495
134      -0.007173148031
135      -0.001564837332
136      -0.005606532617
137       0.002839714269
138       0.002146626433
139      -0.000240425409
140      -0.000223581617
141       0.000150219947
142      -0.000080699800
143      -0.000428101115
144      -0.000764413982
145      -0.001190459173
146       0.002628137331
147       0.001329162045
148      -0.003960075755
149       0.000191189892
150      -0.000020878719
151       0.000254989413
152      -0.000258357515
153       0.000141935366
154      -0.000128084601
155       0.000086738116
156       0.435091940341
157       0.639513496422
158       0.036460910297
159      -0.030615410980
160       0.013857641348
161      -0.001266958020
162       0.001338951724
163       0.000591940928
164       0.004014255500
165      -0.004394585773
166      -0.001883693150
167      -0.000497983966
168       0.001128206637
169       0.000488918599
170      -0.000083394345
171      -0.000062439480
172       0.000119135019
173       0.000005870249
174      -0.000240161240
175       0.000537488833
176       0.000452160522
177      -0.000631773297
178       0.000027634690
179       0.001322769815
180       0.000086188378
181      -0.000045202526
182       0.000043557058
183       0.000006395386
184       0.000123410233
185      -0.000109313933
186      -0.000100692669
187       0.000520036173
188       0.000764828659
189      -0.000113113577
190       0.001427378015
191      -0.001509839295
192       0.000077143287
193       0.000038034025
194      -0.000038635568
195       0.000244019259
196      -0.000269338939
197      -0.000184189120
198       0.000558962278
199      -0.000796589808
200       0.000073080387
201      -0.000044561051
202      -0.000063307100
203      -0.000029500752
204      -0.000031188663
205       0.000007615979
206       0.000169553269
207       0.000118627794
208       0.000132478685
209       0.000235550168
210      -0.000052693013
211      -0.000068858295
212       0.000006856230
213       0.000003674019
214       0.000016242041
215      -0.000018725565
216       0.000029294266
217       0.000047830331
218      -0.000050143905
219       0.000550419307
220       0.000095168273
221      -0.000019652376
222      -0.000026214647
223      -0.000081735333
224       0.000023209557
225      -0.000375435927
226      -0.000271294296
227      -0.000053641464
228      -0.000006518304
229       0.000081902241
230       0.000003227835
231       0.000005882234
232       0.000741559331
233      -0.000054116880
234       0.000016438645
235      -0.000023691756
236       0.000082524343
237      -0.000657164898
238      -0.000758574684
239       0.000052048664
240       0.000021139664
241      -0.000017623880
242       0.000035816303
243      -0.000181023799
244      -0.000505762842
245       0.000023746364
246       0.000045662525
247      -0.000029562418
248       0.000057481671
249       0.000331937794
250      -0.000394383152
251       0.000062077815
252       0.000038881972
253       0.000026150559
254       0.000137954279
255       0.001164423510
256      -0.000466481379
257      -0.000175491564
258      -0.000164088312
259       0.000052966786
260      -0.000157479870
261      -0.000285093224
262       0.000752878165
263      -0.000104130452
264       0.000140777335
265       0.000056472636
266      -0.000004454595
267       0.000569753993
268       0.000872390434
269      -0.000053594610
270       0.000151414158
271      -0.000013225628
 Sym=     1a
 Ene= -1.44311238334313E+01
 Spin= Alpha
 Occup= 2.000000
  1      -0.448317210015
  2      -0.626793879329
  3      -0.037336210497
  4       0.031459070548
  5      -0.024304148994
  6      -0.000025767159
  7      -0.000416427257
  8       0.000539707667
  9       0.000431135411
 10       0.003476008303
 11      -0.004163688925
 12       0.000635897215
 13      -0.000529851182
 14       0.002303412722
 15      -0.000011096564
 16      -0.000006034807
 17       0.000090457960
 18       0.000065751399
 19      -0.000009209113
 20       0.000685971323
 21      -0.000063177228
 22      -0.001702027629
 23      -0.000850590951
 24       0.000190658223
 25       0.000022994754
 26      -0.000072869682
 27       0.000142863100
 28       0.000047463231
 29      -0.000084224154
 30       0.000084662190
 31      -0.000108254999
 32      -0.000007479088
 33       0.000038485000
 34       0.001606724671
 35      -0.007940788071
 36       0.017764363898
 37      -0.000060386134
 38      -0.000062541351
 39      -0.000003668135
 40       0.001085890577
 41       0.004117723972
 42      -0.003982506569
 43      -0.001403419645
 44      -0.002771157218
 45       0.000372785685
 46      -0.000120629082
 47       0.000012487290
 48       0.000223448185
 49       0.000109263554
 50       0.000038835083
 51      -0.000622870852
 52       0.000380588861
 53       0.002250900284
 54       0.001062926842
 55      -0.001003687249
 56       0.000020895830
 57       0.000000328717
 58       0.000128478472
 59       0.000143043547
 60      -0.000011752780
 61      -0.000030381688
 62       0.000018714472
 63      -0.000000665930
 64       0.000003392209
 65       0.000081530956
 66      -0.001849113854
 67       0.000190261006
 68      -0.000018896403
 69       0.000018331524
 70      -0.000152265878
 71      -0.000004207819
 72       0.000493268452
 73       0.000886747306
 74      -0.001276609856
 75      -0.001373048709
 76      -0.002149517290
 77      -0.000002978253
 78       0.000018809918
 79       0.000071984990
 80       0.000010503413
 81       0.000021190117
 82       0.000261727382
 83       0.000221360266
 84      -0.001334657126
 85      -0.000089524791
 86      -0.000300841794
 87       0.000085364077
 88       0.000067886318
 89      -0.000076721191
 90      -0.000044554314
 91      -0.000144217508
 92      -0.000040886739
 93      -0.000051200037
 94      -0.000001260523
 95       0.000007217568
 96      -0.000292539957
 97       0.002246224356
 98      -0.008666573198
 99       0.000046013853
100      -0.000013917326
101       0.000001704658
102      -0.000433520065
103       0.000934090187
104       0.000686669084
105       0.000021979477
106      -0.000460714428
107      -0.002190329172
108      -0.000007584872
109       0.000040847707
110       0.000040584923
111      -0.000004272617
112       0.000033906414
113       0.000021773637
114      -0.000336534590
115       0.000367829631
116      -0.000217850541
117      -0.000143656867
118      -0.000042379331
119      -0.000000495269
120       0.000056415861
121      -0.000029650590
122      -0.000027279291
123      -0.000001672080
124      -0.000016129056
125      -0.000002914560
126       0.000015444075
127       0.000220794532
128      -0.001416514689
129       0.002904952911
130      -0.000011580314
131      -0.000036112729
132      -0.000027841484
133      -0.000195662395
134       0.000565481826
135       0.000070154694
136      -0.000953784722
137       0.002338915869
138       0.000789239798
139       0.000002933812
140       0.000029588033
141      -0.000031668041
142      -0.000004180916
143      -0.000042556232
144       0.000158264833
145       0.000105433759
146      -0.000110549123
147       0.000011666221
148       0.000551898172
149      -0.000017189512
150       0.000010353411
151      -0.000036438540
152      -0.000008750030
153      -0.000016392730
154       0.000048119840
155       0.000059034211
156      -0.000000132303
157       0.000000773863
158      -0.000064284716
159       0.000368089423
160       0.001704220554
161       0.000012851948
162      -0.000040306948
163      -0.000048168052
164      -0.000250722864
165       0.000362927099
166       0.000311177485
167      -0.000337716785
168      -0.000034451841
169      -0.000180259308
170       0.000005581127
171       0.000004214280
172       0.000009780743
173      -0.000008718215
174      -0.000007166354
175      -0.000032934849
176      -0.000060785235
177       0.000015645784
178       0.000032952859
179      -0.000046399674
180      -0.000000672724
181      -0.000007161054
182       0.000003480066
183       0.000001313899
184      -0.000006720367
185      -0.000000334269
186       0.000005995895
187      -0.000000269771
188       0.000002088747
189      -0.000039991026
190       0.000141317288
191      -0.000691497690
192       0.000020277948
193      -0.000007346350
194       0.000016905743
195      -0.000072892643
196       0.000082632939
197      -0.000075532513
198       0.000263738553
199      -0.000277132782
200      -0.000136824337
201       0.000010825723
202       0.000018463914
203       0.000003001846