37
 energy: -59.878808411591 gnorm: 0.001843219648 xtb: 6.7.1 (edcfbbe)
N            0.64484233398942       -1.16193957937527        1.27443527095213
C            0.31053759849731        0.24853977946989        1.02677991825498
C           -0.52705979943658        0.39937847408464       -0.24281259165581
C            0.27099738536934        0.33976266944628       -1.55241528290576
C            0.64745863375214       -1.05236630601089       -2.08187928231749
O            0.64209712918204       -1.21316673316673       -3.32581417734686
O            0.96691989177060       -1.95358916606180       -1.27537906250349
H            1.42854921946920       -1.28387264828744        1.95825490371651
H           -0.16582192850209       -1.69093530104874        1.63187881124745
H           -0.24446270618880        0.64136326858051        1.87856596455269
H            1.23315314930812        0.82081890499151        0.92290247583655
H           -1.02029631565014        1.37127213998752       -0.21555168922642
H           -1.30506293859543       -0.36456170317883       -0.26077236820529
H            1.21337474363642        0.88456084653682       -1.44540964602117
H           -0.29211272413720        0.82885562395589       -2.34929956248275
H            0.91117566702959       -1.58991499923660        0.35611389592865
O           -1.39766534395136       -2.82272991715806        2.41460226886862
H           -1.81689844455838       -2.55414754849792        3.23835036932327
H           -2.03299716186754       -3.35411449557310        1.92722783165437
O           -0.74771907831707        0.56152681183852       -4.91324322119711
H           -0.43130352643598        0.48765717222097       -5.81889618064945
H           -0.24016050260901       -0.09853148927666       -4.39986833767218
O            1.47736725004556       -4.47257712336326       -0.15041020760085
H            1.27829297022753       -3.67799620535635       -0.67176043001350
H            2.21035904727577       -4.90604211058966       -0.59352041607739
O            2.59654603382737       -1.85570823730140        3.04541770682265
H            3.50184096629916       -1.97883448230418        2.74949195964241
H            2.17997762743465       -2.74831121917659        3.05266816411611
O           -3.98506750801364       -3.85551692055525       -2.99491294741564
H           -3.97340225545298       -2.89290705065976       -3.01592559033222
H           -3.13140612143305       -4.14187231608300       -2.65272559335942
O            1.72016721210923       -3.51697238108271       -4.41927564406376
H            1.37348617163168       -2.69746116477751       -4.01224943681265
H            1.08339213121920       -3.75940523128359       -5.09898036009425
O            1.16560278017012       -4.09531113241852        2.58606481226072
H            0.25097367019979       -3.76940603513707        2.62000421222604
H            1.31440974273209       -4.31823019413691        1.64884646268196
