
                                 *****************
                                 * O   R   C   A *
                                 *****************

                                            #,                                       
                                            ###                                      
                                            ####                                     
                                            #####                                    
                                            ######                                   
                                           ########,                                 
                                     ,,################,,,,,                         
                               ,,#################################,,                 
                          ,,##########################################,,             
                       ,#########################################, ''#####,          
                    ,#############################################,,   '####,        
                  ,##################################################,,,,####,       
                ,###########''''           ''''###############################       
              ,#####''   ,,,,##########,,,,          '''####'''          '####       
            ,##' ,,,,###########################,,,                        '##       
           ' ,,###''''                  '''############,,,                           
         ,,##''                                '''############,,,,        ,,,,,,###''
      ,#''                                            '''#######################'''  
     '                                                          ''''####''''         
             ,#######,   #######,   ,#######,      ##                                
            ,#'     '#,  ##    ##  ,#'     '#,    #''#        ,####,   ,####,        
            ##       ##  ##   ,#'  ##            #'  '#       #'       #'  '#        
            ##       ##  #######   ##           ,######,      #####,   #    #        
            '#,     ,#'  ##    ##  '#,     ,#' ,#      #,     #,   #   #,  ,#        
             '#######'   ##     ##  '#######'  #'      '#     '####' # '####'        



                #########################################################
                #                        -***-                          #
                #          Department of theory and spectroscopy        #
                #                                                       #
                #                      Frank Neese                      #
                #                                                       #
                #     Directorship, Architecture, Infrastructure        #
                #                    SHARK, DRIVERS                     #
                #        Core code/Algorithms in most modules           #
                #                                                       #
                #        Max Planck Institute fuer Kohlenforschung      #
                #                Kaiser Wilhelm Platz 1                 #
                #                 D-45470 Muelheim/Ruhr                 #
                #                      Germany                          #
                #                                                       #
                #                  All rights reserved                  #
                #                        -***-                          #
                #########################################################


                         Program Version 6.0.1  -  RELEASE   -


 With contributions from (in alphabetic order):
[Max-Planck-Institut fuer Kohlenforschung]                               
  Daniel Aravena         : Magnetic Suceptibility                        
  Michael Atanasov       : Ab Initio Ligand Field Theory (pilot matlab implementation)
  Alexander A. Auer      : GIAO ZORA, VPT2 properties, NMR spectrum      
  Ute Becker             : All parallelization in ORCA, NUMFREQ, NUMCALC 
  Giovanni Bistoni       : ED, misc. LED, open-shell LED, HFLD           
  Martin Brehm           : Molecular dynamics                            
  Dmytro Bykov           : pre 5.0 version of the SCF Hessian            
  Marcos Casanova-Páez   : Triplet and SCS-CIS(D). UHF-(DLPNO)-IP/EA/STEOM-CCSD. UHF-CVS-IP/STEOM-CCSD   
  Vijay G. Chilkuri      : MRCI spin determinant printing, contributions to CSF-ICE 
  Pauline Colinet        : FMM embedding                                 
  Dipayan Datta          : RHF DLPNO-CCSD density                        
  Achintya Kumar Dutta   : EOM-CC, STEOM-CC                              
  Nicolas Foglia         : Exact transition moments, OPA infrastructure, MCD improvements    
  Dmitry Ganyushin       : Spin-Orbit,Spin-Spin,Magnetic field MRCI      
  Miquel Garcia-Rates    : C-PCM and meta-GGA Hessian, CCSD/C-PCM, Gaussian charge scheme 
  Tiago L. C. Gouveia    : GS-ROHF, GS-ROCIS                             
  Yang Guo               : DLPNO-NEVPT2, F12-NEVPT2, CIM, IAO-localization        
  Andreas Hansen         : Spin unrestricted coupled pair/coupled cluster methods 
  Ingolf Harden          : AUTO-CI MPn and infrastructure                
  Benjamin Helmich-Paris : MC-RPA, TRAH-(SCF,CASSCF), AVAS, COSX integrals, SCF dyn. polar. 
  Lee Huntington         : MR-EOM, pCC                                   
  Robert Izsak           : Overlap fitted RIJCOSX, COSX-SCS-MP3, EOM     
  Riya Kayal             : Wick's Theorem for AUTO-CI, AUTO-CI UHF-CCSDT 
  Emily Kempfer          : AUTO-CI, RHF CISDT and CCSDT                  
  Christian Kollmar      : KDIIS, OOCD, Brueckner-CCSD(T), CCSD density, CASPT2, CASPT2-K, improved NEVPT2 
  Axel Koslowski         : Symmetry handling                             
  Simone Kossmann        : meta-GGA functionals, TD-DFT gradient, OOMP2, (MP2 Hessian; deprecated post 5.0) 
  Lucas Lang             : DCDCAS                                        
  Marvin Lechner         : AUTO-CI (C++ implementation), FIC-MRCC        
  Spencer Leger          : CASSCF response                               
  Dagmar Lenk            : GEPOL surface, SMD, ORCA-2-JSON               
  Dimitrios Liakos       : Extrapolation schemes; Compound Job, initial MDCI parallelization 
  Dimitrios Manganas     : Further ROCIS development; embedding schemes. LFT, Crystal Embedding 
  Dimitrios Pantazis     : SARC Basis sets                               
  Anastasios Papadopoulos: AUTO-CI, single reference methods and gradients 
  Taras Petrenko         : pre 6.0 DFT Hessian and TD-DFT gradient, (ASA, deprecated), ECA, 1-Electron XAS/XES, NRVS 
  Peter Pinski           : DLPNO-MP2, DLPNO-MP2 Gradient                 
  Christoph Reimann      : Effective Core Potentials                     
  Marius Retegan         : Local ZFS, SOC                                
  Christoph Riplinger    : Optimizer, TS searches, QM/MM, DLPNO-CCSD(T), (RO)-DLPNO pert. Triples 
  Michael Roemelt        : Original ROCIS implementation                 
  Masaaki Saitow         : Open-shell DLPNO-CCSD energy and density      
  Barbara Sandhoefer     : DKH picture change effects                    
  Kantharuban Sivalingam : CASSCF convergence/infrastructure, NEVPT2 and variants, FIC-MRCI 
  Bernardo de Souza      : ESD, SOC TD-DFT                               
  Georgi L. Stoychev     : AutoAux, RI-MP2 NMR, DLPNO-MP2 response, X2C  
  Van Anh Tran           : RI-MP2 g-tensors                              
  Willem Van den Heuvel  : Paramagnetic NMR                              
  Zikuan Wang            : NOTCH, Electric field optimization            
  Frank Wennmohs         : Technical directorship and infrastructure     
  Hang Xu                : AUTO-CI-Response properties                   
                                                                         
[FACCTs GmbH]                                                            
  Markus Bursch, Miquel Garcia-Rates, Christoph Riplinger, Bernardo de Souza, Georgi L. Stoychev 
                                                                 
  APM, Basis sets (HGBS, AHGBS, def-TZVP (Ac-Lr), def2-XVPD (La-Lu)), CI-OPT, improved COSX, DLPNO-Multilevel,           
  DOCKER, DRACO, updates on ESD, GOAT, IRC, LR-CPCM, MBIS, meta-GGA TD-DFT gradient, ML-optimized integration grids, 
  MM, NACMEs, nearIR, NEB, NEB-TS, NL-DFT gradient (VV10), 2- and 3-layer-ONIOM, interface openCOSMO-RS, QMMM,   
  Crystal-QMMM, SF, symmetry and pop. for TD-DFT, r2SCAN hybrids, SOLVATOR                                   
                                                                         
[Other institutions]                                                     
  V. Asgeirsson          : NEB                                           
  Christoph Bannwarth    : sTDA-DFT, sTD-DFT, PBEh-3c, B97-3c, D3        
  Sebastian Ehlert       : rSCAN, r2SCAN, r2SCAN-3c, D4, dhf basis sets  
  Marvin Friede          : D4 for Fr, Ra, Ac-Lr                          
  Lars Goerigk           : TD-DFT with DH, B97 family of functionals     
  Stefan Grimme          : VdW corrections, initial TS optimization, DFT functionals, gCP, sTDA/sTD-DF 
  Waldemar Hujo          : DFT-NL                                        
  H. Jonsson             : NEB                                           
  Holger Kruse           : gCP                                           
  Marcel Mueller         : wB97X-3c, vDZP basis set                      
  Hagen Neugebauer       : wr2SCAN                                       
  Tobias Risthaus        : range-separated hybrid DFT                    
  Lukas Wittmann         : regularized MP2, r2SCAN double-hybrids, wr2SCAN        
                                                                         
We gratefully acknowledge several colleagues who have allowed us to      
interface, adapt or use parts of their codes:                            
  Ed Valeev, F. Pavosevic, A. Kumar             : LibInt (2-el integral package), F12 methods 
  Garnet Chan, S. Sharma, J. Yang, R. Olivares  : DMRG                   
  Ulf Ekstrom                                   : XCFun DFT Library      
  Mihaly Kallay                                 : mrcc  (arbitrary order and MRCC methods)
  Frank Weinhold                                : gennbo (NPA and NBO analysis)           
  Simon Mueller                                 : openCOSMO-RS                            
  Christopher J. Cramer and Donald G. Truhlar   : smd solvation model                     
  S Lehtola, MJT Oliveira, MAL Marques          : LibXC Library                           
  Liviu Ungur et al                             : ANISO software                          


 Your calculation uses the libint2 library for the computation of 2-el integrals
 For citations please refer to: http://libint.valeyev.net

 Your ORCA version has been built with support for libXC version: 6.2.2
 For citations please refer to: https://libxc.gitlab.io

 This ORCA versions uses:
   CBLAS   interface :  Fast vector & matrix operations
   LAPACKE interface :  Fast linear algebra routines
   SCALAPACK package :  Parallel linear algebra routines
   Shared memory     :  Shared parallel matrices
   BLAS/LAPACK       :  OpenBLAS 0.3.27  USE64BITINT DYNAMIC_ARCH NO_AFFINITY SkylakeX SINGLE_THREADED
        Core in use  :  SkylakeX
   Copyright (c) 2011-2014, The OpenBLAS Project


NOTE: MaxCore=5000 MB was set to SCF,MP2,MDCI,CIPSI,MRCI and CIS
      => If you want to overwrite this, your respective input block should be placed after the MaxCore statement
Your calculation utilizes the atom-pairwise dispersion correction
based on EEQ partial charges (D4)


Warning: RI is on but no J-basis has been assigned. Assigning Def2/J (nothing to worry about!)
================================================================================

----- Orbital basis set information -----
Your calculation utilizes the basis: def2-TZVP
   F. Weigend and R. Ahlrichs, Phys. Chem. Chem. Phys. 7, 3297 (2005).

----- AuxJ basis set information -----
Your calculation utilizes the auxiliary basis: def2/J
   F. Weigend, Phys. Chem. Chem. Phys. 8, 1057 (2006).

================================================================================
                                        WARNINGS
                       Please study these warnings very carefully!
================================================================================

WARNING: Old DensityContainer found on disk!
         Will remove this file - 
         If you want to keep old densities, please start your calculation with a different basename. 


WARNING: Geometry Optimization
  ===> : Switching off AutoStart
         For restart on a previous wavefunction, please use MOREAD

================================================================================
                                       INPUT FILE
================================================================================
NAME = 02_Aminobutyric-acid_zwitterion.inp
|  1> ! Opt B3LYP D4 def2-TZVP TightSCF TightOpt CPCM(water)
|  2> 
|  3> %maxcore 5000
|  4> 
|  5> %pal
|  6> nprocs 6
|  7> end
|  8> 
|  9> * xyz 0 1
| 10> N          1.53730       -0.06600        0.42280
| 11> C          2.40830       -0.10150       -0.75160
| 12> C          1.85300        0.79210       -1.87290
| 13> C          2.72400        0.75540       -3.13650
| 14> C          4.10450        1.29640       -2.89010
| 15> O          4.26850        2.56580       -2.47050
| 16> O          5.08320        0.59110       -3.07600
| 17> H          1.47190        0.91040        0.79230
| 18> H          0.58280       -0.41390        0.17390
| 19> H          2.48620       -1.14930       -1.11780
| 20> H          3.42440        0.24400       -0.45940
| 21> H          1.76640        1.84030       -1.51140
| 22> H          0.83580        0.43400       -2.14330
| 23> H          2.78240       -0.29060       -3.51090
| 24> H          2.24310        1.37600       -3.92260
| 25> H          1.93870       -0.68270        1.16580
| 26> *
| 27> 
| 28>                          ****END OF INPUT****
================================================================================

                       *****************************
                       * Geometry Optimization Run *
                       *****************************

Geometry optimization settings:
Update method            Update   .... BFGS
Choice of coordinates    CoordSys .... (2022) Redundant Internals
Initial Hessian          InHess   .... Almloef's Model
Max. no of cycles        MaxIter  .... 50

Convergence Tolerances:
Energy Change            TolE     ....  1.0000e-06 Eh
Max. Gradient            TolMAXG  ....  1.0000e-04 Eh/bohr
RMS Gradient             TolRMSG  ....  3.0000e-05 Eh/bohr
Max. Displacement        TolMAXD  ....  1.0000e-03 bohr
RMS Displacement         TolRMSD  ....  6.0000e-04 bohr
Strict Convergence                .... False

------------------------------------------------------------------------------
                        ORCA OPTIMIZATION COORDINATE SETUP
------------------------------------------------------------------------------

The optimization will be done in redundant internal coordinates (2022)
Making redundant internal coordinates   ...  (2022 redundants) done
Evaluating the initial hessian          ...  (Almloef) done
Evaluating the coordinates              ...  done
Calculating the B-matrix                .... done
Calculating the G-matrix                .... done
Diagonalizing the G-matrix              .... done
Small eigenvalue found = 2.570e-02
The first mode is                       ....   23
The number of degrees of freedom        ....   42

    -----------------------------------------------------------------
                    Redundant Internal Coordinates


    -----------------------------------------------------------------
         Definition                    Initial Value    Approx d2E/dq
    -----------------------------------------------------------------
      1. B(C   1,N   0)                  1.4626         0.428639   
      2. B(C   2,C   1)                  1.5376         0.363298   
      3. B(C   3,C   2)                  1.5351         0.366579   
      4. B(C   4,C   3)                  1.5031         0.412446   
      5. B(O   5,C   4)                  1.3470         0.655424   
      6. B(O   6,C   4)                  1.2206         1.042665   
      7. B(H   7,N   0)                  1.0460         0.379073   
      8. B(H   8,N   0)                  1.0460         0.379145   
      9. B(H   9,C   1)                  1.1127         0.331314   
     10. B(H  10,C   1)                  1.1123         0.331776   
     11. B(H  11,C   2)                  1.1122         0.331944   
     12. B(H  12,C   2)                  1.1118         0.332414   
     13. B(H  13,C   3)                  1.1125         0.331507   
     14. B(H  14,C   3)                  1.1110         0.333341   
     15. B(H  15,N   0)                  1.0457         0.379522   
     16. A(H   8,N   0,H  15)          108.8572         0.290862   
     17. A(H   7,N   0,H   8)          109.7231         0.290808   
     18. A(C   1,N   0,H   8)          110.1390         0.329746   
     19. A(C   1,N   0,H  15)          109.1244         0.329800   
     20. A(C   1,N   0,H   7)          110.0923         0.329736   
     21. A(H   7,N   0,H  15)          108.8750         0.290853   
     22. A(H   9,C   1,H  10)          108.3613         0.283430   
     23. A(C   2,C   1,H  10)          109.9359         0.318542   
     24. A(N   0,C   1,H  10)          108.9984         0.325337   
     25. A(C   2,C   1,H   9)          109.4240         0.318469   
     26. A(N   0,C   1,C   2)          110.8787         0.367928   
     27. A(N   0,C   1,H   9)          109.1972         0.325262   
     28. A(C   1,C   2,H  11)          109.8054         0.318568   
     29. A(C   3,C   2,H  12)          108.1324         0.319110   
     30. A(C   1,C   2,H  12)          108.6992         0.318642   
     31. A(C   3,C   2,H  11)          109.5274         0.319036   
     32. A(C   1,C   2,C   3)          112.4242         0.360461   
     33. A(H  11,C   2,H  12)          108.1427         0.283598   
     34. A(H  13,C   3,H  14)          108.0469         0.283663   
     35. A(C   2,C   3,C   4)          112.1833         0.368370   
     36. A(C   4,C   3,H  14)          108.2093         0.325481   
     37. A(C   2,C   3,H  14)          108.8720         0.319255   
     38. A(C   4,C   3,H  13)          110.2042         0.325186   
     39. A(C   2,C   3,H  13)          109.2242         0.318967   
     40. A(O   5,C   4,O   6)          119.6284         0.475619   
     41. A(C   3,C   4,O   6)          120.2314         0.440029   
     42. A(C   3,C   4,O   5)          120.1390         0.405015   
     43. D(H   9,C   1,N   0,H   8)    -60.1842         0.016785   
     44. D(H   9,C   1,N   0,H   7)    178.6920         0.016785   
     45. D(H   9,C   1,N   0,H  15)     59.2571         0.016785   
     46. D(C   2,C   1,N   0,H  15)    179.9005         0.016785   
     47. D(C   2,C   1,N   0,H   7)    -60.6646         0.016785   
     48. D(C   2,C   1,N   0,H   8)     60.4592         0.016785   
     49. D(C   3,C   2,C   1,N   0)   -178.6620         0.010576   
     50. D(H  11,C   2,C   1,H  10)    -61.4626         0.010576   
     51. D(H  11,C   2,C   1,H   9)    179.6421         0.010576   
     52. D(H  11,C   2,C   1,N   0)     59.1332         0.010576   
     53. D(C   3,C   2,C   1,H  10)     60.7421         0.010576   
     54. D(C   3,C   2,C   1,H   9)    -58.1531         0.010576   
     55. D(C   4,C   3,C   2,H  12)    176.8065         0.010755   
     56. D(C   4,C   3,C   2,H  11)     59.1742         0.010755   
     57. D(C   4,C   3,C   2,C   1)    -63.1877         0.010755   
     58. D(H  13,C   3,C   2,H  12)    -60.7010         0.010755   
     59. D(H  13,C   3,C   2,H  11)   -178.3333         0.010755   
     60. D(H  13,C   3,C   2,C   1)     59.3047         0.010755   
     61. D(O   6,C   4,C   3,C   2)    120.3296         0.012594   
     62. D(O   5,C   4,C   3,H  14)     60.0439         0.012594   
     63. D(O   5,C   4,C   3,H  13)    177.9856         0.012594   
     64. D(O   6,C   4,C   3,H  13)     -1.6055         0.012594   
     65. D(O   5,C   4,C   3,C   2)    -60.0793         0.012594   
    -----------------------------------------------------------------

Number of atoms                         .... 16
Number of degrees of freedom            .... 65


         *************************************************************
         *                GEOMETRY OPTIMIZATION CYCLE   1            *
         *************************************************************
---------------------------------
CARTESIAN COORDINATES (ANGSTROEM)
---------------------------------
  N      1.537300   -0.066000    0.422800
  C      2.408300   -0.101500   -0.751600
  C      1.853000    0.792100   -1.872900
  C      2.724000    0.755400   -3.136500
  C      4.104500    1.296400   -2.890100
  O      4.268500    2.565800   -2.470500
  O      5.083200    0.591100   -3.076000
  H      1.471900    0.910400    0.792300
  H      0.582800   -0.413900    0.173900
  H      2.486200   -1.149300   -1.117800
  H      3.424400    0.244000   -0.459400
  H      1.766400    1.840300   -1.511400
  H      0.835800    0.434000   -2.143300
  H      2.782400   -0.290600   -3.510900
  H      2.243100    1.376000   -3.922600
  H      1.938700   -0.682700    1.165800

----------------------------
CARTESIAN COORDINATES (A.U.)
----------------------------
  NO LB      ZA    FRAG     MASS         X           Y           Z
   0 N     7.0000    0    14.007    2.905076   -0.124722    0.798976
   1 C     6.0000    0    12.011    4.551027   -0.191807   -1.420318
   2 C     6.0000    0    12.011    3.501663    1.496852   -3.539268
   3 C     6.0000    0    12.011    5.147614    1.427499   -5.927126
   4 C     6.0000    0    12.011    7.756381    2.449841   -5.461497
   5 O     8.0000    0    15.999    8.066296    4.848659   -4.668568
   6 O     8.0000    0    15.999    9.605856    1.117017   -5.812798
   7 H     1.0000    0     1.008    2.781488    1.720407    1.497230
   8 H     1.0000    0     1.008    1.101332   -0.782158    0.328623
   9 H     1.0000    0     1.008    4.698237   -2.171862   -2.112336
  10 H     1.0000    0     1.008    6.471178    0.461093   -0.868140
  11 H     1.0000    0     1.008    3.338012    3.477663   -2.856132
  12 H     1.0000    0     1.008    1.579433    0.820141   -4.050250
  13 H     1.0000    0     1.008    5.257974   -0.549154   -6.634639
  14 H     1.0000    0     1.008    4.238845    2.600263   -7.412640
  15 H     1.0000    0     1.008    3.663612   -1.290116    2.203043

--------------------------------
INTERNAL COORDINATES (ANGSTROEM)
--------------------------------
 N      0   0   0     0.000000000000     0.00000000     0.00000000
 C      1   0   0     1.462571916181     0.00000000     0.00000000
 C      2   1   0     1.537593164657   110.87869448     0.00000000
 C      3   2   1     1.535145872548   112.42424515   181.33797766
 C      4   3   2     1.503054959075   112.18328378   296.81225238
 O      5   4   3     1.346973095500   120.13896493   299.92067993
 O      5   4   3     1.220598455677   120.23138915   120.32961236
 H      1   2   3     1.046023121159   110.09230008   299.33540981
 H      1   2   3     1.045971256775   110.13898852    60.45921407
 H      2   1   3     1.112679509113   109.19717093   239.35659152
 H      2   1   3     1.112299554976   108.99843579   121.15010434
 H      3   2   1     1.112162330777   109.80536611    59.13322587
 H      3   2   1     1.111776780653   108.69919732   301.01474385
 H      4   3   2     1.112520525653   109.22420226    59.30473336
 H      4   3   2     1.111018622706   108.87196476   177.07508345
 H      1   2   3     1.045700650282   109.12441671   179.90050535

---------------------------
INTERNAL COORDINATES (A.U.)
---------------------------
 N      0   0   0     0.000000000000     0.00000000     0.00000000
 C      1   0   0     2.763860372746     0.00000000     0.00000000
 C      2   1   0     2.905629986591   110.87869448     0.00000000
 C      3   2   1     2.901005274735   112.42424515   181.33797766
 C      4   3   2     2.840362236884   112.18328378   296.81225238
 O      5   4   3     2.545410260255   120.13896493   299.92067993
 O      5   4   3     2.306596800716   120.23138915   120.32961236
 H      1   2   3     1.976697228741   110.09230008   299.33540981
 H      1   2   3     1.976599219259   110.13898852    60.45921407
 H      2   1   3     2.102659547050   109.19717093   239.35659152
 H      2   1   3     2.101941537787   108.99843579   121.15010434
 H      3   2   1     2.101682221633   109.80536611    59.13322587
 H      3   2   1     2.100953637488   108.69919732   301.01474385
 H      4   3   2     2.102359111851   109.22420226    59.30473336
 H      4   3   2     2.099520926601   108.87196476   177.07508345
 H      1   2   3     1.976087847096   109.12441671   179.90050535

---------------------
BASIS SET INFORMATION
---------------------
There are 4 groups of distinct atoms

 Group   1 Type N   : 11s6p2d1f contracted to 5s3p2d1f pattern {62111/411/11/1}
 Group   2 Type C   : 11s6p2d1f contracted to 5s3p2d1f pattern {62111/411/11/1}
 Group   3 Type O   : 11s6p2d1f contracted to 5s3p2d1f pattern {62111/411/11/1}
 Group   4 Type H   : 5s1p contracted to 3s1p pattern {311/1}

Atom   0N    basis set group =>   1
Atom   1C    basis set group =>   2
Atom   2C    basis set group =>   2
Atom   3C    basis set group =>   2
Atom   4C    basis set group =>   2
Atom   5O    basis set group =>   3
Atom   6O    basis set group =>   3
Atom   7H    basis set group =>   4
Atom   8H    basis set group =>   4
Atom   9H    basis set group =>   4
Atom  10H    basis set group =>   4
Atom  11H    basis set group =>   4
Atom  12H    basis set group =>   4
Atom  13H    basis set group =>   4
Atom  14H    basis set group =>   4
Atom  15H    basis set group =>   4
---------------------------------
AUXILIARY/J BASIS SET INFORMATION
---------------------------------
There are 4 groups of distinct atoms

 Group   1 Type N   : 12s5p4d2f1g contracted to 6s4p3d1f1g pattern {711111/2111/211/2/1}
 Group   2 Type C   : 12s5p4d2f1g contracted to 6s4p3d1f1g pattern {711111/2111/211/2/1}
 Group   3 Type O   : 12s5p4d2f1g contracted to 6s4p3d1f1g pattern {711111/2111/211/2/1}
 Group   4 Type H   : 5s2p1d contracted to 3s1p1d pattern {311/2/1}

Atom   0N    basis set group =>   1
Atom   1C    basis set group =>   2
Atom   2C    basis set group =>   2
Atom   3C    basis set group =>   2
Atom   4C    basis set group =>   2
Atom   5O    basis set group =>   3
Atom   6O    basis set group =>   3
Atom   7H    basis set group =>   4
Atom   8H    basis set group =>   4
Atom   9H    basis set group =>   4
Atom  10H    basis set group =>   4
Atom  11H    basis set group =>   4
Atom  12H    basis set group =>   4
Atom  13H    basis set group =>   4
Atom  14H    basis set group =>   4
Atom  15H    basis set group =>   4
--------------------------------------------------------------------------
WARNING: There was an error initializing an OpenFabrics device.

  Local host:   ga01
  Local device: mlx5_0
--------------------------------------------------------------------------


           ************************************************************
           *        Program running with 6 parallel MPI-processes     *
           *              working on a common directory               *
           ************************************************************
------------------------------------------------------------------------------
                             ORCA STARTUP CALCULATIONS
                           -- RI-GTO INTEGRALS CHOSEN --
------------------------------------------------------------------------------
------------------------------------------------------------------------------
                   ___                                                        
                  /   \      - P O W E R E D   B Y -                         
                 /     \                                                     
                 |  |  |   _    _      __       _____    __    __             
                 |  |  |  | |  | |    /  \     |  _  \  |  |  /  |          
                  \  \/   | |  | |   /    \    | | | |  |  | /  /          
                 / \  \   | |__| |  /  /\  \   | |_| |  |  |/  /          
                |  |  |   |  __  | /  /__\  \  |    /   |      \           
                |  |  |   | |  | | |   __   |  |    \   |  |\   \          
                \     /   | |  | | |  |  |  |  | |\  \  |  | \   \       
                 \___/    |_|  |_| |__|  |__|  |_| \__\ |__|  \__/        
                                                                              
                      - O R C A' S   B I G   F R I E N D -                    
                                      &                                       
                       - I N T E G R A L  F E E D E R -                       
                                                                              
 v1 FN, 2020, v2 2021, v3 2022-2024                                           
------------------------------------------------------------------------------


----------------------
SHARK INTEGRAL PACKAGE
----------------------

Number of atoms                             ...     16
Number of basis functions                   ...    271
Number of shells                            ...    113
Maximum angular momentum                    ...      3
Integral batch strategy                     ... SHARK/LIBINT Hybrid
RI-J (if used) integral strategy            ... SPLIT-RIJ (Revised 2003 algorithm where possible)
Printlevel                                  ...      1
Contraction scheme used                     ... SEGMENTED contraction
Prescreening option                         ... SCHWARTZ
   Thresh                                   ... 2.500e-11
   Tcut                                     ... 2.500e-12
   Tpresel                                  ... 2.500e-12 
Coulomb Range Separation                    ... NOT USED
Exchange Range Separation                   ... NOT USED
Multipole approximations                    ... NOT USED
Finite Nucleus Model                        ... NOT USED
CABS basis                                  ... NOT available
Auxiliary Coulomb fitting basis             ... AVAILABLE
   # of basis functions in Aux-J            ...    442
   # of shells in Aux-J                     ...    150
   Maximum angular momentum in Aux-J        ...      4
Auxiliary J/K fitting basis                 ... NOT available
Auxiliary Correlation fitting basis         ... NOT available
Auxiliary 'external' fitting basis          ... NOT available

Checking pre-screening integrals            ... done (  0.0 sec) Dimension = 113
Check shell pair data                       ... done (  0.0 sec)
Shell pair information
Shell pair cut-off parameter TPreSel        ...   2.5e-12
Total number of shell pairs                 ...      6441
Shell pairs after pre-screening             ...      5838
Total number of primitive shell pairs       ...     19096
Primitive shell pairs kept                  ...     13176
          la=0 lb=0:   1731 shell pairs
          la=1 lb=0:   1712 shell pairs
          la=1 lb=1:    436 shell pairs
          la=2 lb=0:    779 shell pairs
          la=2 lb=1:    387 shell pairs
          la=2 lb=2:     96 shell pairs
          la=3 lb=0:    385 shell pairs
          la=3 lb=1:    195 shell pairs
          la=3 lb=2:     91 shell pairs
          la=3 lb=3:     26 shell pairs

Calculating one electron integrals          ... done (  0.0 sec)
Calculating RI/J V-Matrix + Cholesky decomp.... done (  0.0 sec)
Calculating Nuclear repulsion               ... done (  0.0 sec) ENN=    309.409787234074 Eh

Diagonalization of the overlap matrix:
Smallest eigenvalue                        ... 1.971e-04
Time for diagonalization                   ...    0.006 sec
Threshold for overlap eigenvalues          ... 1.000e-07
Number of eigenvalues below threshold      ... 0
Time for construction of square roots      ...    0.003 sec
Total time needed                          ...    0.011 sec

-------------------
DFT GRID GENERATION
-------------------

General Integration Accuracy     IntAcc      ... 4.388
Radial Grid Type                 RadialGrid  ... OptM3 with GC (2021)
Angular Grid (max. ang.)         AngularGrid ... 4 (Lebedev-302)
Angular grid pruning method      GridPruning ... 4 (adaptive)
Weight generation scheme         WeightScheme... mBecke (2022)
Basis function cutoff            BFCut       ... 1.0000e-11
Integration weight cutoff        WCut        ... 1.0000e-14
Partially contracted basis set               ... off
Rotationally invariant grid construction     ... off
Angular grids for H and He will be reduced by one unit

Total number of grid points                  ...    71231
Total number of batches                      ...     1120
Average number of points per batch           ...       63
Average number of grid points per atom       ...     4452

--------------------
COSX GRID GENERATION
--------------------

GRIDX 1
-------
General Integration Accuracy     IntAcc      ... 3.816
Radial Grid Type                 RadialGrid  ... OptM3 with GC (2021)
Angular Grid (max. ang.)         AngularGrid ... 1 (Lebedev-50)
Angular grid pruning method      GridPruning ... 4 (adaptive)
Weight generation scheme         WeightScheme... mBecke (2022)
Basis function cutoff            BFCut       ... 1.0000e-11
Integration weight cutoff        WCut        ... 1.0000e-14
Partially contracted basis set               ... on
Rotationally invariant grid construction     ... off
Angular grids for H and He will be reduced by one unit

Total number of grid points                  ...     9117
Total number of batches                      ...       83
Average number of points per batch           ...      109
Average number of grid points per atom       ...      570
UseSFitting                                  ... on

GRIDX 2
-------
General Integration Accuracy     IntAcc      ... 4.020
Radial Grid Type                 RadialGrid  ... OptM3 with GC (2021)
Angular Grid (max. ang.)         AngularGrid ... 2 (Lebedev-110)
Angular grid pruning method      GridPruning ... 4 (adaptive)
Weight generation scheme         WeightScheme... mBecke (2022)
Basis function cutoff            BFCut       ... 1.0000e-11
Integration weight cutoff        WCut        ... 1.0000e-14
Partially contracted basis set               ... on
Rotationally invariant grid construction     ... off
Angular grids for H and He will be reduced by one unit

Total number of grid points                  ...    19520
Total number of batches                      ...      160
Average number of points per batch           ...      122
Average number of grid points per atom       ...     1220
UseSFitting                                  ... on

GRIDX 3
-------
General Integration Accuracy     IntAcc      ... 4.338
Radial Grid Type                 RadialGrid  ... OptM3 with GC (2021)
Angular Grid (max. ang.)         AngularGrid ... 3 (Lebedev-194)
Angular grid pruning method      GridPruning ... 4 (adaptive)
Weight generation scheme         WeightScheme... mBecke (2022)
Basis function cutoff            BFCut       ... 1.0000e-11
Integration weight cutoff        WCut        ... 1.0000e-14
Partially contracted basis set               ... on
Rotationally invariant grid construction     ... off
Angular grids for H and He will be reduced by one unit

Total number of grid points                  ...    42822
Total number of batches                      ...      343
Average number of points per batch           ...      124
Average number of grid points per atom       ...     2676
UseSFitting                                  ... on
Initializing property integral containers    ... done (  0.0 sec)

SHARK setup successfully completed in   0.7 seconds

Maximum memory used throughout the entire STARTUP-calculation: 25.6 MB
[ga01:1275588] 5 more processes have sent help message help-mpi-btl-openib.txt / error in device init
[ga01:1275588] Set MCA parameter "orte_base_help_aggregate" to 0 to see all help / error messages
--------------------------------------------------------------------------
WARNING: There was an error initializing an OpenFabrics device.

  Local host:   ga01
  Local device: mlx5_0
--------------------------------------------------------------------------


           ************************************************************
           *        Program running with 6 parallel MPI-processes     *
           *              working on a common directory               *
           ************************************************************
-------------------------------------------------------------------------------
                                 ORCA GUESS
                   Start orbitals & Density for SCF / CASSCF
-------------------------------------------------------------------------------

------------
SCF SETTINGS
------------
Hamiltonian:
 Density Functional     Method          .... DFT(GTOs)
 Exchange Functional    Exchange        .... B88
   X-Alpha parameter    XAlpha          ....  0.666667
   Becke's b parameter  XBeta           ....  0.004200
 Correlation Functional Correlation     .... LYP
 LDA part of GGA corr.  LDAOpt          .... VWN-5
 Gradients option       PostSCFGGA      .... off
 Hybrid DFT is turned on
   Fraction HF Exchange ScalHFX         ....  0.200000
   Scaling of DF-GGA-X  ScalDFX         ....  0.720000
   Scaling of DF-GGA-C  ScalDFC         ....  0.810000
   Scaling of DF-LDA-C  ScalLDAC        ....  1.000000
   Perturbative correction              ....  0.000000
   NL short-range parameter             ....  4.800000
 RI-approximation to the Coulomb term is turned on
   Number of AuxJ basis functions       .... 442
   RIJ-COSX (HFX calculated with COS-X)).... on


General Settings:
 Integral files         IntName         .... 02_Aminobutyric-acid_zwitterion
 Hartree-Fock type      HFTyp           .... RHF
 Total Charge           Charge          ....    0
 Multiplicity           Mult            ....    1
 Number of Electrons    NEL             ....   56
 Basis Dimension        Dim             ....  271
 Nuclear Repulsion      ENuc            ....    309.4097872341 Eh

Convergence Acceleration:
 AO-DIIS                CNVDIIS         .... on
   Start iteration      DIISMaxIt       ....    12
   Startup error        DIISStart       ....  0.200000
   # of expansion vecs  DIISMaxEq       ....     5
   Bias factor          DIISBfac        ....   1.050
   Max. coefficient     DIISMaxC        ....  10.000
 MO-DIIS                CNVKDIIS        .... off
 Trust-Rad. Augm. Hess. CNVTRAH         .... auto
   Auto Start mean grad. ratio tolernc. ....  1.125000
   Auto Start start iteration           ....    50
   Auto Start num. interpolation iter.  ....    10
   Max. Number of Micro iterations      ....    24
   Max. Number of Macro iterations      .... Maxiter - #DIIS iter
   Number of Davidson start vectors     ....     2
   Converg. threshold    (grad. norm)   ....   1.000e-05
   Grad. Scal. Fac. for Micro threshold ....   0.100
   Minimum threshold for Micro iter.    ....   1.000e-02
   NR start threshold (gradient norm)   ....   1.000e-04
   Initial trust radius                 ....   0.400
   Minimum AH scaling param. (alpha)    ....   1.000
   Maximum AH scaling param. (alpha)    .... 1000.000
   Quad. conv. algorithm                .... NR
   White noise on init. David. guess    .... on
   Maximum white noise                  ....   0.010
   Pseudo random numbers                .... off
   Inactive MOs                         .... canonical
   Orbital update algorithm             .... Taylor
   Preconditioner                       .... Diag
   Full preconditioner red. dimension   ....   250
 SOSCF                  CNVSOSCF        .... on
   Start iteration      SOSCFMaxIt      ....   150
   Startup grad/error   SOSCFStart      ....  0.003300
   Hessian update       SOSCFHessUp     .... L-BFGS
 Level Shifting         CNVShift        .... on
   Level shift para.    LevelShift      ....    0.2500
   Turn off err/grad.   ShiftErr        ....    0.0010
 Zerner damping         CNVZerner       .... off
 Static damping         CNVDamp         .... on
   Fraction old density DampFac         ....    0.7000
   Max. Damping (<1)    DampMax         ....    0.9800
   Min. Damping (>=0)   DampMin         ....    0.0000
   Turn off err/grad.   DampErr         ....    0.1000

SCF Procedure:
 Maximum # iterations   MaxIter         ....   125
 SCF integral mode      SCFMode         .... Direct
   Integral package                     .... SHARK and LIBINT hybrid scheme
 Reset frequency        DirectResetFreq ....    20
 Integral Threshold     Thresh          ....  2.500e-11 Eh
 Primitive CutOff       TCut            ....  2.500e-12 Eh

Convergence Tolerance:
 Convergence Check Mode ConvCheckMode   .... Total+1el-Energy
 Convergence forced     ConvForced      .... 0
 Energy Change          TolE            ....  1.000e-08 Eh
 1-El. energy change                    ....  1.000e-05 Eh
 Orbital Gradient       TolG            ....  1.000e-05
 Orbital Rotation angle TolX            ....  1.000e-05
 DIIS Error             TolErr          ....  5.000e-07

------------------------------
INITIAL GUESS: MODEL POTENTIAL
------------------------------
Loading Hartree-Fock densities                     ... done
Calculating cut-offs                               ... done
Initializing the effective Hamiltonian             ... done
Setting up the integral package (SHARK)            ... done
Starting the Coulomb interaction                   ... done (   0.0 sec)
Making the grid                                    ... done (   0.1 sec)
Mapping shells                                     ... done
Starting the XC term evaluation                    ... done (   0.0 sec)
  promolecular density results
     # of electrons  =     55.997124200
     EX              =    -46.172396857
     EC              =     -1.888339966
     EX+EC           =    -48.060736823
Transforming the Hamiltonian                       ... done (   0.0 sec)
Diagonalizing the Hamiltonian                      ... done (   0.0 sec)
Back transforming the eigenvectors                 ... done (   0.0 sec)
Now organizing SCF variables                       ... done
                      ------------------
                      INITIAL GUESS DONE (   0.2 sec)
                      ------------------
             **** ENERGY FILE WAS UPDATED (02_Aminobutyric-acid_zwitterion.en.tmp) ****
Finished Guess after   0.4 sec
Maximum memory used throughout the entire GUESS-calculation: 17.0 MB
[ga01:1275616] 5 more processes have sent help message help-mpi-btl-openib.txt / error in device init
[ga01:1275616] Set MCA parameter "orte_base_help_aggregate" to 0 to see all help / error messages
--------------------------------------------------------------------------
WARNING: There was an error initializing an OpenFabrics device.

  Local host:   ga01
  Local device: mlx5_0
--------------------------------------------------------------------------


           ************************************************************
           *        Program running with 6 parallel MPI-processes     *
           *              working on a common directory               *
           ************************************************************

-------------------------------------------------------------------------------------------
                                      ORCA LEAN-SCF
                              memory conserving SCF solver
-------------------------------------------------------------------------------------------

--------------------
CPCM SOLVATION MODEL
--------------------
CPCM parameters:
  Epsilon                                         ...      80.1510
  Refrac                                          ...       1.3328
  Rsolv                                           ...       1.3000
  Surface type                                    ... GAUSSIAN VDW
  Discretization scheme                           ... Constant charge density
    Threshold for H atoms                         ...       5.0000 (charges/Ang^2)
    Threshold for non-H atoms                     ...       5.0000 (charges/Ang^2)
  Epsilon function type                           ...         CPCM
Solvent:                                          ... WATER
Radii:
  Scheme                                          ... Element-dependent radii
  Radius for N  used is    3.5149 Bohr (=   1.8600 Ang.)
  Radius for C  used is    3.8550 Bohr (=   2.0400 Ang.)
  Radius for O  used is    3.4469 Bohr (=   1.8240 Ang.)
  Radius for H  used is    2.4944 Bohr (=   1.3200 Ang.)
Calculating surface                               ...        done! (  0.0s)
Cavity surface points                             ...         1394
Cavity Volume                                     ...     913.3804
Cavity Surface-area                               ...     554.4720
Calculating surface distance matrix               ...        done! (  0.0s)
Performing Cholesky decomposition & store         ...        done! (  0.0s)
Overall time for CPCM initialization              ...                 0.1s

----------------------------------------D-I-I-S--------------------------------------------
Iteration    Energy (Eh)           Delta-E    RMSDP     MaxDP     DIISErr   Damp  Time(sec)
-------------------------------------------------------------------------------------------
               ***  Starting incremental Fock matrix formation  ***
    1    -362.6821893070365377     0.00e+00  3.50e-03  3.29e-01  3.64e-01  0.700   1.3
    2    -362.8402010164625153    -1.58e-01  3.22e-03  3.46e-01  1.42e-01  0.700   0.8
                               ***Turning on AO-DIIS***
    3    -362.8944329127241417    -5.42e-02  1.12e-03  1.06e-01  3.73e-02  0.700   0.8
    4    -362.9286028752267157    -3.42e-02  1.04e-03  4.87e-02  1.55e-02  0.000   0.8
    5    -363.0064497106460522    -7.78e-02  8.26e-04  9.67e-02  8.61e-03  0.000   0.8
[ga01:1275646] 5 more processes have sent help message help-mpi-btl-openib.txt / error in device init
[ga01:1275646] Set MCA parameter "orte_base_help_aggregate" to 0 to see all help / error messages
                              *** Initializing SOSCF ***
---------------------------------------S-O-S-C-F--------------------------------------
Iteration    Energy (Eh)           Delta-E    RMSDP     MaxDP     MaxGrad    Time(sec)
--------------------------------------------------------------------------------------
    6    -363.0069078743259752    -4.58e-04  3.14e-04  3.60e-02  2.44e-03     0.7
               *** Restarting incremental Fock matrix formation ***
    7    -363.0069426636171102    -3.48e-05  2.04e-04  2.16e-02  2.55e-04     1.3
    8    -363.0069406270087029     2.04e-06  5.17e-05  5.00e-03  6.01e-04     1.0
    9    -363.0069477639335673    -7.14e-06  5.14e-05  5.73e-03  1.09e-04     1.0
   10    -363.0069476357751910     1.28e-07  8.23e-06  7.95e-04  7.35e-05     1.0
   11    -363.0069481655648360    -5.30e-07  1.24e-05  1.39e-03  1.68e-05     0.9
   12    -363.0069481482622678     1.73e-08  5.38e-06  6.13e-04  2.51e-05     0.8
   13    -363.0069481786297274    -3.04e-08  9.64e-07  1.11e-04  1.06e-06     0.8
                  *** Gradient check signals convergence ***

               *****************************************************
               *                     SUCCESS                       *
               *           SCF CONVERGED AFTER  13 CYCLES          *
               *****************************************************

Recomputing exchange energy using gridx3       ... done (    1.773 sec)
Old exchange energy                            :     -9.388163176 Eh
New exchange energy                            :     -9.388171449 Eh
Exchange energy change after final integration :     -0.000008273 Eh
Total energy after final integration           :   -363.006956452 Eh
             **** ENERGY FILE WAS UPDATED (02_Aminobutyric-acid_zwitterion.en.tmp) ****

----------------
TOTAL SCF ENERGY
----------------

Total Energy       :       -363.00695645152632 Eh           -9877.92147 eV

Components:
Nuclear Repulsion  :        309.40978723407363 Eh            8419.46835 eV
Electronic Energy  :       -672.28811222527565 Eh          -18293.88958 eV
One Electron Energy:      -1108.14957458633330 Eh          -30154.28294 eV
Two Electron Energy:        435.86146236105770 Eh           11860.39336 eV
CPCM Dielectric    :         -0.12862318742777 Eh              -3.50001 eV

Virial components:
Potential Energy   :       -724.08245175439515 Eh          -19703.28521 eV
Kinetic Energy     :        361.07549530286889 Eh            9825.36374 eV
Virial Ratio       :          2.00534918922437

DFT components:
N(Alpha)           :       27.999992130294 electrons
N(Beta)            :       27.999992130294 electrons
N(Total)           :       55.999984260588 electrons
E(X)               :      -37.337316395661 Eh       
E(C)               :       -2.234127382362 Eh       
E(XC)              :      -39.571443778023 Eh       

CPCM Solvation Model Properties:
Surface-charge          :         -0.02142553325050
Corrected charge        :          0.00000000000000
Outlying charge corr.   :          0.00003544199819 Eh               0.00096 eV
Free-energy (cav+disp)  :  This term is not implemented in the current solvation scheme

---------------
SCF CONVERGENCE
---------------

  Last Energy change         ...    3.0367e-08  Tolerance :   1.0000e-08
  Last MAX-Density change    ...    1.1133e-04  Tolerance :   1.0000e-07
  Last RMS-Density change    ...    9.6450e-07  Tolerance :   5.0000e-09
  Last DIIS Error            ...    2.4403e-03  Tolerance :   5.0000e-07
  Last Orbital Gradient      ...    1.0584e-06  Tolerance :   1.0000e-05
  Last Orbital Rotation      ...    2.6270e-06  Tolerance :   1.0000e-05


----------------
ORBITAL ENERGIES
----------------

  NO   OCC          E(Eh)            E(eV) 
   0   2.0000     -19.059451      -518.6340 
   1   2.0000     -19.039617      -518.0943 
   2   2.0000     -14.434843      -392.7921 
   3   2.0000     -10.242319      -278.7077 
   4   2.0000     -10.228376      -278.3282 
   5   2.0000     -10.181202      -277.0446 
   6   2.0000     -10.166487      -276.6442 
   7   2.0000      -1.014965       -27.6186 
   8   2.0000      -0.997403       -27.1407 
   9   2.0000      -0.892511       -24.2865 
  10   2.0000      -0.791205       -21.5298 
  11   2.0000      -0.702061       -19.1040 
  12   2.0000      -0.621460       -16.9108 
  13   2.0000      -0.580157       -15.7869 
  14   2.0000      -0.561620       -15.2825 
  15   2.0000      -0.504273       -13.7220 
  16   2.0000      -0.494137       -13.4461 
  17   2.0000      -0.450139       -12.2489 
  18   2.0000      -0.426039       -11.5931 
  19   2.0000      -0.409851       -11.1526 
  20   2.0000      -0.402199       -10.9444 
  21   2.0000      -0.380535       -10.3549 
  22   2.0000      -0.359195        -9.7742 
  23   2.0000      -0.342751        -9.3267 
  24   2.0000      -0.337312        -9.1787 
  25   2.0000      -0.239436        -6.5154 
  26   2.0000      -0.235416        -6.4060 
  27   2.0000      -0.212722        -5.7885 
  28   0.0000       0.011076         0.3014 
  29   0.0000       0.039645         1.0788 
  30   0.0000       0.059654         1.6233 
  31   0.0000       0.062014         1.6875 
  32   0.0000       0.065941         1.7943 
  33   0.0000       0.095460         2.5976 
  34   0.0000       0.110651         3.0110 
  35   0.0000       0.113056         3.0764 
  36   0.0000       0.128855         3.5063 
  37   0.0000       0.135582         3.6894 
  38   0.0000       0.143319         3.8999 
*Only the first 10 virtual orbitals were printed.

                    ********************************
                    * MULLIKEN POPULATION ANALYSIS *
                    ********************************

-----------------------
MULLIKEN ATOMIC CHARGES
-----------------------
   0 N :   -0.252284
   1 C :   -0.174975
   2 C :   -0.184820
   3 C :   -0.146789
   4 C :    0.195144
   5 O :   -0.697244
   6 O :   -0.494060
   7 H :    0.339177
   8 H :    0.338421
   9 H :    0.159316
  10 H :    0.162239
  11 H :    0.097797
  12 H :    0.120401
  13 H :    0.083008
  14 H :    0.111744
  15 H :    0.342925
Sum of atomic charges:    0.0000000

--------------------------------
MULLIKEN REDUCED ORBITAL CHARGES
--------------------------------
  0 N s       :     3.446125  s :     3.446125
      pz      :     1.233155  p :     3.757151
      px      :     1.248075
      py      :     1.275922
      dz2     :     0.011275  d :     0.046677
      dxz     :     0.005987
      dyz     :     0.013897
      dx2y2   :     0.010019
      dxy     :     0.005498
      f0      :     0.000372  f :     0.002331
      f+1     :     0.000384
      f-1     :     0.000222
      f+2     :     0.000498
      f-2     :     0.000430
      f+3     :     0.000072
      f-3     :     0.000352

  1 C s       :     3.268173  s :     3.268173
      pz      :     0.809343  p :     2.799344
      px      :     0.933715
      py      :     1.056286
      dz2     :     0.025832  d :     0.099218
      dxz     :     0.023774
      dyz     :     0.015795
      dx2y2   :     0.025390
      dxy     :     0.008426
      f0      :     0.001398  f :     0.008241
      f+1     :     0.001755
      f-1     :     0.000884
      f+2     :     0.001889
      f-2     :     0.001297
      f+3     :     0.000296
      f-3     :     0.000722

  2 C s       :     3.228436  s :     3.228436
      pz      :     0.905339  p :     2.861546
      px      :     0.983729
      py      :     0.972478
      dz2     :     0.023409  d :     0.088947
      dxz     :     0.013259
      dyz     :     0.022212
      dx2y2   :     0.022030
      dxy     :     0.008037
      f0      :     0.001052  f :     0.005891
      f+1     :     0.000973
      f-1     :     0.000769
      f+2     :     0.001378
      f-2     :     0.000929
      f+3     :     0.000163
      f-3     :     0.000627

  3 C s       :     3.189637  s :     3.189637
      pz      :     0.951415  p :     2.874730
      px      :     0.935966
      py      :     0.987348
      dz2     :     0.013457  d :     0.076670
      dxz     :     0.014300
      dyz     :     0.015557
      dx2y2   :     0.019322
      dxy     :     0.014034
      f0      :     0.000839  f :     0.005752
      f+1     :     0.000972
      f-1     :     0.000505
      f+2     :     0.000932
      f-2     :     0.000817
      f+3     :     0.000750
      f-3     :     0.000937

  4 C s       :     3.055340  s :     3.055340
      pz      :     0.769357  p :     2.522381
      px      :     0.960847
      py      :     0.792177
      dz2     :     0.019884  d :     0.202867
      dxz     :     0.031716
      dyz     :     0.042163
      dx2y2   :     0.059552
      dxy     :     0.049552
      f0      :     0.001712  f :     0.024268
      f+1     :     0.001365
      f-1     :     0.001995
      f+2     :     0.002296
      f-2     :     0.003496
      f+3     :     0.008969
      f-3     :     0.004435

  5 O s       :     3.804598  s :     3.804598
      pz      :     1.606619  p :     4.868263
      px      :     1.842101
      py      :     1.419543
      dz2     :     0.002993  d :     0.023009
      dxz     :     0.000699
      dyz     :     0.006792
      dx2y2   :     0.007770
      dxy     :     0.004754
      f0      :     0.000107  f :     0.001374
      f+1     :     0.000010
      f-1     :     0.000235
      f+2     :     0.000290
      f-2     :     0.000091
      f+3     :     0.000289
      f-3     :     0.000353

  6 O s       :     3.743996  s :     3.743996
      pz      :     1.533807  p :     4.720726
      px      :     1.534976
      py      :     1.651943
      dz2     :     0.002638  d :     0.027545
      dxz     :     0.006354
      dyz     :     0.003254
      dx2y2   :     0.007609
      dxy     :     0.007690
      f0      :     0.000169  f :     0.001793
      f+1     :     0.000158
      f-1     :     0.000088
      f+2     :     0.000086
      f-2     :     0.000360
      f+3     :     0.000511
      f-3     :     0.000422

  7 H s       :     0.629184  s :     0.629184
      pz      :     0.007650  p :     0.031639
      px      :     0.005505
      py      :     0.018484

  8 H s       :     0.629929  s :     0.629929
      pz      :     0.006209  p :     0.031651
      px      :     0.018323
      py      :     0.007119

  9 H s       :     0.819862  s :     0.819862
      pz      :     0.004574  p :     0.020822
      px      :     0.003620
      py      :     0.012629

 10 H s       :     0.816666  s :     0.816666
      pz      :     0.003685  p :     0.021095
      px      :     0.012566
      py      :     0.004844

 11 H s       :     0.880836  s :     0.880836
      pz      :     0.004610  p :     0.021367
      px      :     0.004238
      py      :     0.012519

 12 H s       :     0.858646  s :     0.858646
      pz      :     0.004527  p :     0.020953
      px      :     0.011844
      py      :     0.004581

 13 H s       :     0.895864  s :     0.895864
      pz      :     0.005304  p :     0.021128
      px      :     0.003814
      py      :     0.012011

 14 H s       :     0.866985  s :     0.866985
      pz      :     0.008983  p :     0.021271
      px      :     0.005759
      py      :     0.006528

 15 H s       :     0.625603  s :     0.625603
      pz      :     0.013355  p :     0.031471
      px      :     0.007504
      py      :     0.010613



                     *******************************
                     * LOEWDIN POPULATION ANALYSIS *
                     *******************************

----------------------
LOEWDIN ATOMIC CHARGES
----------------------
   0 N :    0.179673
   1 C :   -0.265148
   2 C :   -0.260534
   3 C :   -0.246135
   4 C :   -0.650313
   5 O :   -0.295882
   6 O :   -0.068853
   7 H :    0.239335
   8 H :    0.238801
   9 H :    0.153872
  10 H :    0.152919
  11 H :    0.141263
  12 H :    0.144807
  13 H :    0.143443
  14 H :    0.152411
  15 H :    0.240340

-------------------------------
LOEWDIN REDUCED ORBITAL CHARGES
-------------------------------
  0 N s       :     2.985647  s :     2.985647
      pz      :     1.225316  p :     3.665419
      px      :     1.224290
      py      :     1.215813
      dz2     :     0.036297  d :     0.159071
      dxz     :     0.028063
      dyz     :     0.043223
      dx2y2   :     0.033712
      dxy     :     0.017776
      f0      :     0.002366  f :     0.010189
      f+1     :     0.001398
      f-1     :     0.001228
      f+2     :     0.001135
      f-2     :     0.002152
      f+3     :     0.000591
      f-3     :     0.001319

  1 C s       :     2.802358  s :     2.802358
      pz      :     0.920283  p :     2.976310
      px      :     0.989779
      py      :     1.066247
      dz2     :     0.108029  d :     0.434689
      dxz     :     0.109086
      dyz     :     0.081140
      dx2y2   :     0.096243
      dxy     :     0.040192
      f0      :     0.010369  f :     0.051791
      f+1     :     0.010443
      f-1     :     0.005989
      f+2     :     0.008830
      f-2     :     0.008762
      f+3     :     0.002711
      f-3     :     0.004687

  2 C s       :     2.792648  s :     2.792648
      pz      :     1.002825  p :     3.044054
      px      :     1.017356
      py      :     1.023872
      dz2     :     0.092072  d :     0.386407
      dxz     :     0.077709
      dyz     :     0.087990
      dx2y2   :     0.090462
      dxy     :     0.038173
      f0      :     0.007806  f :     0.037424
      f+1     :     0.005602
      f-1     :     0.005221
      f+2     :     0.005957
      f-2     :     0.006606
      f+3     :     0.001999
      f-3     :     0.004232

  3 C s       :     2.791675  s :     2.791675
      pz      :     1.005312  p :     3.054285
      px      :     1.027212
      py      :     1.021762
      dz2     :     0.063349  d :     0.362739
      dxz     :     0.083211
      dyz     :     0.071682
      dx2y2   :     0.086228
      dxy     :     0.058269
      f0      :     0.006331  f :     0.037435
      f+1     :     0.006192
      f-1     :     0.003748
      f+2     :     0.004188
      f-2     :     0.006138
      f+3     :     0.004858
      f-3     :     0.005980

  4 C s       :     2.785689  s :     2.785689
      pz      :     0.759224  p :     2.737671
      px      :     1.033425
      py      :     0.945022
      dz2     :     0.087706  d :     0.971382
      dxz     :     0.124500
      dyz     :     0.164318
      dx2y2   :     0.313987
      dxy     :     0.280871
      f0      :     0.009594  f :     0.155572
      f+1     :     0.010023
      f-1     :     0.010844
      f+2     :     0.016258
      f-2     :     0.024034
      f+3     :     0.057761
      f-3     :     0.027058

  5 O s       :     3.498069  s :     3.498069
      pz      :     1.540481  p :     4.746236
      px      :     1.734289
      py      :     1.471467
      dz2     :     0.005602  d :     0.047822
      dxz     :     0.001496
      dyz     :     0.012386
      dx2y2   :     0.016641
      dxy     :     0.011698
      f0      :     0.000327  f :     0.003754
      f+1     :     0.000030
      f-1     :     0.000514
      f+2     :     0.000741
      f-2     :     0.000280
      f+3     :     0.000894
      f-3     :     0.000967

  6 O s       :     3.406301  s :     3.406301
      pz      :     1.432172  p :     4.591051
      px      :     1.557725
      py      :     1.601154
      dz2     :     0.007562  d :     0.065479
      dxz     :     0.009257
      dyz     :     0.006158
      dx2y2   :     0.020874
      dxy     :     0.021629
      f0      :     0.000468  f :     0.006021
      f+1     :     0.000638
      f-1     :     0.000387
      f+2     :     0.000174
      f-2     :     0.000873
      f+3     :     0.001786
      f-3     :     0.001693

  7 H s       :     0.666437  s :     0.666437
      pz      :     0.020952  p :     0.094229
      px      :     0.015732
      py      :     0.057545

  8 H s       :     0.666955  s :     0.666955
      pz      :     0.018939  p :     0.094244
      px      :     0.054466
      py      :     0.020838

  9 H s       :     0.788467  s :     0.788467
      pz      :     0.012958  p :     0.057660
      px      :     0.010875
      py      :     0.033827

 10 H s       :     0.788914  s :     0.788914
      pz      :     0.010688  p :     0.058167
      px      :     0.032594
      py      :     0.014884

 11 H s       :     0.801300  s :     0.801300
      pz      :     0.013429  p :     0.057437
      px      :     0.011736
      py      :     0.032272

 12 H s       :     0.798451  s :     0.798451
      pz      :     0.013122  p :     0.056742
      px      :     0.029471
      py      :     0.014149

 13 H s       :     0.800961  s :     0.800961
      pz      :     0.013694  p :     0.055597
      px      :     0.010960
      py      :     0.030943

 14 H s       :     0.791176  s :     0.791176
      pz      :     0.021525  p :     0.056413
      px      :     0.016032
      py      :     0.018856

 15 H s       :     0.665426  s :     0.665426
      pz      :     0.038541  p :     0.094234
      px      :     0.023429
      py      :     0.032264



                      *****************************
                      * MAYER POPULATION ANALYSIS *
                      *****************************

  NA   - Mulliken gross atomic population
  ZA   - Total nuclear charge
  QA   - Mulliken gross atomic charge
  VA   - Mayer's total valence
  BVA  - Mayer's bonded valence
  FA   - Mayer's free valence

  ATOM       NA         ZA         QA         VA         BVA        FA
  0 N      7.2523     7.0000    -0.2523     3.5220     3.5220     0.0000
  1 C      6.1750     6.0000    -0.1750     3.8408     3.8408     0.0000
  2 C      6.1848     6.0000    -0.1848     3.8682     3.8682    -0.0000
  3 C      6.1468     6.0000    -0.1468     3.6222     3.6222     0.0000
  4 C      5.8049     6.0000     0.1951     4.5922     4.5922     0.0000
  5 O      8.6972     8.0000    -0.6972     1.6907     1.6907     0.0000
  6 O      8.4941     8.0000    -0.4941     1.8959     1.8959     0.0000
  7 H      0.6608     1.0000     0.3392     0.8837     0.8837     0.0000
  8 H      0.6616     1.0000     0.3384     0.8841     0.8841     0.0000
  9 H      0.8407     1.0000     0.1593     0.9611     0.9611    -0.0000
 10 H      0.8378     1.0000     0.1622     0.9681     0.9681     0.0000
 11 H      0.9022     1.0000     0.0978     1.0121     1.0121    -0.0000
 12 H      0.8796     1.0000     0.1204     0.9634     0.9634     0.0000
 13 H      0.9170     1.0000     0.0830     0.9992     0.9992    -0.0000
 14 H      0.8883     1.0000     0.1117     0.9777     0.9777    -0.0000
 15 H      0.6571     1.0000     0.3429     0.8782     0.8782     0.0000

  Mayer bond orders larger than 0.100000
B(  0-N ,  1-C ) :   0.9196 B(  0-N ,  7-H ) :   0.8648 B(  0-N ,  8-H ) :   0.8658 
B(  0-N , 15-H ) :   0.8674 B(  1-C ,  2-C ) :   0.9845 B(  1-C ,  9-H ) :   0.9529 
B(  1-C , 10-H ) :   0.9536 B(  2-C ,  3-C ) :   0.9698 B(  2-C , 11-H ) :   0.9513 
B(  2-C , 12-H ) :   0.9529 B(  3-C ,  4-C ) :   0.9179 B(  3-C , 13-H ) :   0.9514 
B(  3-C , 14-H ) :   0.9399 B(  4-C ,  5-O ) :   1.7137 B(  4-C ,  6-O ) :   1.9244 


-------
TIMINGS
-------

Total SCF time: 0 days 0 hours 0 min 14 sec 

Total time                  ....      14.057 sec
Sum of individual times     ....      13.998 sec  ( 99.6%)

SCF preparation             ....       0.331 sec  (  2.4%)
Fock matrix formation       ....      13.250 sec  ( 94.3%)
  Startup                   ....       0.026 sec  (  0.2% of F)
  Split-RI-J                ....       0.936 sec  (  7.1% of F)
  Chain of spheres X        ....       8.878 sec  ( 67.0% of F)
  XC integration            ....       1.953 sec  ( 14.7% of F)
    Basis function eval.    ....       0.562 sec  ( 28.8% of XC)
    Density eval.           ....       0.428 sec  ( 21.9% of XC)
    XC-Functional eval.     ....       0.089 sec  (  4.6% of XC)
    XC-Potential eval.      ....       0.727 sec  ( 37.2% of XC)
  CPCM terms                ....       1.371 sec  ( 10.3% of F)
Diagonalization             ....       0.000 sec  (  0.0%)
Density matrix formation    ....       0.056 sec  (  0.4%)
Total Energy calculation    ....       0.038 sec  (  0.3%)
Population analysis         ....       0.019 sec  (  0.1%)
Orbital Transformation      ....       0.033 sec  (  0.2%)
Orbital Orthonormalization  ....       0.000 sec  (  0.0%)
DIIS solution               ....       0.164 sec  (  1.2%)
SOSCF solution              ....       0.108 sec  (  0.8%)
Finished LeanSCF after  14.1 sec

Maximum memory used throughout the entire LEANSCF-calculation: 27.5 MB


-------------------------------------------------------------------------------
                          DFT DISPERSION CORRECTION                            
                                                                               
                                DFTD4 V3.4.0                                   
-------------------------------------------------------------------------------
The B3LYP functional is recognized
Active option DFTDOPT                   ...         5   

-------------------------   ----------------
Dispersion correction           -0.018269465
-------------------------   ----------------


-------------------------   --------------------
FINAL SINGLE POINT ENERGY      -363.025225916866
-------------------------   --------------------

--------------------------------------------------------------------------
WARNING: There was an error initializing an OpenFabrics device.

  Local host:   ga01
  Local device: mlx5_0
--------------------------------------------------------------------------


           ************************************************************
           *        Program running with 6 parallel MPI-processes     *
           *              working on a common directory               *
           ************************************************************
------------------------------------------------------------------------------
                         ORCA SCF GRADIENT CALCULATION
------------------------------------------------------------------------------

Nuc. rep. gradient        (SHARK) ... done (  0.0 sec)
HCore & Overlap gradient  (SHARK) ... done (  0.1 sec)
Split-RIJ-J gradient      (SHARK) ... done (  0.3 sec)
COSX-gradient                     ... [ga01:1275689] 5 more processes have sent help message help-mpi-btl-openib.txt / error in device init
[ga01:1275689] Set MCA parameter "orte_base_help_aggregate" to 0 to see all help / error messages
done (  5.4 sec)
XC gradient                       ... done (  0.8 sec)
CPCM gradient                     ... done (  0.4 sec)
Dispersion correction             ... done (  0.0 sec)

-------------------
DISPERSION GRADIENT
-------------------

   1   N   :   -0.000154770   -0.000158471    0.000442804
   2   C   :   -0.000179721   -0.000289099    0.000369263
   3   C   :   -0.000394690    0.000014039   -0.000059660
   4   C   :   -0.000068109    0.000021037   -0.000432002
   5   C   :    0.000352345    0.000179724   -0.000283672
   6   O   :    0.000369870    0.000495907   -0.000102594
   7   O   :    0.000552466   -0.000054572   -0.000262545
   8   H   :   -0.000044750    0.000042395    0.000139264
   9   H   :   -0.000103833   -0.000053181    0.000084542
  10   H   :   -0.000046941   -0.000127575    0.000112763
  11   H   :   -0.000015792   -0.000063748    0.000176282
  12   H   :   -0.000082847    0.000090655    0.000000670
  13   H   :   -0.000134177   -0.000003378   -0.000055926
  14   H   :    0.000005447   -0.000060392   -0.000145199
  15   H   :   -0.000058394    0.000041663   -0.000135050
  16   H   :    0.000003896   -0.000075004    0.000151060

Difference to translation invariance:
           :    0.0000000000   -0.0000000000    0.0000000000

Difference to rotation invariance:
           :   -0.0000000000   -0.0000000000   -0.0000000000

Norm of the Dispersion gradient    ...    0.0014419705
RMS gradient                       ...    0.0002081305
MAX gradient                       ...    0.0005524656

------------------
CARTESIAN GRADIENT
------------------

   1   N   :    0.008824017    0.003111406   -0.019877848
   2   C   :   -0.023122466   -0.000294062    0.032123500
   3   C   :    0.010836088   -0.002794852   -0.001491125
   4   C   :    0.014931779    0.003276803    0.005037364
   5   C   :   -0.018629526   -0.083736299   -0.024712943
   6   O   :    0.027646907    0.053350970    0.017580321
   7   O   :   -0.022261167    0.033566658    0.009325083
   8   H   :    0.002856974    0.018857969    0.003150787
   9   H   :   -0.015080428   -0.007774043   -0.009177765
  10   H   :    0.001798060   -0.012122859   -0.008449920
  11   H   :    0.013764823    0.005504877   -0.000095178
  12   H   :   -0.000560414    0.011587519    0.003381935
  13   H   :   -0.008618932   -0.004487369   -0.004535867
  14   H   :   -0.001008982   -0.012496969   -0.003259041
  15   H   :   -0.003337549    0.006796097   -0.008212224
  16   H   :    0.011960817   -0.012345845    0.009212921

Difference to translation invariance:
           :    0.0000000000    0.0000000000    0.0000000000

Difference to rotation invariance:
           :    0.0004539815   -0.0001511644   -0.0009029360

Norm of the Cartesian gradient     ...    0.1347424587
RMS gradient                       ...    0.0194483987
MAX gradient                       ...    0.0837362990

-------
TIMINGS
-------

Total SCF gradient time     ....        7.007 sec

Densities                   ....       0.001 sec  (  0.0%)
One electron gradient       ....       0.055 sec  (  0.8%)
RI-J Coulomb gradient       ....       0.338 sec  (  4.8%)
COSX gradient               ....       5.413 sec  ( 77.3%)
XC gradient                 ....       0.770 sec  ( 11.0%)
CPCM gradient               ....       0.406 sec  (  5.8%)
   A-Matrix (El+Nuc)        ....       0.056 sec  (  0.8%)
   Potential                ....       0.351 sec  (  5.0%)

Maximum memory used throughout the entire SCFGRAD-calculation: 35.2 MB
------------------------------------------------------------------------------
                         ORCA GEOMETRY RELAXATION STEP
------------------------------------------------------------------------------

Reading the OPT-File                    .... done
Getting information on internals        .... done
Copying old internal coords+grads       .... done
Making the new internal coordinates     .... (2022 redundants) done
Validating the new internal coordinates .... (2022 redundants) done
Calculating the B-matrix                .... done
Calculating the G,G- and P matrices     .... done
Transforming gradient to internals      .... done
Projecting the internal gradient        .... done
Number of atoms                         ....  16
Number of internal coordinates          ....  65
Current Energy                          ....  -363.025225917 Eh
Current gradient norm                   ....     0.134742459 Eh/bohr
Maximum allowed component of the step   ....  0.300
Current trust radius                    ....  0.300
Evaluating the initial hessian          ....  (Almloef) done
Projecting the Hessian                  .... done
Forming the augmented Hessian           .... done
Diagonalizing the augmented Hessian     .... done
Last element of RFO vector              ....  0.980927279
Lowest eigenvalues of augmented Hessian:
 -0.017355635  0.010575716  0.010755977  0.012594062  0.012671673
Length of the computed step             ....  0.198154430
The final length of the internal step   ....  0.198154430
Converting the step to Cartesian space:
 Initial RMS(Int)=    0.0245780321
Transforming coordinates:
 Iter   0:  RMS(Cart)=    0.0305270633 RMS(Int)=    0.7792559803
done
Storing new coordinates                 .... done

                                .--------------------.
          ----------------------|Geometry convergence|-------------------------
          Item                value                   Tolerance       Converged
          ---------------------------------------------------------------------
          RMS gradient        0.0119253748            0.0000300000      NO
          MAX gradient        0.0591331426            0.0001000000      NO
          RMS step            0.0245780321            0.0006000000      NO
          MAX step            0.0878938145            0.0010000000      NO
          ........................................................
          Max(Bonds)      0.0465      Max(Angles)    3.49
          Max(Dihed)        1.60      Max(Improp)    0.00
          ---------------------------------------------------------------------

The optimization has not yet converged - more geometry cycles are needed


    ---------------------------------------------------------------------------
                         Redundant Internal Coordinates
                            (Angstroem and degrees)

        Definition                    Value    dE/dq     Step     New-Value
    ----------------------------------------------------------------------------
     1. B(C   1,N   0)                1.4626 -0.018458  0.0219    1.4845   
     2. B(C   2,C   1)                1.5376  0.008347 -0.0116    1.5260   
     3. B(C   3,C   2)                1.5351  0.001959 -0.0027    1.5324   
     4. B(C   4,C   3)                1.5031 -0.010675  0.0131    1.5162   
     5. B(O   5,C   4)                1.3470  0.059133 -0.0465    1.3005   
     6. B(O   6,C   4)                1.2206 -0.038682  0.0193    1.2399   
     7. B(H   7,N   0)                1.0460  0.018540 -0.0247    1.0213   
     8. B(H   8,N   0)                1.0460  0.018525 -0.0247    1.0212   
     9. B(H   9,C   1)                1.1127  0.014316 -0.0217    1.0910   
    10. B(H  10,C   1)                1.1123  0.014271 -0.0216    1.0907   
    11. B(H  11,C   2)                1.1122  0.012049 -0.0183    1.0939   
    12. B(H  12,C   2)                1.1118  0.010444 -0.0158    1.0960   
    13. B(H  13,C   3)                1.1125  0.012805 -0.0194    1.0931   
    14. B(H  14,C   3)                1.1110  0.011046 -0.0167    1.0944   
    15. B(H  15,N   0)                1.0457  0.018421 -0.0246    1.0211   
    16. A(H   8,N   0,H  15)          108.86  0.005416   -0.87    107.99   
    17. A(H   7,N   0,H   8)          109.72  0.005996   -1.21    108.51   
    18. A(C   1,N   0,H   8)          110.14 -0.004647    0.78    110.92   
    19. A(C   1,N   0,H  15)          109.12 -0.007198    1.31    110.44   
    20. A(C   1,N   0,H   7)          110.09 -0.004872    0.82    110.92   
    21. A(H   7,N   0,H  15)          108.88  0.005467   -0.87    108.00   
    22. A(H   9,C   1,H  10)          108.36  0.001104   -0.01    108.36   
    23. A(C   2,C   1,H  10)          109.94 -0.004453    0.75    110.69   
    24. A(N   0,C   1,H  10)          109.00  0.003997   -0.86    108.14   
    25. A(C   2,C   1,H   9)          109.42 -0.002253    0.69    110.11   
    26. A(N   0,C   1,C   2)          110.88 -0.002322    0.27    111.14   
    27. A(N   0,C   1,H   9)          109.20  0.004081   -0.86    108.33   
    28. A(C   1,C   2,H  11)          109.81  0.000251   -0.23    109.58   
    29. A(C   3,C   2,H  12)          108.13 -0.003921    0.79    108.93   
    30. A(C   1,C   2,H  12)          108.70 -0.000002    0.15    108.85   
    31. A(C   3,C   2,H  11)          109.53 -0.001143    0.05    109.57   
    32. A(C   1,C   2,C   3)          112.42  0.002759   -0.47    111.95   
    33. A(H  11,C   2,H  12)          108.14  0.002006   -0.27    107.87   
    34. A(H  13,C   3,H  14)          108.05  0.000483   -0.17    107.88   
    35. A(C   2,C   3,C   4)          112.18 -0.003977    0.65    112.83   
    36. A(C   4,C   3,H  14)          108.21 -0.001428    0.20    108.41   
    37. A(C   2,C   3,H  14)          108.87  0.002963   -0.51    108.36   
    38. A(C   4,C   3,H  13)          110.20  0.002852   -0.51    109.70   
    39. A(C   2,C   3,H  13)          109.22 -0.000728    0.31    109.53   
    40. A(O   5,C   4,O   6)          119.63 -0.028690    3.49    123.12   
    41. A(C   3,C   4,O   6)          120.23  0.005095   -0.47    119.77   
    42. A(C   3,C   4,O   5)          120.14  0.023588   -3.01    117.13   
    43. D(H   9,C   1,N   0,H   8)    -60.18  0.001458   -0.48    -60.66   
    44. D(H   9,C   1,N   0,H   7)    178.69  0.000158   -0.02    178.67   
    45. D(H   9,C   1,N   0,H  15)     59.26  0.000841   -0.26     59.00   
    46. D(C   2,C   1,N   0,H  15)    179.90 -0.000771    0.20    180.10   
    47. D(C   2,C   1,N   0,H   7)    -60.66 -0.001454    0.44    -60.22   
    48. D(C   2,C   1,N   0,H   8)     60.46 -0.000154   -0.02     60.44   
    49. D(C   3,C   2,C   1,N   0)   -178.66 -0.000207   -0.22   -178.88   
    50. D(H  11,C   2,C   1,H  10)    -61.46 -0.001382    0.61    -60.85   
[...]
      dz2     :     0.035486  d :     0.150136
      dxz     :     0.025095
      dyz     :     0.039212
      dx2y2   :     0.034796
      dxy     :     0.015548
      f0      :     0.001922  f :     0.009486
      f+1     :     0.001286
      f-1     :     0.001364
      f+2     :     0.001025
      f-2     :     0.001833
      f+3     :     0.000632
      f-3     :     0.001424

  1 C s       :     2.800375  s :     2.800375
      pz      :     0.907377  p :     2.960811
      px      :     0.983059
      py      :     1.070375
      dz2     :     0.108617  d :     0.424408
      dxz     :     0.112115
      dyz     :     0.070387
      dx2y2   :     0.096959
      dxy     :     0.036329
      f0      :     0.009436  f :     0.049308
      f+1     :     0.010009
      f-1     :     0.005982
      f+2     :     0.008310
      f-2     :     0.008358
      f+3     :     0.002568
      f-3     :     0.004644

  2 C s       :     2.779430  s :     2.779430
      pz      :     1.008407  p :     3.054160
      px      :     1.021826
      py      :     1.023926
      dz2     :     0.092676  d :     0.393492
      dxz     :     0.082337
      dyz     :     0.086941
      dx2y2   :     0.090830
      dxy     :     0.040708
      f0      :     0.008196  f :     0.039463
      f+1     :     0.005904
      f-1     :     0.005201
      f+2     :     0.006385
      f-2     :     0.007114
      f+3     :     0.002124
      f-3     :     0.004538

  3 C s       :     2.791212  s :     2.791212
      pz      :     1.012150  p :     3.065897
      px      :     1.025385
      py      :     1.028362
      dz2     :     0.068333  d :     0.360103
      dxz     :     0.087985
      dyz     :     0.064091
      dx2y2   :     0.081740
      dxy     :     0.057954
      f0      :     0.005412  f :     0.035814
      f+1     :     0.005987
      f-1     :     0.004203
      f+2     :     0.003934
      f-2     :     0.006674
      f+3     :     0.004317
      f-3     :     0.005287

  4 C s       :     2.781327  s :     2.781327
      pz      :     0.915330  p :     2.735881
      px      :     0.976319
      py      :     0.844232
      dz2     :     0.270701  d :     1.006216
      dxz     :     0.230611
      dyz     :     0.183985
      dx2y2   :     0.151682
      dxy     :     0.169238
      f0      :     0.024461  f :     0.157513
      f+1     :     0.027812
      f-1     :     0.020206
      f+2     :     0.023550
      f-2     :     0.031846
      f+3     :     0.017892
      f-3     :     0.011746

  5 O s       :     3.429757  s :     3.429757
      pz      :     1.502709  p :     4.639867
      px      :     1.654690
      py      :     1.482469
      dz2     :     0.014436  d :     0.059356
      dxz     :     0.011253
      dyz     :     0.020700
      dx2y2   :     0.005914
      dxy     :     0.007054
      f0      :     0.000779  f :     0.005181
      f+1     :     0.000475
      f-1     :     0.001560
      f+2     :     0.000935
      f-2     :     0.001007
      f+3     :     0.000240
      f-3     :     0.000185

  6 O s       :     3.433181  s :     3.433181
      pz      :     1.529863  p :     4.653115
      px      :     1.570002
      py      :     1.553249
      dz2     :     0.012434  d :     0.058889
      dxz     :     0.020631
      dyz     :     0.008880
      dx2y2   :     0.009849
      dxy     :     0.007094
      f0      :     0.000660  f :     0.005165
      f+1     :     0.001333
      f-1     :     0.000389
      f+2     :     0.001178
      f-2     :     0.000924
      f+3     :     0.000391
      f-3     :     0.000291

  7 H s       :     0.676363  s :     0.676363
      pz      :     0.022674  p :     0.100283
      px      :     0.018171
      py      :     0.059438

  8 H s       :     0.676798  s :     0.676798
      pz      :     0.020285  p :     0.100327
      px      :     0.057650
      py      :     0.022391

  9 H s       :     0.792764  s :     0.792764
      pz      :     0.012534  p :     0.060968
      px      :     0.012075
      py      :     0.036358

 10 H s       :     0.793462  s :     0.793462
      pz      :     0.012114  p :     0.062937
      px      :     0.034299
      py      :     0.016525

 11 H s       :     0.800032  s :     0.800032
      pz      :     0.014523  p :     0.059932
      px      :     0.012798
      py      :     0.032611

 12 H s       :     0.800300  s :     0.800300
      pz      :     0.014121  p :     0.059034
      px      :     0.029795
      py      :     0.015119

 13 H s       :     0.800745  s :     0.800745
      pz      :     0.014833  p :     0.059487
      px      :     0.013275
      py      :     0.031378

 14 H s       :     0.792857  s :     0.792857
      pz      :     0.024256  p :     0.059698
      px      :     0.017130
      py      :     0.018312

 15 H s       :     0.675564  s :     0.675564
      pz      :     0.043882  p :     0.100487
      px      :     0.023752
      py      :     0.032853



                      *****************************
                      * MAYER POPULATION ANALYSIS *
                      *****************************

  NA   - Mulliken gross atomic population
  ZA   - Total nuclear charge
  QA   - Mulliken gross atomic charge
  VA   - Mayer's total valence
  BVA  - Mayer's bonded valence
  FA   - Mayer's free valence

  ATOM       NA         ZA         QA         VA         BVA        FA
  0 N      7.2538     7.0000    -0.2538     3.5280     3.5280    -0.0000
  1 C      6.1617     6.0000    -0.1617     3.8019     3.8019    -0.0000
  2 C      6.1101     6.0000    -0.1101     3.7742     3.7742    -0.0000
  3 C      6.2631     6.0000    -0.2631     3.6918     3.6918    -0.0000
  4 C      5.7670     6.0000     0.2330     4.5956     4.5956     0.0000
  5 O      8.5720     8.0000    -0.5720     1.8215     1.8215    -0.0000
  6 O      8.5805     8.0000    -0.5805     1.8284     1.8284     0.0000
  7 H      0.6736     1.0000     0.3264     0.8938     0.8938     0.0000
  8 H      0.6741     1.0000     0.3259     0.8940     0.8940    -0.0000
  9 H      0.8447     1.0000     0.1553     0.9625     0.9625    -0.0000
 10 H      0.8466     1.0000     0.1534     0.9917     0.9917    -0.0000
 11 H      0.9087     1.0000     0.0913     1.0078     1.0078    -0.0000
 12 H      0.8844     1.0000     0.1156     0.9656     0.9656    -0.0000
 13 H      0.9054     1.0000     0.0946     0.9946     0.9946    -0.0000
 14 H      0.8852     1.0000     0.1148     0.9750     0.9750    -0.0000
 15 H      0.6690     1.0000     0.3310     0.8884     0.8884    -0.0000

  Mayer bond orders larger than 0.100000
B(  0-N ,  1-C ) :   0.8869 B(  0-N ,  7-H ) :   0.8778 B(  0-N ,  8-H ) :   0.8782 
B(  0-N , 15-H ) :   0.8780 B(  1-C ,  2-C ) :   0.9689 B(  1-C ,  9-H ) :   0.9550 
B(  1-C , 10-H ) :   0.9600 B(  2-C ,  3-C ) :   0.9439 B(  2-C , 11-H ) :   0.9569 
B(  2-C , 12-H ) :   0.9529 B(  3-C ,  4-C ) :   0.9415 B(  3-C , 13-H ) :   0.9575 
B(  3-C , 14-H ) :   0.9472 B(  4-C ,  5-O ) :   1.8023 B(  4-C ,  6-O ) :   1.8357 


-------
TIMINGS
-------

Total SCF time: 0 days 0 hours 0 min 5 sec 

Total time                  ....       5.720 sec
Sum of individual times     ....       5.685 sec  ( 99.4%)

SCF preparation             ....       0.411 sec  (  7.2%)
Fock matrix formation       ....       5.112 sec  ( 89.4%)
  Startup                   ....       0.009 sec  (  0.2% of F)
  Split-RI-J                ....       0.225 sec  (  4.4% of F)
  Chain of spheres X        ....       4.058 sec  ( 79.4% of F)
  XC integration            ....       0.488 sec  (  9.5% of F)
    XC Preparation          ....       0.000 sec  (  0.0% of XC)
    Basis function eval.    ....       0.127 sec  ( 26.1% of XC)
    Density eval.           ....       0.117 sec  ( 24.0% of XC)
    XC-Functional eval.     ....       0.021 sec  (  4.2% of XC)
    XC-Potential eval.      ....       0.194 sec  ( 39.7% of XC)
  CPCM terms                ....       0.316 sec  (  6.2% of F)
Diagonalization             ....       0.000 sec  (  0.0%)
Density matrix formation    ....       0.011 sec  (  0.2%)
Total Energy calculation    ....       0.010 sec  (  0.2%)
Population analysis         ....       0.060 sec  (  1.1%)
Orbital Transformation      ....       0.016 sec  (  0.3%)
Orbital Orthonormalization  ....       0.000 sec  (  0.0%)
DIIS solution               ....       0.022 sec  (  0.4%)
SOSCF solution              ....       0.042 sec  (  0.7%)
Finished LeanSCF after   5.8 sec

Maximum memory used throughout the entire LEANSCF-calculation: 29.9 MB


-------------------------------------------------------------------------------
                          DFT DISPERSION CORRECTION                            
                                                                               
                                DFTD4 V3.4.0                                   
-------------------------------------------------------------------------------
The B3LYP functional is recognized
Active option DFTDOPT                   ...         5   

-------------------------   ----------------
Dispersion correction           -0.018248234
-------------------------   ----------------


-------------------------   --------------------
FINAL SINGLE POINT ENERGY      -363.040672008410
-------------------------   --------------------

                                *** OPTIMIZATION RUN DONE ***

--------------------------------------------------------------------------
WARNING: There was an error initializing an OpenFabrics device.

  Local host:   ga01
  Local device: mlx5_0
--------------------------------------------------------------------------


           ************************************************************
           *        Program running with 6 parallel MPI-processes     *
           *              working on a common directory               *
           ************************************************************

------------------------------------------------------------------------------
                              ORCA PROPERTY CALCULATIONS
------------------------------------------------------------------------------

GBWName                                 ... 02_Aminobutyric-acid_zwitterion.gbw
Number of atoms                         ...     16
Number of basis functions               ...    271
Max core memory                         ...   5000 MB

Electric properties:
Dipole moment                           ... YES
Quadrupole moment                       ...  NO
Static polarizability (Dipole/Dipole)   ...  NO
Static polarizability (Dipole/Quad.)    ...  NO
Static polarizability (Quad./Quad.)     ...  NO
Static polarizability (Velocity)        ...  NO

Atomic electric properties:
Dipole moment                           ...  NO
Quadrupole moment                       ...  NO
Static polarizability                   ...  NO

Choice of electric origin               ... Center of mass
Position of electric origin             ...     5.915710     1.571262    -3.673676

General magnetic properties:
Magnetizability                         ...  NO

EPR properties:
g-Tensor (aka g-matrix)                 ...  NO
Zero-Field splitting spin-orbit         ...  NO
Zero-field splitting spin-spin          ...  NO
Hyperfine couplings                     ...  NO (   0 nuclei)
Quadrupole couplings                    ...  NO (   0 nuclei)
Contact density                         ...  NO (   0 nuclei)

NMR properties:
Chemical shifts                         ...  NO (   0 nuclei)
Spin-rotation constants                 ...  NO (   0 nuclei)
Spin-spin couplings                     ...  NO (   0 nuclei,    0 pairs)

Choice of magnetic origin               ... GIAO
Position of magnetic origin             ...     0.000000     0.000000     0.000000

Properties with geometric perturbations:
SCF Hessian                             ...  NO
IR spectrum                             ...  NO
VCD spectrum                            ...  NO
X-ray spectroscopy properties:
SCF XES/XAS/RIXS spectra                ...  NO


-------------
DIPOLE MOMENT
-------------

Method             : SCF
Type of density    : Electron Density
Multiplicity       :   1
Irrep              :   0
Energy             :  -363.0224237740101216 Eh
Relativity type    : 
Basis              : AO
                                X                 Y                 Z
Electronic contribution:      3.694943051       1.779950028      -0.937760201
Nuclear contribution   :    -10.018462851      -4.932770134       6.718162491
                        -----------------------------------------
Total Dipole Moment    :     -6.323519800      -3.152820106       5.780402290
                        -----------------------------------------
Magnitude (a.u.)       :      9.129086915
Magnitude (Debye)      :     23.204294863



--------------------
Rotational spectrum 
--------------------
 
Rotational constants in cm-1:             0.200524             0.042784             0.039431 
Rotational constants in MHz :          6011.551611          1282.639718          1182.125382 

Dipole components along the rotational axes: 
x,y,z [a.u.] :    -9.083046    -0.911918    -0.083108 
x,y,z [Debye]:   -23.087268    -2.317912    -0.211243 

 

Dipole moment calculation done in   0.0 sec 

Maximum memory used throughout the entire PROP-calculation: 16.3 MB
[ga01:1286191] 5 more processes have sent help message help-mpi-btl-openib.txt / error in device init
[ga01:1286191] Set MCA parameter "orte_base_help_aggregate" to 0 to see all help / error messages
--------------------------------------------------------------------------
WARNING: There was an error initializing an OpenFabrics device.

  Local host:   ga01
  Local device: mlx5_0
--------------------------------------------------------------------------
[ga01:1286219] 5 more processes have sent help message help-mpi-btl-openib.txt / error in device init
[ga01:1286219] Set MCA parameter "orte_base_help_aggregate" to 0 to see all help / error messages

--------------------------------
SUGGESTED CITATIONS FOR THIS RUN
--------------------------------

Below you find a list of papers that are relevant to this ORCA run
We neither can nor want to force you to cite these papers, but we appreciate if you do
You receive ORCA, which is the product of decades of hard work by many enthusiastic individuals, for free
The only thing we kindly ask in return is that you cite our papers,
We deeply appreciate it, if you show your appreciation for ORCA by not just citing the generic ORCA reference.

Please note that relegating all ORCA citations to the supporting information does *not* help us.
SI sections are not indexed - citations you put there will not count into any citation statistics
But we need these citations in order to attract the funding resources that allow us to do what we are doing

Therefore, if you are a happy ORCA user, please consider citing a few of the papers listed below in the main body of your paper

In addition to the list printed below, the program has created the file 02_Aminobutyric-acid_zwitterion.bibtex that contains the list in bibtex format
You can import this file easily into all common literature databanks and citation aid programs


List of essential papers. We consider these as the minimum necessary citations

  1. Neese,F.
     Software update: the ORCA program system, version 5.0
     WIRES Comput. Molec. Sci., 2022 12(1)e1606
     doi.org/10.1002/wcms.1606

List of papers to cite with high priority. The work reported in these papers was absolutely
necessary for this run to complete.
Our perspective: the developers of density functionals and basis sets usually get cited in chemistry papers
Good! But without the algorithms to do something with them, the functionals or basis sets would not do anything.
Hence, in our opinion, the algorithm design and method developments papers are equally worthy of getting cited

  1. Neese,F.
     An improvement of the resolution of the identity approximation for the formation of the Coulomb matrix
     J. Comp. Chem., 2003 24(14)1740-1747
     doi.org/10.1002/jcc.10318
  2. Neese,F.; Wennmohs,F.; Hansen,A.; Becker,U.
     Efficient, approximate and parallel Hartree-Fock and hybrid DFT calculations. A 'chain-of-spheres' algorithm for the Hartree-Fock exchange
     Chem. Phys., 2009 356(1-3)98-109
     doi.org/10.1016/j.chemphys.2008.10.036
  3. Garcia-Rates,M.; Neese,F.
     Effect of the Solute Cavity on the Solvation Energy and its Derivatives within the Framework of the Gaussian Charge Scheme
     J. Comput. Chem., 2020 41 922-939
     doi.org/10.1002/jcc.26139
  4. Helmich-Paris,B.; de Souza,B.; Neese,F.; Izsák,R.
     An improved chain of spheres for exchange algorithm
     J. Chem. Phys., 2021 155 104109
     doi.org/doi: 10.1063/5.0058766.
  5. Neese,F.
     The SHARK Integral Generation and Digestion System
     J. Comp. Chem., 2022  1-16
     doi.org/10.1002/jcc.26942
  6. Caldeweyher,E.; Bannwarth,C.; Grimme,S.
     Extension of the D3 dispersion coefficient model
     J. Chem. Phys., 2017 147 034112
     doi.org/10.1063/1.4993215
  7. Caldeweyher,E.; Ehlert,S.; Hansen,A.; Neugebauer,H.; Spicher,S.; Bannwarth,C.; Grimme,S.
     A generally applicable atomic-charge dependent London dispersion correction
     J. Chem. Phys., 2019 150 154122
     doi.org/10.1063/1.5090222
  8. Caldeweyher,E.; Mewes,J.; Ehlert,S.; Grimme,S.
     Extension and evaluation of the D4 London-dispersion model for periodic systems
     Phys. Chem. Chem. Phys., 2020 22(16)8499-8512
     doi.org/10.1039/D0CP00502A
  9. Wittmann,L.; Gordiy,I.; Friede,M.; Helmich-Paris,B.; Grimme,S.; Hansen,A.; Bursch,M.
     Extension of the D3 and D4 London Dispersion Corrections to the full Actinides Series
     Phys. Chem. Chem. Phys., 2024 26(32)21379-21394
     doi.org/https://doi.org/10.1039/D4CP01514B 

List of suggested additional citations. These are papers that are important in the 'surrounding' of 
of this run, or papers that preceded the highly important papers. If you like your results we are grateful for a citation.

  1. Izsak,R.; Neese,F.
     An overlap fitted chain of spheres exchange method
     J. Chem. Phys., 2011 135 144105
     doi.org/10.1063/1.3646921
  2. Izsak,R.; Hansen,A.; Neese,F.
     The resolution of identity and chain of spheres approximations for the LPNO-CCSD singles Fock term
     Molec. Phys., 2012 110 2413-2417
     doi.org/10.1080/00268976.2012.687466
  3. Neese,F.
     The ORCA program system
     WIRES Comput. Molec. Sci., 2012 2(1)73-78
     doi.org/10.1002/wcms.81
  4. Izsak,R.; Neese,F.; Klopper,W.
     Robust fitting techniques in the chain of spheres approximation to the Fock exchange: The role of the complementary space
     J. Chem. Phys., 2013 139 
     doi.org/10.1063/1.4819264
  5. Neese,F.
     Software update: the ORCA program system, version 4.0
     WIRES Comput. Molec. Sci., 2018 8(1)1-6
     doi.org/10.1002/wcms.1327
  6. Neese,F.; Wennmohs,F.; Becker,U.; Riplinger,C.
     The ORCA quantum chemistry program package
     J. Chem. Phys., 2020 152 Art. No. L224108
     doi.org/10.1063/5.0004608

List of optional additional citations

  1. Neese,F.
     Approximate second-order SCF convergence for spin unrestricted wavefunctions
     Chem. Phys. Lett., 2000 325(1-3)93-98
     doi.org/10.1016/s0009-2614(00)00662-x

Timings for individual modules:

Sum of individual times          ...      402.343 sec (=   6.706 min)
Startup calculation              ...       21.837 sec (=   0.364 min)   5.4 %
SCF iterations                   ...      235.643 sec (=   3.927 min)  58.6 %
Property calculations            ...        0.448 sec (=   0.007 min)   0.1 %
SCF Gradient evaluation          ...      144.341 sec (=   2.406 min)  35.9 %
Geometry relaxation              ...        0.072 sec (=   0.001 min)   0.0 %
                             ****ORCA TERMINATED NORMALLY****
TOTAL RUN TIME: 0 days 0 hours 6 minutes 51 seconds 464 msec
