37
 energy: -59.879446962134 gnorm: 0.000215434581 xtb: 6.7.1 (edcfbbe)
N            0.33661994339363       -0.33353990352865        2.23372436845263
C           -0.56672970968623       -0.97141829985178        1.26050928945414
C           -0.72974065960889       -0.10743971272248        0.01303306045906
C           -1.77818191425246       -0.70500360164656       -0.92711238317391
C           -1.85842852662155        0.12076523819534       -2.21996986651640
O           -2.67042967997487        1.07263423566574       -2.25399627068004
O           -1.09468570367583       -0.18977599812727       -3.16548675762911
H            1.31306034377106       -0.26129591976070        1.84286316330535
H            0.01373746726518        0.61008844106509        2.45067697491902
H           -1.54436817038012       -1.12768111154344        1.71718774726535
H           -0.15115764113166       -1.93619352569582        0.96925300643708
H            0.21975176972524       -0.03284822526952       -0.51979691614665
H           -1.05033818194811        0.90344331849419        0.27620035422404
H           -2.76431157945418       -0.68646420363444       -0.46046629466583
H           -1.51233756700940       -1.72902019720220       -1.18801462053839
H            0.37532567260926       -0.88379844188629        3.12409696431580
O            1.61066773725271       -4.15507013628592        4.71235987945563
H            1.28853383024167       -4.85459399515103        4.13529404084314
H            2.57160149026279       -4.19318786324057        4.69826171645351
O            2.88170709983180       -0.17111933743330        1.30726188956578
H            3.09133897714774       -1.06582389376880        0.96243122105379
H            3.53884797498519        0.01846398459014        1.98332770076436
O           -2.56323971463813        2.36822636144408       -4.66368395469033
H           -2.66212863438980        1.95824669702440       -3.77486077639860
H           -1.90351366057654        1.82730555319710       -5.11048431331485
O            0.87020880646997       -3.43337661402532       -0.50494113470449
H            0.72495580953687       -3.01935888986554       -1.37527431933224
H            0.64379877787012       -4.36171832359384       -0.61211022889511
O            0.36828418465743       -1.67183925766023        4.61805213624551
H           -0.41273721545321       -1.75837761396818        5.17014281369338
H            0.83984711340782       -2.52233901821967        4.66759257438002
O            0.45104920563853       -2.38315514756723       -3.01994976158261
H           -0.12993612138572       -1.59009368571021       -3.07785897339062
H            1.09502385377521       -2.28337497781350       -3.72714567391826
O            3.35629354822051       -2.67612743144500        0.37468719016182
H            3.92080680644096       -2.79133810533474       -0.39381965964862
H            2.46121526772849       -2.96991539782093        0.10645181386848
