37
 energy: -59.780256237784 gnorm: 0.166255386772 xtb: 6.7.1 (edcfbbe)
N            0.00260500000000        0.26833900000000        2.34949800000000
C            0.00561000000000       -0.53426800000000        1.12782400000000
C           -0.01360500000000        0.36044200000000       -0.11757000000000
C           -0.00658000000000       -0.48411400000000       -1.39958300000000
C            0.00530900000000        0.34606300000000       -2.65559300000000
O            0.01598000000000        1.56658800000000       -2.61114500000000
O            0.01013600000000       -0.27058000000000       -3.85192000000000
H            0.84383000000000        0.88923800000000        2.37341700000000
H           -0.86762500000000        0.84621600000000        2.39703300000000
H           -0.88589600000000       -1.19861800000000        1.12403900000000
H            0.91775600000000       -1.17084600000000        1.11100500000000
H            0.88289000000000        1.01613200000000       -0.10393900000000
H           -0.92488100000000        0.99783100000000       -0.09978000000000
H           -0.91002800000000       -1.12912700000000       -1.41351300000000
H            0.89428700000000       -1.13411000000000       -1.40682800000000
H            0.03021100000000       -0.36918600000000        3.17705500000000
O            1.82190200000000       -3.59104600000000        4.78248900000000
H            0.88742900000000       -3.89578600000000        4.66205500000000
H            1.88923700000000       -3.37206000000000        5.74588200000000
O            2.23984600000000       -2.43253100000000        2.32838500000000
H            1.86886200000000       -3.34872500000000        2.38812600000000
H            2.63004700000000       -2.26405400000000        3.22279600000000
O           -3.21754500000000        2.17790200000000       -3.34701200000000
H           -2.59481100000000        2.27667800000000       -2.58343100000000
H           -2.85994300000000        1.41085100000000       -3.86117700000000
O            0.08255300000000       -3.45318900000000       -1.39609900000000
H           -0.61588900000000       -3.87714600000000       -0.83659000000000
H            0.39689300000000       -4.17856600000000       -1.99244800000000
O            0.52689700000000       -1.39795800000000        5.69545800000000
H            0.00996200000000       -2.23449400000000        5.81206400000000
H            1.04257900000000       -1.53911800000000        4.86193600000000
O           -1.48235800000000       -3.00953800000000       -3.27848800000000
H           -1.14446100000000       -2.12027500000000       -3.55353100000000
H           -0.86827700000000       -3.65353500000000       -3.71298300000000
O            2.99877600000000       -2.70729300000000       -1.79036600000000
H            2.76549700000000       -1.88356700000000       -2.28802800000000
H            2.20321600000000       -2.89266500000000       -1.23060200000000
37
 energy: -59.803843829940 gnorm: 0.085652432945 xtb: 6.7.1 (edcfbbe)
N           -0.00033261343078        0.26509238574381        2.35597580593747
C            0.00496515757586       -0.54041238914799        1.12347050925331
C           -0.01276811550381        0.35875259820303       -0.11171448255227
C           -0.00983353226848       -0.47704659627738       -1.39022742919371
C            0.00639299044803        0.34971455388904       -2.66124310309927
O            0.00178512873261        1.58729314084436       -2.61682074732683
O           -0.02457029757494       -0.29774489068118       -3.78731018470165
H            0.82741656221022        0.88111834327366        2.37873562170391
H           -0.85352949175081        0.84422637136740        2.40243632759037
H           -0.87507312351746       -1.19282081435619        1.11120497219646
H            0.90310190156530       -1.17094825592678        1.10877032128190
H            0.86569293540266        1.01550431538064       -0.11928497600488
H           -0.90600521587419        0.99590795040577       -0.11222276923476
H           -0.89044956870280       -1.12958508097028       -1.42303871765856
H            0.86942841354508       -1.12982785391209       -1.40981076536804
H            0.02699039322987       -0.35353612150335        3.18155903729294
O            1.81684129626920       -3.60781649189815        4.78924866181808
H            0.90638264215040       -3.92988103978657        4.67898533661670
H            1.90603188677555       -3.40211645706063        5.73560845639242
O            2.19583775232144       -2.41204640549416        2.34496243249878
H            1.90478050086489       -3.34088804598395        2.37595520675734
H            2.65444070821720       -2.28887295004384        3.19801573139902
O           -3.20608703326867        2.18115029438425       -3.34376742236747
H           -2.58777537779047        2.28065583297908       -2.60110476324873
H           -2.86338859451162        1.42796924502587       -3.85076750271125
O            0.17899833428320       -3.50930618562585       -1.29666051666970
H           -0.61915101285310       -3.88252162927551       -0.85811770543810
H            0.39360429489713       -4.17914172644480       -1.97884322682595
O            0.48037934334267       -1.36170676548451        5.66084383154624
H           -0.00363216271044       -2.19041014479803        5.82484436774759
H            1.05260321553022       -1.56007315114362        4.89031762224708
O           -1.52335208829841       -2.98243284566560       -3.36330377129456
H           -1.11274248671197       -2.11265325440845       -3.55404316269077
H           -0.89196385689973       -3.62671329256926       -3.72978773410540
O            3.00002383909352       -2.69308202481546       -1.77186880286371
H            2.77183925386719       -1.90504415365186       -2.29252359962505
H            2.19352902134537       -2.89687146457171       -1.26003685929889
37
 energy: -59.810564895788 gnorm: 0.051545045300 xtb: 6.7.1 (edcfbbe)
N           -0.00392458376920        0.26104723163969        2.36581268907567
C            0.00228557687917       -0.54376364915951        1.11875146847470
C           -0.01441376025193        0.36026740588475       -0.10519128684158
C           -0.02149127390224       -0.47488703430541       -1.37589068606432
C           -0.04618811759755        0.34245860684651       -2.67422244846840
O           -0.00906435958580        1.59436524361361       -2.61569751834113
O           -0.03579035960730       -0.32923033032059       -3.72224052681235
H            0.81323835815558        0.87166473995125        2.38416530739272
H           -0.84145443919611        0.84279966774182        2.40970651242691
H           -0.87048492809208       -1.18338868442637        1.09989298229796
H            0.88973396460138       -1.16742800678472        1.10654293741605
H            0.85345515291536        1.01286416076965       -0.13582803805471
H           -0.89451104963151        0.99551056145784       -0.11838987228743
H           -0.88633750200242       -1.12961377667623       -1.41947870922380
H            0.84795039857090       -1.12159946266837       -1.41717977862993
H            0.02438833317960       -0.34216104682971        3.18964216867848
O            1.80631180578759       -3.61268585083705        4.80258175312565
H            0.92956916852517       -3.98749122833902        4.70300184663965
H            1.93268925889323       -3.45648997355425        5.73990955065187
O            2.18336762781321       -2.40103023522637        2.35457449560708
H            1.92465316692302       -3.32178479518564        2.35904458132717
H            2.67300289197859       -2.30654307598742        3.17647759964240
O           -3.18922995843368        2.19047674461388       -3.33929960481763
H           -2.56655606235549        2.29462029486741       -2.62183528973702
H           -2.87031578419931        1.44641467613981       -3.84376191868235
O            0.17146062397812       -3.54465158189725       -1.30190845443320
H           -0.56745948186427       -3.90121050332585       -0.83182281387489
H            0.43607744608403       -4.20444662556853       -1.92214438322930
O            0.43814292255430       -1.31786012441365        5.61509320306399
H           -0.04250258925706       -2.11888469675896        5.83670650503941
H            1.05922122341634       -1.58867223783195        4.91014251217200
O           -1.48739902677733       -2.94375216301398       -3.36955424789784
H           -1.10250974172336       -2.09381448768423       -3.59087656754959
H           -0.92851434619247       -3.59241512556385       -3.78961512766526
O            3.00188848201473       -2.68219603459657       -1.75653597413249
H            2.78835517445166       -1.92308582755752       -2.29618568133607
H            2.18276678771684       -2.90951777501401       -1.29595118495226
37
 energy: -59.816296651790 gnorm: 0.058389688666 xtb: 6.7.1 (edcfbbe)
N           -0.00806601803573        0.25948473821727        2.37452116989329
C           -0.00322525740566       -0.53988761600774        1.12221181697727
C           -0.01765861294286        0.36689278820188       -0.09918437023824
C           -0.02539864208454       -0.47446267185320       -1.36495047980650
C           -0.03893742632225        0.33058868717218       -2.68004184839605
O           -0.04550507351351        1.58246280972656       -2.62128809012750
O           -0.10266153762348       -0.35479643650874       -3.72021378433464
H            0.81308265957730        0.86831033216937        2.39057748343653
H           -0.84537643347866        0.84510382179506        2.41660813654530
H           -0.88102968625786       -1.17752090692188        1.09889460711468
H            0.88641330689969       -1.16504634712793        1.11028697982396
H            0.85697334011900        1.01406463149906       -0.13408139315350
H           -0.89985117540106        1.00380837455147       -0.11317772027491
H           -0.89525429994336       -1.12752700679641       -1.40992624660920
H            0.84931976565753       -1.11760920729219       -1.40938003350895
H            0.01978900351970       -0.34622520315228        3.19958162010257
O            1.79154534845800       -3.58809869896596        4.80612791339852
H            0.94270644106185       -4.06068771683094        4.73346474898759
H            1.96435916716927       -3.51874071530737        5.76005788937179
O            2.13567394008541       -2.36927532329822        2.37261655702632
H            1.95614753927815       -3.32553269898593        2.32662180396232
H            2.71633864653310       -2.32161224900710        3.16128151621708
O           -3.17778291987142        2.20995686834378       -3.33258601134540
H           -2.52723669064353        2.31789374167179       -2.63427694257091
H           -2.88367467194860        1.45617767553189       -3.84671600754245
O            0.25727599183243       -3.59565186507246       -1.23363005005737
H           -0.58446830913248       -3.90227738293507       -0.84804785758815
H            0.44316868905883       -4.23294182224620       -1.93106043216921
O            0.39794349145975       -1.26778396653952        5.55794924204365
H           -0.08098375962797       -2.05748005779350        5.86000024249459
H            1.06863222249881       -1.62995468983646        4.91017938844357
O           -1.46670768016861       -2.90117182863416       -3.38546808908575
H           -1.05010002688825       -2.05655408592971       -3.59586149418169
H           -0.95252980515174       -3.57310258964258       -3.84167619365011
O            3.01208714192029       -2.67015142245294       -1.72042216690934
H            2.80691559852632       -1.94037524203848       -2.31654789705814
H            2.14848673278567       -2.92639171770483       -1.33400800723075
37
 energy: -59.816194961911 gnorm: 0.078313774753 xtb: 6.7.1 (edcfbbe)
N           -0.01234629530944        0.25701449580418        2.38589225809719
C           -0.01063020356656       -0.53349516256236        1.12757878696147
C           -0.02161024861568        0.37465425089006       -0.09308763090247
C           -0.03429788667277       -0.47560287052435       -1.35263510860040
C           -0.05684103849745        0.31449995540518       -2.68717137479571
O           -0.08064575588844        1.56388054972194       -2.63361653331407
O           -0.17320101611839       -0.39079374783322       -3.72579852783232
H            0.81553853555612        0.86312634747986        2.40024400600016
H           -0.85065732480498        0.84748565380466        2.42783386100388
H           -0.89456076936602       -1.17058451283925        1.10040039010381
H            0.88094362730402       -1.16248524160234        1.11294544305985
H            0.86150760516248        1.01614195793501       -0.13124202645790
H           -0.90595405257110        1.01567874457585       -0.10582703262771
H           -0.90852965308400       -1.13030129959377       -1.38887605672346
H            0.84913642861479       -1.11338930898685       -1.40127263335580
H            0.01581761140173       -0.35486533057856        3.21219924563292
O            1.79290516384725       -3.62973625924613        4.83585634306849
H            0.95319240701850       -4.10570960815617        4.76023063016360
H            1.98740578672508       -3.56874905554176        5.78331137718124
O            2.22029229101648       -2.39443604147083        2.35160600111166
H            1.92884143605878       -3.29627065655210        2.31753359248330
H            2.69291894366200       -2.29597356996335        3.16433832877924
O           -3.15879874000901        2.23674496825522       -3.32160838927740
H           -2.46255625670584        2.34585712279247       -2.65493620091710
H           -2.90472764094909        1.46670532982516       -3.84968052591596
O            0.35006846849661       -3.65896908545021       -1.16195398977354
H           -0.57121314525951       -3.91423938914621       -0.84367452525024
H            0.44668809385369       -4.26779867816930       -1.94816059933618
O            0.43077457037118       -1.25925033348481        5.55321628592744
H           -0.14677343665640       -1.97936119152065        5.84972872459705
H            0.99324450299543       -1.60986513339246        4.86735560821152
O           -1.46274306019110       -2.85352358219958       -3.43284425095438
H           -0.97439353637687       -2.00813892394413       -3.57957963975100
H           -0.97975045526789       -3.54425480067778       -3.91411417121175
O            3.00539742902303       -2.68366554402943       -1.71547061838617
H            2.83224549376249       -1.95584000748966       -2.32965966223403
H            2.13372312104038       -2.93060504153677       -1.35062538476476
37
 energy: -59.821062634623 gnorm: 0.042978677582 xtb: 6.7.1 (edcfbbe)
N           -0.01357583149006        0.25739510459473        2.39161290773485
C           -0.01359968354513       -0.53015531471948        1.13281759018930
C           -0.02372328058776        0.37605782818691       -0.09067589075872
C           -0.04334525326034       -0.47811475244844       -1.34848407153505
C           -0.09485380154865        0.30909377343914       -2.68591193517664
O           -0.09497957392458        1.55518713778808       -2.63863603808762
O           -0.18965963038701       -0.40129734460054       -3.73028427465719
H            0.81764685612785        0.86177130228514        2.40689686984616
H           -0.85264026550880        0.84947111960171        2.43518863368934
H           -0.89973957989955       -1.16711869448197        1.10546342566214
H            0.87727893025876       -1.16323775206817        1.11709078074188
H            0.86118942041669        1.01691991985671       -0.12824396601696
H           -0.90701914613685        1.02106680993568       -0.10048333664450
H           -0.91596801100928       -1.13729647114910       -1.37113355189250
H            0.84502544431938       -1.11185941098202       -1.39911666309578
H            0.01468051359804       -0.35752556268756        3.21830274939171
O            1.79234331447626       -3.65253776990525        4.85515757576842
H            0.96078594530635       -4.12839780032598        4.77763424305340
H            1.99680678144670       -3.59026399180296        5.79402328579304
O            2.19726027439440       -2.37367159842295        2.36365672140439
H            1.94340254673222       -3.29320614892279        2.29213699292746
H            2.72124754570823       -2.30534681166504        3.15887362013868
O           -3.14682853271944        2.25294330790566       -3.31637626912545
H           -2.42506935969934        2.35994292696570       -2.67070812929299
H           -2.91368786149579        1.47626824578654       -3.84990539069744
O            0.29598001378254       -3.66103727258755       -1.21233438823391
H           -0.49845073402390       -3.94900104846768       -0.78474892149440
H            0.49522549551094       -4.29245983391494       -1.90525498742163
O            0.39485165867262       -1.22402371623675        5.50086126261629
H           -0.16973014636542       -1.93524380053360        5.85369149111269
H            0.99932084107206       -1.64616962194397        4.86592116461111
O           -1.47775158970354       -2.83763074070219       -3.47790890362848
H           -0.95803217997666       -1.98545607337650       -3.57350425982990
H           -0.97905863832479       -3.51614583075926       -3.95278465400942
O            3.00100170261257       -2.69352984755319       -1.72331454175801
H            2.84238482962984       -1.96091988033885       -2.33043813695567
H            2.14169198554096       -2.93058538575227       -1.35064500436819
37
 energy: -59.821123033281 gnorm: 0.080352967747 xtb: 6.7.1 (edcfbbe)
N           -0.01169010754378        0.26047895163663        2.39634978839478
C           -0.01568213318200       -0.52877309253513        1.13856656887640
C           -0.02871029723194        0.37092049479100       -0.09027054611264
C           -0.06038886127397       -0.48863833149191       -1.34577239113574
C           -0.17005747748120        0.30359265564806       -2.67715078130727
O           -0.11223319806766        1.54794128630832       -2.63014941704887
O           -0.15880998103640       -0.39519087846343       -3.71497174776397
H            0.81812911979073        0.86179313811595        2.41260145488607
H           -0.84732616998425        0.85210593876794        2.44468367815205
H           -0.89955659379820       -1.16254098618897        1.11613540612977
H            0.87036495058503       -1.16340790245039        1.12269170731526
H            0.85262861157741        1.01185765128641       -0.13049874616437
H           -0.90521185267400        1.02010551301303       -0.09690805028507
H           -0.92203406657855       -1.15683312548850       -1.35059912704541
H            0.83166970268560       -1.11254218516481       -1.40351412446885
H            0.01832049090915       -0.35176409127332        3.22241322678733
O            1.77570968920115       -3.61633651572221        4.86426020664807
H            0.97673369340935       -4.17252422050951        4.80452617338196
H            2.01420215555516       -3.62315521901810        5.80668147529565
O            2.12767966683749       -2.32803020527880        2.39501230936627
H            1.97762861211865       -3.29270966962710        2.26109768233597
H            2.77885682961663       -2.33311219520131        3.14995685434802
O           -3.12865218389867        2.26498926696896       -3.31767100112175
H           -2.39718904318387        2.36823239050521       -2.69346059292208
H           -2.90667752662077        1.49334997036444       -3.84807684194200
O            0.34512592889471       -3.69940589343021       -1.19042511440481
H           -0.49627911944042       -3.93798749844240       -0.79591509548070
H            0.49999678282614       -4.32598697736480       -1.89362755145021
O            0.33562971164766       -1.19036648549374        5.43409256729745
H           -0.18647253426020       -1.90224985883106        5.82407306244717
H            1.02441102815323       -1.68087061802652        4.87823105214122
O           -1.40978935771476       -2.82577382954363       -3.41376099584959
H           -1.03956562353661       -1.97349411825337       -3.64404328209263
H           -0.96142973935608       -3.46458237581206       -3.99904725428475
O            3.00818711172812       -2.68841361034586       -1.70580881671710
H            2.85011899738479       -1.97313840176060       -2.32600533603417
H            2.13277378394188       -2.95365397169161       -1.37526040017117
37
 energy: -59.825971078445 gnorm: 0.043536679114 xtb: 6.7.1 (edcfbbe)
N           -0.01064730458817        0.26222873737612        2.40079560624788
C           -0.02014310090771       -0.52797614620838        1.14347719318761
C           -0.03444200535825        0.36892448074964       -0.08743639663982
C           -0.06357404991079       -0.49306316787652       -1.34145533155058
C           -0.13697118022805        0.30078101155853       -2.67166268003924
O           -0.16215630351552        1.54560418789303       -2.62159810844366
O           -0.20799214479388       -0.39123246243195       -3.71176243498123
H            0.82038213069578        0.86151216725798        2.41499817322316
H           -0.84466282801956        0.85541708903049        2.45191299298487
H           -0.90477824642581       -1.16033965641861        1.12423332557041
H            0.86527541206555       -1.16293476254888        1.12567168447383
H            0.84957194119351        1.00616233257719       -0.13040759244036
H           -0.90864186491626        1.02129723491065       -0.09593197953992
H           -0.92460490275591       -1.16300186818616       -1.34965682756228
H            0.82824005225117       -1.11531149071180       -1.39701232690524
H            0.02133107274742       -0.34902832552040        3.22799405920543
O            1.77510435565440       -3.63042443587693        4.88202202757756
H            0.98130388529749       -4.18368601540199        4.81835568181860
H            2.02058785263447       -3.63209688626389        5.81723467322087
O            2.18854571671364       -2.34964132374503        2.37856736040340
H            1.96255187606114       -3.27583673249031        2.27020509336839
H            2.75216150643837       -2.30918791115238        3.15536785631619
O           -3.11250308167584        2.27771473023176       -3.31507593419473
H           -2.36123542371419        2.37724684289721       -2.71135692638580
H           -2.91063928841247        1.50336463194988       -3.85131950715952
O            0.36545954557246       -3.72358785812102       -1.18186759977300
H           -0.48458213543306       -3.94481026216167       -0.78595553617027
H            0.51337777056198       -4.35444731103505       -1.88241067902419
O            0.33456845513700       -1.18458809957439        5.40802006864988
H           -0.20795751713447       -1.87565639850141        5.80508109199751
H            0.99564966082292       -1.67362195662500        4.85129756412525
O           -1.41381680930924       -2.82810005030637       -3.44190200526609
H           -1.04688007508715       -1.96011394676805       -3.63798608953980
H           -0.94220366681863       -3.43999255482276       -4.01903122069210
O            3.02137634291956       -2.68052623133606       -1.68502328004705
H            2.85623277873124       -1.98602641661156       -2.33471041022231
H            2.12712257350627       -2.97113617573976       -1.39323558579347
37
 energy: -59.821979473777 gnorm: 0.104246223669 xtb: 6.7.1 (edcfbbe)
N           -0.00926495185962        0.26413213480821        2.40992098787558
C           -0.02645322585817       -0.52802196631890        1.15459969664132
C           -0.04204524225876        0.36564132993105       -0.07976220867541
C           -0.07386456069916       -0.49647467187185       -1.33416140766809
C           -0.14150747704857        0.30359240173158       -2.66071872805671
O           -0.22665767312585        1.54773720746807       -2.60117966659282
O           -0.25252952342086       -0.37650353238930       -3.71405009760635
H            0.82577453372362        0.86033470037877        2.42063019864638
H           -0.84217159205683        0.86087063058637        2.46364730375609
H           -0.91510828869856       -1.15846111912917        1.14030387218396
H            0.85975953376402       -1.16495678011174        1.13527596677464
H            0.84781490331175        0.99762914119210       -0.12885167496342
H           -0.91600903703982        1.02142056111751       -0.08908674972480
H           -0.93393640154564       -1.17121407484398       -1.33788181393421
H            0.82299473861984       -1.11382388966161       -1.39827244780668
H            0.02465441164446       -0.34612021540493        3.24155000710946
O            1.77432594902946       -3.66853543469559        4.91750520878905
H            0.98659521699768       -4.19049810990503        4.83825295384482
H            2.03284015456350       -3.64753397279821        5.83413372901979
O            2.14301811666997       -2.31077722637092        2.40721181201074
H            1.99577236058560       -3.26660204779925        2.24112091752099
H            2.79330639369647       -2.31758791719732        3.14636395023234
O           -3.08145989113724        2.30294501295332       -3.30585358841281
H           -2.28435408871050        2.38915711751763       -2.74589622796076
H           -2.92598102690046        1.52071436383652       -3.85913578605521
O            0.41621727277224       -3.77440359125510       -1.15151511446206
H           -0.45714682288225       -3.95758797676691       -0.76908781540845
H            0.50431580982355       -4.39659831145031       -1.89769651851233
O            0.37092713829577       -1.19818182262078        5.37794928889246
H           -0.25198346024574       -1.82703255421874        5.76190512081102
H            0.91195897480490       -1.64057867075043        4.78216606591260
O           -1.43596740950791       -2.84160792690504       -3.50479461786663
H           -1.00367463705735       -1.93818822494877       -3.56482338238003
H           -0.93884369487151       -3.41651086645799       -4.08258984258185
O            2.98862617948488       -2.73377944680162       -1.75008255297989
H            2.86488238881835       -1.98771900491476       -2.32473571247252
H            2.17558592831831       -2.95099024593748       -1.34392512590024
37
 energy: -59.827956307915 gnorm: 0.071974240267 xtb: 6.7.1 (edcfbbe)
N           -0.00816637307327        0.26457574005227        2.41364832076661
C           -0.02903047672212       -0.52835701928174        1.15957152708193
C           -0.04439643021825        0.36443807901695       -0.07580734199915
C           -0.08041774956731       -0.49654065130095       -1.33121750392071
C           -0.18614890508250        0.30767430622217       -2.65300867649654
O           -0.23962322190760        1.55097924806806       -2.59111905647805
O           -0.24935509920495       -0.36955446198291       -3.71097308216254
H            0.82782866614187        0.85953386015963        2.42333078371555
H           -0.84041344809830        0.86222893128570        2.46970772600977
H           -0.91853966493909       -1.15799253710638        1.14796140388957
H            0.85625067244335       -1.16611052815466        1.13805326461945
H            0.84530471034970        0.99643148710884       -0.12642594724206
H           -0.91833436855445        1.02017276688791       -0.08478071160046
H           -0.93781608525874       -1.17417120312652       -1.32796215173616
H            0.81883636566876       -1.11160355391084       -1.40348959492619
H            0.02718499670409       -0.34536563813083        3.24620261659721
O            1.75881952094998       -3.63193768602031        4.91906499000968
H            0.99393941913923       -4.22299552521316        4.85594647023267
H            2.04712772600719       -3.67104742664254        5.84445759923854
O            2.19818311205733       -2.33411868314104        2.39481054952163
H            1.97805550081319       -3.25163103525148        2.25360934943826
H            2.77070609073245       -2.30068504436298        3.15269712832817
O           -3.06816772586928        2.31214463783840       -3.30463827147224
H           -2.25967881248585        2.39197031138027       -2.76034362579965
H           -2.92461033928973        1.53168109300375       -3.86230696207784
O            0.43592950240942       -3.79424772873145       -1.13496092398092
H           -0.45097057499245       -3.96397006551849       -0.76976987437539
H            0.50219519016894       -4.40753821041332       -1.89881081020060
O            0.31102345587346       -1.14521530914342        5.28700911835424
H           -0.26503564484957       -1.78239492697900        5.77614611340558
H            0.95785648277594       -1.72609927557513        4.78136035765827
O           -1.42632480519345       -2.83999469624350       -3.50312215694729
H           -0.99521812612429       -1.93377565038588       -3.55961509384711
H           -0.94626763086331       -3.40726151711013       -4.11573604945648
O            3.00002049655314       -2.72715121228564       -1.73275138381487
H            2.87271410390197       -1.99662612702322       -2.33224610300201
H            2.16695046960389       -2.96155974799336       -1.35605599733088
37
 energy: -59.818405403898 gnorm: 0.127273439010 xtb: 6.7.1 (edcfbbe)
N           -0.00623904262747        0.26653676328058        2.41668852147628
C           -0.02961261358252       -0.53023794005538        1.16603548982892
C           -0.04409932138226        0.36009981547678       -0.07138544072178
C           -0.08315680966521       -0.50009824417419       -1.32750580792443