34
 energy: -56.700028535248 gnorm: 0.000556807484 xtb: 6.7.1 (edcfbbe)
C            0.59495336257815       -0.88909880360353       -0.34017253471528
C            1.38640161803861       -0.97894600023455        0.99076398237431
O            2.54033711872672       -1.44303230960159        0.93660102438188
O            0.81089574733001       -0.60136331803322        2.04015517557187
C           -0.02871942336028        0.47896554302823       -0.56167645499618
N           -0.82053639629108        0.48074432388882       -1.81188297913510
H            1.29338914930299       -1.14370091948048       -1.13651266252667
H           -0.18490243117926       -1.65143709928129       -0.28623650949618
H           -0.67988492934467        0.71837619019431        0.27830282683036
H            0.75005842594888        1.23977360539977       -0.62742073471974
H           -1.57577618188601       -0.23384699167438       -1.75593266815019
H           -0.21150760408032        0.24618555841312       -2.61937683412856
H           -1.23459802899087        1.40121097751731       -1.96585843679381
O            1.93272452701865        3.20896768885227       -0.83191895800779
H            2.87002449658032        3.14688513954338       -0.63041580843796
H            1.62491118348546        4.05463652782557       -0.49053305543474
O           -2.41014849235213        3.36084245888467        6.09219164205124
H           -1.95087627987754        3.26097838834946        5.23334209751508
H           -3.25153421478643        3.78180343952256        5.89102446125527
O           -2.88270340843748       -1.39330344187460       -1.66235446351999
H           -3.70545733720530       -1.18780351151852       -1.20869621222966
H           -3.08278637744108       -2.02167423458995       -2.36198794498055
O            0.76810662964943       -0.12292004818846       -4.04460641125618
H            0.72820120300292       -0.92054530963076       -4.57912960787248
H            1.50216266095612        0.40805158457601       -4.36429973441341
O           -1.16070361301796        3.01853944175169        3.65216218777904
H           -1.37106699567168        2.17723012466930        3.19395693134698
H           -0.20074202271225        3.07207959356437        3.66280111243305
O           -1.56504488584691        0.58692569143639        2.44341446477828
H           -2.10828194638806       -0.03115937465724        2.94143893646266
H           -0.68706310263796        0.15289696070761        2.34711638810606
O           -2.37461791995477        1.00685470951086        7.61851042697289
H           -2.41767281377492        1.85468480795207        7.13764483650944
H           -1.47026071742391        0.69565960680009        7.51454751644764
