34
 energy: -56.563463512814 gnorm: 0.206949293474 xtb: 6.7.1 (edcfbbe)
C            0.00071700000000       -0.52255800000000        0.67804400000000
C            0.00015500000000        0.09392700000000        2.05036800000000
O           -0.00019500000000       -0.63013100000000        3.03226200000000
O           -0.00079700000000        1.43155900000000        2.21643300000000
C            0.00098900000000        0.52531100000000       -0.44326000000000
N           -0.00030100000000       -0.11659100000000       -1.75665200000000
H            0.90259300000000       -1.16292800000000        0.57888800000000
H           -0.90264000000000       -1.16023800000000        0.57901700000000
H           -0.90200200000000        1.16741300000000       -0.35103700000000
H            0.90366600000000        1.16894900000000       -0.35172000000000
H           -0.85706900000000       -0.70553200000000       -1.86752300000000
H            0.85322800000000       -0.71006900000000       -1.86779500000000
H            0.00165600000000        0.62088700000000       -2.49702600000000
O            0.79286700000000        3.82515400000000        0.28309500000000
H            1.61922000000000        3.64056800000000       -0.23040200000000
H            0.21309200000000        4.31973300000000       -0.34925500000000
O           -0.92793000000000        0.29238800000000        6.75935300000000
H           -0.54239100000000        0.67549500000000        5.93158500000000
H           -0.92413400000000        1.04295700000000        7.40529800000000
O           -3.29470300000000       -0.82475100000000       -1.43826000000000
H           -3.47230200000000       -0.35963700000000       -0.58225900000000
H           -2.74289800000000       -1.60724300000000       -1.18561200000000
O            1.11700000000000       -0.54804600000000       -5.68275200000000
H            1.61903100000000       -1.35736400000000       -5.41149500000000
H            1.81000700000000        0.15244300000000       -5.78109000000000
O           -0.47994200000000        2.85080600000000        3.82594600000000
H           -1.39877000000000        3.13324000000000        4.06384800000000
H            0.09436300000000        3.60237900000000        4.11907600000000
O           -2.02183500000000        3.13304300000000        1.92919000000000
H           -2.64943200000000        2.52922100000000        1.45788100000000
H           -1.21209700000000        3.14316600000000        1.35924800000000
O           -1.80305300000000       -0.49712400000000        4.45909500000000
H           -2.43423100000000        0.02304200000000        5.01735300000000
H           -1.93458100000000       -1.43600800000000        4.74512000000000
34
 energy: -56.603690546457 gnorm: 0.108167390549 xtb: 6.7.1 (edcfbbe)
C           -0.00070608816632       -0.52328497169625        0.65111282497466
C            0.01898801033968        0.08269050120101        2.04360563997135
O            0.07125235333867       -0.66888580301952        3.02511181921727
O            0.05117957141893        1.36398948155200        2.14003483795552
C           -0.00150301411045        0.52994439575212       -0.44886770872845
N           -0.00323081152089       -0.11399716853292       -1.77203129337419
H            0.88967901296914       -1.16198047497356        0.58048812270726
H           -0.89110689585743       -1.16179465860427        0.58688199978556
H           -0.88654685133550        1.16524434267170       -0.33937564713393
H            0.88306865353619        1.16657993119355       -0.33516109532140
H           -0.85235658632393       -0.69399909320776       -1.88152840679588
H            0.83496750313060       -0.70762915620349       -1.87597241444889
H           -0.00087288203890        0.60705727213852       -2.50889527452609
O            0.78025084542343        3.81504847865983        0.25565532796567
H            1.61324333600185        3.65995718990858       -0.22288021986663
H            0.22684129938764        4.33313337118231       -0.35462680659927
O           -0.91366642745956        0.30980672037601        6.78746057642557
H           -0.55036938073485        0.65268393945486        5.94995073416045
H           -0.91160164824404        1.05921721371929        7.40457042718865
O           -3.24255573046991       -0.80761619741234       -1.43412733379503
H           -3.48114071365435       -0.37749101768174       -0.59402480662502
H           -2.77348485033203       -1.62198539071143       -1.17163565240789
O            1.12965066732018       -0.54133679170427       -5.65243111719575
H            1.62150284104976       -1.35073129686449       -5.43045295632807
H            1.80935807443845        0.14040715329529       -5.79080864623111
O           -0.46653510170364        2.86675986613333        3.93384763394106
H           -1.38861223576918        3.16443389140581        4.06774357071678
H            0.08725411820203        3.64169794123252        4.14074825775439
O           -2.09439015394820        3.21318142175205        1.85542249045549
H           -2.64589043507425        2.52075934984588        1.44176423370472
H           -1.21102200367014        3.10971008518165        1.41562107336725
O           -1.88843716584283       -0.51275592690931        4.42887507699144
H           -2.45011670578977        0.00371579501559        5.03796248118465
H           -1.93580960451038       -1.42906939415031        4.76092425090930
34
 energy: -56.620666419221 gnorm: 0.052955196114 xtb: 6.7.1 (edcfbbe)
C            0.00335764412457       -0.53310410698744        0.62777513495701
C            0.09263122401549        0.09585414826455        2.04299714350995
O            0.15209739298128       -0.69867179249782        3.00698264503505
O            0.04318725202932        1.32054049236622        2.08241021417422
C           -0.00649844989782        0.52675317852505       -0.45135913660678
N           -0.01108457215606       -0.11020602162749       -1.78905204408622
H            0.88147750760252       -1.17281966760036        0.56498225274766
H           -0.88302547455802       -1.16535475648103        0.60127764467294
H           -0.88008711578028        1.15683855874675       -0.33167930278909
H            0.86654975171590        1.15773192044707       -0.32444061447390
H           -0.85926942535685       -0.67729391249750       -1.89549747697729
H            0.81183304107332       -0.70929707989573       -1.88421227115835
H           -0.00556931208311        0.59795076030998       -2.52427708510339
O            0.76775409818326        3.80198959407047        0.21922456052029
H            1.61629078909531        3.68538806701473       -0.21780069564819
H            0.23882313078843        4.35375758054778       -0.36411961138332
O           -0.91539269876076        0.33397658003071        6.80767305255664
H           -0.55163695436175        0.62789050705644        5.96533097615919
H           -0.89394210566685        1.08058165959690        7.40581573821072
O           -3.17843858258507       -0.80065971846158       -1.42543482874869
H           -3.48430692565123       -0.39230749234356       -0.60840383311069
H           -2.80096524613802       -1.65072797315080       -1.14974757782610
O            1.14066532848904       -0.53469614769213       -5.61723862521447
H            1.62193949293527       -1.35097763361899       -5.45410053251705
H            1.80546787409698        0.13312739970777       -5.80318880515400
O           -0.46312277003242        2.87078214552821        4.04916316260669
H           -1.38850882621303        3.19914397898656        4.04157101069460
H            0.07630131235364        3.67111389356695        4.15110941131546
O           -2.10427509616355        3.22230474651834        1.83600738811502
H           -2.64201450199384        2.54224516219959        1.44098089362883
H           -1.21522382004284        3.10258241964180        1.46136565119599
O           -1.98546227857490       -0.52158857279339        4.40196845865708
H           -2.47688884491369       -0.01081628352789        5.06326908447887
H           -1.94538183855428       -1.41857063394978        4.76561001756053
34
 energy: -56.626790349045 gnorm: 0.105604366638 xtb: 6.7.1 (edcfbbe)
C            0.00665401847141       -0.56074694796128        0.61195131608542
C            0.09037826867314        0.10427188417204        2.04010544760418
O            0.24826612508548       -0.70981547983117        2.99046460333928
O            0.06962316711643        1.32553747638146        2.05275275997608
C           -0.01320681180640        0.51084995961748       -0.45388549340549
N           -0.02411343780001       -0.10519159680694       -1.80672705218981
H            0.88536265925012       -1.19757390805138        0.54450397703794
H           -0.88154734962071       -1.18573817737644        0.60488147465504
H           -0.88796487535757        1.13906942545181       -0.32626605945919
H            0.85792362759839        1.14471264111781       -0.32201945092222
H           -0.88247726891856       -0.65741143600767       -1.91288876779211
H            0.78906323861101       -0.71630684346814       -1.90028478590245
H           -0.01116722620972        0.60468417073250       -2.54006978563863
O            0.73070181593345        3.76058578235583        0.17030743033904
H            1.62982977906951        3.73068750286267       -0.20649863076352
H            0.24927987187636        4.40088433651669       -0.38134547239539
O           -0.92156532133256        0.34838481840678        6.82978890850968
H           -0.55348511032451        0.59219011390677        5.97160769490667
H           -0.86764662669453        1.11413470418923        7.40503098839240
O           -3.08213430130258       -0.78601602486390       -1.42636983730237
H           -3.49854516224082       -0.40782395550137       -0.62590757242710
H           -2.83018350740605       -1.69647284106528       -1.12201851657713
O            1.15255771138316       -0.51595298291533       -5.53759630748909
H            1.63822971079568       -1.36321554861461       -5.49437587593003
H            1.81794708593609        0.13043580807418       -5.83134910314165
O           -0.46454687145366        2.89547888746405        4.13145045413391
H           -1.38434653711285        3.21657644585102        4.04766020617681
H            0.06837973825344        3.70048146783510        4.18113248343087
O           -2.15810758954848        3.33195575277644        1.77277630358246
H           -2.62526245625206        2.51745825938314        1.46309970508073
H           -1.18809298451453        3.05846844303933        1.54817924164636
O           -2.09038599007991       -0.53936456270454        4.35639665823758
H           -2.49737518544472       -0.03047103083860        5.09401243616597
H           -1.94476120463353       -1.42128554412628        4.76646262203327
34
 energy: -56.633216062287 gnorm: 0.073740322876 xtb: 6.7.1 (edcfbbe)
C            0.01392552426815       -0.59122412769183        0.59805697933205
C            0.09418353233146        0.10314982612576        2.03698961709524
O            0.34166873298759       -0.71648931838019        2.97674260663071
O            0.11300870197179        1.33587035949663        2.02415109814178
C           -0.01737994673044        0.49007584473084       -0.45884008832311
N           -0.03764688511758       -0.10766743377656       -1.82357971137472
H            0.89088433461402       -1.22932339356684        0.52553023160366
H           -0.88112844157390       -1.20334944174357        0.61552865180350
H           -0.89443770189576        1.11741465079084       -0.32173701256757
H            0.85176459771252        1.12990030775579       -0.32509713452656
H           -0.91085517268291       -0.64185115990274       -1.92742397113405
H            0.76513526594795       -0.73430039409989       -1.91635277041518
H           -0.01407388044718        0.60405330735901       -2.55722982658931
O            0.72862887239107        3.75374943925538        0.13219090095435
H            1.64281620300216        3.75278488945077       -0.21007703634193
H            0.26228407484048        4.42519652977416       -0.39700133273581
O           -0.93245684862375        0.37287344594273        6.85559971805872
H           -0.56084497894225        0.56800232619598        5.98155013737074
H           -0.84268123954487        1.16176931553896        7.40508873041989
O           -3.08091820245532       -0.84312499850288       -1.39948012693260
H           -3.46660716150157       -0.40786615461174       -0.64179814695191
H           -2.79949981317552       -1.70354214595070       -1.10862302878314
O            1.15589079646875       -0.51703091550105       -5.52326936808705
H            1.62845649335960       -1.36713596002615       -5.50710809645308
H            1.80559719220255        0.12971955486607       -5.83939391794465
O           -0.45494549527187        2.92621330731497        4.23554216080372
H           -1.36783277001537        3.23876048138041        4.05457988404453
H            0.06897313268779        3.74451564383048        4.20743889421991
O           -2.12696263454501        3.27363475159903        1.79592379861452
H           -2.64201651593477        2.54982326112507        1.45634456113158
H           -1.22551082518106        3.10904733391025        1.54038966706641
O           -2.14920494325180       -0.54184924986684        4.37250210041823
H           -2.54364774856241       -0.03575431448491        5.09262475667403
H           -1.98728524933253       -1.41258456833594        4.74519907477570
34
 energy: -56.635618900902 gnorm: 0.082639751246 xtb: 6.7.1 (edcfbbe)
C            0.03109990968338       -0.60449478066177        0.59167140802509
C            0.20515813815149        0.09178698354193        2.03035583673877
O            0.33957608612883       -0.70950568235507        2.96223142449435
O            0.10368042724825        1.33872919456644        2.02245823877110
C           -0.01706140062987        0.47608639731112       -0.46780388356803
N           -0.05597146884789       -0.11048311289039       -1.83518852385516
H            0.89305222382118       -1.26055931250484        0.49553059668490
H           -0.88253763404969       -1.19708233256431        0.63704879213248
H           -0.89582370554615        1.10400018363490       -0.31515532970913
H            0.85456611589884        1.11850961586900       -0.34360373516216
H           -0.94530941431541       -0.62669574247729       -1.93729893935889
H            0.73804746729282       -0.75162596209696       -1.93812168159407
H           -0.02049551445543        0.60883454488294       -2.56576501048324
O            0.75504431080847        3.81813810593436        0.12221538449008
H            1.62626470422808        3.74051976733478       -0.23205602608267
H            0.25199942267755        4.41371591032796       -0.41600004330966
O           -0.94625648815845        0.38314001666147        6.85582718281819
H           -0.55812166526130        0.56665155885127        5.98981878731573
H           -0.82590711869770        1.17547306221872        7.40044366327656
O           -2.98586298846707       -0.83721313593984       -1.40216352989773
H           -3.46520685956377       -0.41460244909828       -0.66578834122435
H           -2.82736901619525       -1.75750796097778       -1.07869040562067
O            1.17993218382248       -0.53094305231491       -5.56927429435800
H            1.62696586628930       -1.35391845112921       -5.47771915165940
H            1.80245006080518        0.13859153721523       -5.81189455191913
O           -0.47199620300487        2.97668798081695        4.25784357529716
H           -1.36206744976074        3.24111690273291        4.10689540394757
H            0.06926385985880        3.75483967710055        4.25192227425887
O           -2.12454934570983        3.28217928901486        1.78807017666266
H           -2.64928251809692        2.56808320481812        1.45828247649923
H           -1.21674830346089        3.09760227806770        1.57548714100440
O           -2.21481553842256       -0.54839876219040        4.36931917238715
H           -2.57585792327550       -0.04506390698963        5.10591164426236
H           -2.00857922079530       -1.41313056670817        4.73015226873357
34
 energy: -56.633078489899 gnorm: 0.124211360619 xtb: 6.7.1 (edcfbbe)
C            0.03810840601849       -0.59817043266386        0.59061686530862
C            0.26907518949552        0.08180067404990        2.02884121166045
O            0.34221379456760       -0.70984850087810        2.95241655191159
O            0.10459036690852        1.32504164676639        2.05477796662729
C           -0.01996172630039        0.47223689535465       -0.47687797802117
N           -0.07631104685093       -0.11073897859707       -1.84194619351608
H            0.88946380594946       -1.26766728831552        0.47693116040700
H           -0.88014034175406       -1.18654200896777        0.64762657285236
H           -0.89937663351285        1.09737448552752       -0.31184157139753
H            0.85456201483818        1.11338360902093       -0.36271218231652
H           -0.98021792803046       -0.60839878690630       -1.94301400855891
H            0.70776058344510       -0.76484222465865       -1.95678581499749
H           -0.02838910723207        0.61503066116282       -2.56790189001461
O            0.72944461824300        3.79443992705028        0.08579153810828
H            1.63562192141971        3.77577834302406       -0.22510830812233
H            0.25720990794942        4.44801540778486       -0.43178103057309
O           -0.95645809301426        0.38654034087900        6.84752014996134
H           -0.55339156927997        0.57116360979425        5.99591106365212
H           -0.81567611743287        1.17280915751661        7.39231928647203
O           -3.01790952498518       -0.90271142298231       -1.38795297964303
H           -3.41161417820088       -0.40407238661213       -0.68694806472904
H           -2.77670102081551       -1.75153414467026       -1.08653127724684
O            1.18951699111579       -0.51506328387501       -5.50317722614465
H            1.64249818347695       -1.36495712803850       -5.51028414323507
H            1.81421301129533        0.13901317135467       -5.82855317461429
O           -0.47155549125043        2.95184646237746        4.37416921246579
H           -1.38292644836700        3.27443833997591        4.03077729054167
H            0.06082755983030        3.78118863849729        4.24256588581624
O           -2.14554936433480        3.35156219747965        1.76300634010642
H           -2.64125247914579        2.56233343780013        1.48445364605200
H           -1.17419430333026        3.04618779525576        1.65025187054334
O           -2.28195428437588       -0.56226958630872        4.34548022372018
H           -2.58693185817633       -0.05773198513221        5.12949042801210
H           -2.00731383816352       -1.42217564206215        4.72343057890805
34
 energy: -56.641217281755 gnorm: 0.093931764485 xtb: 6.7.1 (edcfbbe)
C            0.03339689076669       -0.58918893134648        0.58879946942506
C            0.18175722808333        0.08434767109515        2.02474060988274
O            0.39540486123589       -0.71442280116769        2.95676309903951
O            0.15142927662285        1.30664900645951        2.05637883721956
C           -0.02209582633035        0.47275307000924       -0.48204699154657
N           -0.08625526158781       -0.11599887389192       -1.84412314373037
H            0.88780434206880       -1.25606048436560        0.48329854905028
H           -0.87004730443128       -1.18946200515158        0.64195885712273
H           -0.89824304342071        1.09448281811192       -0.31468237951963
H            0.85140968316570        1.11107679824792       -0.37212915453249
H           -0.99346298473597       -0.60445128856516       -1.94328852638274
H            0.68948235737570       -0.77527284741579       -1.96350798874400
H           -0.03353895282672        0.60744944919516       -2.56799566341774
O            0.70097746711954        3.73939317675858        0.05563850384615
H            1.66082761109718        3.81324136348363       -0.21638250665073
H            0.27165866731351        4.48543036231896       -0.43867221758964
O           -0.96200940169969        0.39757473184164        6.84724882256972
H           -0.55512108693481        0.57668565830026        5.99694379413938
H           -0.81598561721426        1.17827678817553        7.38927903353174
O           -2.93811670777425       -0.88312763887439       -1.39770267955643
H           -3.41468933853173       -0.41233759145794       -0.69989274542743
H           -2.80712417243289       -1.79746890298831       -1.05686143716570
O            1.18128719863962       -0.49913063928651       -5.43862175854174
H            1.65138663895146       -1.38035707816515       -5.54533221671152
H            1.81996533347493        0.13608809079292       -5.85360420736005
O           -0.47436679663593        2.99089336846324        4.34085429743622
H           -1.37463927082673        3.26163150525213        4.07429918806876
H            0.06723507883380        3.77937114548559        4.27888309185334
O           -2.12732542612641        3.33476064071321        1.77359447978041
H           -2.64198584061212        2.56023991346893        1.50005381432227
H           -1.18891175826002        3.05788497301889        1.63026234515237
O           -2.28447360516584       -0.56186931076559        4.35802578796884
H           -2.59985597344645       -0.05528786271714        5.11992996569169
H           -2.02849326575481       -1.42033327502931        4.71285307077204
34
 energy: -56.631993389758 gnorm: 0.139946154960 xtb: 6.7.1 (edcfbbe)
C            0.03645211438025       -0.59543047347957        0.58346095738313
C            0.11834236544799        0.08479026595809        2.02136113169010
O            0.46711648894647       -0.72829170108102        2.95676571467334
O            0.17464438951637        1.30849432170313        2.03973592523858
C           -0.02411903212068        0.47204989526986       -0.48240952942649
N           -0.10154156065908       -0.11768980410801       -1.84611036931251
H            0.89362629437350       -1.25797267930381        0.47833312998932
H           -0.86298640606409       -1.19442836576415        0.64389481421697
H           -0.89633716218778        1.09581505702018       -0.31240770262399
H            0.84908320786373        1.11097662295585       -0.38197513763272
H           -1.01657371997037       -0.59248485000656       -1.93940374791898
H            0.66209538565749       -0.78774050475955       -1.97042477736600
H           -0.04193198803475        0.60221990860091       -2.57019774303054
O            0.76839288553562        3.86981449465596        0.08117900857201
H            1.62524068436628        3.75839631319495       -0.26225169554137
H            0.24476561513039        4.43185140776734       -0.45527447033165
O           -0.97489409428395        0.41111384147885        6.84637687936998
H           -0.55310807644482        0.56976519294511        5.99208949328596
H           -0.80910081630073        1.19024048106318        7.38673105583460
O           -2.91150760243003       -0.90667236342726       -1.39464473273517
H           -3.40217669891683       -0.42804318789502       -0.71097785641623
H           -2.78274293787455       -1.80450423964890       -1.05434726262933
O            1.21673658106502       -0.54149893420580       -5.60316642786353
H            1.63925864828701       -1.34287393372708       -5.44408575717526
H            1.81048348906832        0.15456255473098       -5.78029725562136
O           -0.49427613406055        3.02825844943658        4.34337167701862
H           -1.36391872825891        3.26456882678268        4.11839301007778
H            0.06586830524599        3.78726105194790        4.28102807755226
O           -2.09844390905999        3.31817153349111        1.78418468587812
H           -2.63772742305124        2.56638193668309        1.52477771073245
H           -1.20118115784074        3.05450920562562        1.63110733650062
O           -2.34153767035912       -0.57080384613865        4.33749480503588
H           -2.60308885734751       -0.06092169681333        5.13670142903565
H           -2.02763147961901       -1.41642378094763        4.71594962353538
34
 energy: -56.640533363299 gnorm: 0.111343577532 xtb: 6.7.1 (edcfbbe)
C            0.04215820885736       -0.59804931441888        0.58596872106532
C            0.22874938554083        0.07031754127296        2.01788332617092
O            0.42562757383126       -0.72682149438305        2.94678119847577
O            0.14519599923955        1.31728067247595        2.05142380667126
C           -0.02661920499324        0.47244871968059       -0.48319851297736
N           -0.11580799499267       -0.11797300557805       -1.84341545617774
H            0.89404339001850       -1.26542452671796        0.46525526507916
H           -0.86953247150301       -1.18920324575854        0.65181016724186
H           -0.89782768825341        1.10226049973081       -0.30768922757265
H            0.85211637761912        1.11019377912093       -0.39268209511571
H           -1.03883693255504       -0.58479189109476       -1.93423933256827
H            0.64301088643866       -0.79622499464738       -1.97481482552742
H           -0.04938938553717        0.60459578583401       -2.56822885427104
O            0.75179433536030        3.84856888676119        0.06115358658573
H            1.63530681082815        3.78107053721043       -0.25550240341581
H            0.25199050444386        4.45225704111371       -0.46577448846479
O           -0.98220066809501        0.41270398821024        6.84405044914352
H           -0.55392915096156        0.56828816993355        5.99018643172142
H           -0.80332807788092        1.19569803359369        7.38271638985568
O           -2.86065338167568       -0.90031568314936       -1.40460981047557
H           -3.39700144928578       -0.43751559840769       -0.72577220495593
H           -2.79441913280465       -1.82874616402773       -1.04993304362920
O            1.21629926279051       -0.53560335154774       -5.58190991777406
H            1.64435716561718       -1.34960673788553       -5.45540771266425
H            1.81411716752658        0.15635076730465       -5.78509935661599
O           -0.48972956857415        3.00605213933920        4.41796243006973
H           -1.37470720884981        3.28440726237362        4.07064169321322
H            0.06407866665803        3.80451408348821        4.27018222884266
O           -2.08853546434336        3.31760106022436        1.79255197912440
H           -2.64145778445618        2.58256075777460        1.53490007214649
H           -1.18801708693774        3.03821821348393        1.65275885691072
O           -2.30743078089890       -0.57345523405533        4.39262901695363
H           -2.63388791005451       -0.06637932172487        5.10245739439381
H           -2.06825339211703       -1.42181637552415        4.69192622853561
34
 energy: -56.618329229327 gnorm: 0.207761218712 xtb: 6.7.1 (edcfbbe)
C            0.03956839424030       -0.59530215597536        0.59210212485676
C            0.35016186415109        0.05449902562197        2.00652491780873
O            0.36630294092555       -0.70595276723065        2.93793753064156
O            0.10955047063950        1.31762440703169        2.05685672615575
C           -0.03048002398182        0.47185242621116       -0.48608418459148
N           -0.12750686363048       -0.12135022917309       -1.83891239405540
H            0.89123456841524       -1.26225956976873        0.46250796762693
H           -0.87563488578649       -1.19223423048333        0.64967386464388
H           -0.90029640555918        1.10670441788401       -0.30546833178979
H            0.85436952895968        1.10594932388320       -0.40023143199425
H           -1.05733950444865       -0.58193830327539       -1.92747665337489
H            0.62752184840612       -0.80554662033587       -1.97640697743532
H           -0.05489771903155        0.60397630185348       -2.56429310763059
O            0.69705805070872        3.75734992984526        0.02801386476780
H            1.67209552083283        3.83500523620574       -0.23571675031735
H            0.26752088241347        4.50716270892604       -0.47644886363993
O           -0.98526291648553        0.41257818165423        6.83509988015545
H           -0.55369525446712        0.58077156365584        5.99146971762718
H           -0.80497992157477        1.19266106016008        7.37711914296533
O           -2.94885600188354       -0.97081550366322       -1.38329685946698
H           -3.33627754950231       -0.43484567522378       -0.72612300303170
H           -2.73013498631036       -1.79240104385843       -1.07875717262073
O            1.19773585797032       -0.50275909135919       -5.47608522718844
H            1.67493887883461       -1.38492610084666       -5.51131986732573
H            1.84057146486642        0.16038943428066       -5.82294761328286
O           -0.49711453169690        3.04486620439103        4.36867001028882
H           -1.37550015741944        3.27169688740862        4.11231729904600
H            0.06938159831754        3.79305152560023        4.31794668376601
O           -2.10395604141891        3.33984226620964        1.77809857694551
H           -2.65430671883110        2.59115608324805        1.53711443149495
H           -1.16551200736554        3.00558411679697        1.67327858385544
O           -2.41491091083104       -0.57936446860517        4.29543745855361
H           -2.60057104986638       -0.06394796461712        5.17222381771075
H           -2.01349741959056       -1.42561637644561        4.71213783882856
34