37
 energy: -59.764369277339 gnorm: 0.167734602658 xtb: 6.7.1 (edcfbbe)
N            0.00260500000000        0.26833900000000        2.34949800000000
C            0.00561000000000       -0.53426800000000        1.12782400000000
C           -0.01360500000000        0.36044200000000       -0.11757000000000
C           -0.00658000000000       -0.48411400000000       -1.39958300000000
C            0.00530900000000        0.34606300000000       -2.65559300000000
O            0.01598000000000        1.56658800000000       -2.61114500000000
O            0.01013600000000       -0.27058000000000       -3.85192000000000
H            0.84383000000000        0.88923800000000        2.37341700000000
H           -0.86762500000000        0.84621600000000        2.39703300000000
H           -0.88589600000000       -1.19861800000000        1.12403900000000
H            0.91775600000000       -1.17084600000000        1.11100500000000
H            0.88289000000000        1.01613200000000       -0.10393900000000
H           -0.92488100000000        0.99783100000000       -0.09978000000000
H           -0.91002800000000       -1.12912700000000       -1.41351300000000
H            0.89428700000000       -1.13411000000000       -1.40682800000000
H            0.03021100000000       -0.36918600000000        3.17705500000000
O            0.77354800000000        3.73548300000000        3.44829100000000
H            1.20779900000000        4.40578900000000        2.86286300000000
H            1.39155900000000        3.63908900000000        4.21600400000000
O            2.64208800000000        2.17677000000000        2.91479700000000
H            2.97557200000000        3.10071200000000        2.78937500000000
H            3.11789700000000        1.84825700000000        3.71872400000000
O           -2.48531600000000        2.88149100000000       -0.59914600000000
H           -2.33418300000000        3.86014800000000       -0.59943200000000
H           -3.12893100000000        2.72962800000000       -1.33624200000000
O           -0.61211500000000        4.28609200000000       -2.58758500000000
H           -0.33764100000000        5.18845800000000       -2.28590500000000
H           -1.60101100000000        4.32581100000000       -2.62105400000000
O           -1.07880900000000        1.62490500000000        5.56513700000000
H           -1.59177800000000        1.04387900000000        6.18148400000000
H           -1.76637100000000        2.17781600000000        5.11551400000000
O            1.73052100000000        3.52848600000000        0.49681900000000
H            2.31335300000000        4.17430700000000        0.96992800000000
H            1.98105500000000        2.64702100000000        0.87213900000000
O            2.03767500000000       -2.02957400000000        6.96916700000000
H            1.81230800000000       -1.36391000000000        6.27151900000000
H            1.16200500000000       -2.38451700000000        7.26552800000000
37
 energy: -59.786815642970 gnorm: 0.081380567001 xtb: 6.7.1 (edcfbbe)
N            0.00671855097668        0.27589757092125        2.35335232437820
C            0.00856408543143       -0.53565232694664        1.12545014061558
C           -0.01382914251578        0.35388629835315       -0.11703432124744
C           -0.00668348186685       -0.48964921277287       -1.39306167219996
C            0.00951791738484        0.34165211863812       -2.66733581202280
O            0.02493041998205        1.57398235041356       -2.62125562809296
O            0.00752103131233       -0.30283118993731       -3.79531838954301
H            0.83058063884836        0.90262384673692        2.38406198926485
H           -0.84328332498231        0.85799595230811        2.39424344363608
H           -0.87060455163458       -1.19147711902477        1.11802610809117
H            0.90566027463255       -1.16627721231027        1.10602904459280
H            0.85982093947641        1.01457942430129       -0.12865031167275
H           -0.90134295556083        0.99844003685679       -0.12036052014877
H           -0.89454397239978       -1.13438191072754       -1.42714171370210
H            0.87777245023687       -1.14036427026127       -1.41720397793996
H            0.02594824418561       -0.33900726821774        3.17983365699469
O            0.71630475187928        3.79531676238334        3.48800200791690
H            1.15945620815429        4.40481211972195        2.87321761646561
H            1.34968812841871        3.66232153657486        4.21501463982054
O            2.72120865793534        2.11615932059336        2.88755045527935
H            2.98983431005724        3.04677253763248        2.79197678260188
H            3.14208672836106        1.82692797159078        3.71345650150577
O           -2.53952401068808        2.88147858295091       -0.56314067331540
H           -2.32232065460426        3.83080160021527       -0.59487586295440
H           -3.11171171045185        2.72888112091725       -1.33447636257947
O           -0.61538684119164        4.32250874239658       -2.59641001819720
H           -0.34880815334241        5.20611753495865       -2.29076856389640
H           -1.58570679602405        4.34064562155746       -2.63723561084214
O           -1.09850250914814        1.59116423125549        5.53949993805845
H           -1.60328726596666        1.06724507654241        6.18498449010634
H           -1.75282414931469        2.18544864837608        5.13389878106004
O            1.73098578218077        3.53057646024559        0.51165056091516
H            2.32617964675611        4.17382066621486        0.93284256778367
H            1.99320266570642        2.66907080089905        0.88069207476184
O            2.03340101819770       -2.03885307236567        6.96907668531040
H            1.82388465192560       -1.37896538501859        6.28858101503663
H            1.17431641765335       -2.38552696597383        7.26075361415810
37
 energy: -59.795063164941 gnorm: 0.027890215523 xtb: 6.7.1 (edcfbbe)
N            0.01372737028621        0.29420538929911        2.35491829642527
C            0.01341693361418       -0.52878879850495        1.12325968580971
C           -0.01249695324914        0.35072405108807       -0.12045458096132
C           -0.00764688105554       -0.50233639906790       -1.38492581794609
C            0.01068901393881        0.32319256446213       -2.68881980891028
O            0.03905264572050        1.56460123535840       -2.62552075641657
O            0.00814643999444       -0.33863802200132       -3.75077568091419
H            0.82871216696937        0.92119277979585        2.38779114131479
H           -0.81798342759117        0.88756439109540        2.38250409940341
H           -0.86132025406961       -1.17431716325654        1.12040235001867
H            0.90295954003618       -1.15248905068402        1.10570058017469
H            0.84967176550340        1.01154782885999       -0.15752472058694
H           -0.89066150723481        0.99277796284381       -0.14015453048628
H           -0.88843845619720       -1.14212114006677       -1.43929655988511
H            0.86910557197809       -1.14924090150578       -1.42586204966989
H            0.01933715398550       -0.30010842881447        3.18483155898019
O            0.69892259170213        3.78652778975425        3.49917406413463
H            1.07818873038666        4.41522114841540        2.88643171084241
H            1.30791687472523        3.70573187421316        4.23255080789904
O            2.71267232676583        2.09308355805253        2.91681121852387
H            3.02398567752442        2.98506620661034        2.78126271406508
H            3.18173359118021        1.77266657494467        3.68181851633286
O           -2.58301227144343        2.87049968326614       -0.52979151216161
H           -2.31231334856990        3.79393825159992       -0.57235756984359
H           -3.10604030771778        2.71558412523065       -1.31895643730101
O           -0.62074859629127        4.37769772888167       -2.59849659372810
H           -0.36088364660733        5.25170466641257       -2.30139541585076
H           -1.57614579417958        4.37403175594522       -2.67443347916899
O           -1.12176244527751        1.56252871535966        5.51925205676919
H           -1.62076587231546        1.08030637120057        6.18295460984349
H           -1.73939696525947        2.19232622789540        5.13859315301307
O            1.71832167678403        3.53860855546814        0.54869296640052
H            2.36245672886417        4.18477188941718        0.87313514785795
H            2.02224663665080        2.68967189605545        0.88656488367424
O            2.03401753219112       -2.05837966293075        6.97580237883217
H            1.84775942775840       -1.39653978057228        6.30957157418319
H            1.18580033050234       -2.39667287412345        7.26466699933042
37
 energy: -59.798619991044 gnorm: 0.067441460011 xtb: 6.7.1 (edcfbbe)
N            0.02121990553893        0.32613821762185        2.35328199140781
C            0.01967230218615       -0.51029849600253        1.12713575794950
C           -0.00949083588463        0.35456014800164       -0.12591336045827
C           -0.00580358137782       -0.51280843908093       -1.37832475561363
C            0.02260533331327        0.29628587721099       -2.70788671396707
O            0.05159644496537        1.53966470577540       -2.64602552586576
O           -0.00231149503056       -0.39092939738742       -3.74853510729905
H            0.84027092904298        0.94863169353689        2.38641746950006
H           -0.80314697346767        0.93243997112098        2.36457378926909
H           -0.85825822275363       -1.15282006044089        1.13275500510626
H            0.90991141149614       -1.13451599576605        1.11526207366185
H            0.85325512576198        1.01515438777098       -0.17833831470058
H           -0.89135273461436        0.99286557327937       -0.15444449743681
H           -0.89017701228165       -1.14790914157317       -1.43688384781410
H            0.87017931646194       -1.16110529054781       -1.41842646257658
H            0.01158533544901       -0.25671714960634        3.19254465031332
O            0.64137010840271        3.79734472030447        3.53874910314002
H            0.98689578281955        4.40064052580468        2.87137597708236
H            1.27939745705504        3.75180619021519        4.25409213737264
O            2.74159803401528        2.03254874631366        2.91063221329018
H            3.03400784594001        2.93440377347084        2.78138070775937
H            3.22709807004428        1.70365681440526        3.66647470902331
O           -2.67962572941986        2.85463513660633       -0.44353741740052
H           -2.26836220882975        3.75091319692711       -0.56128367212268
H           -3.07959695266100        2.69485490431711       -1.33365921333495
O           -0.62045663309026        4.43477755092656       -2.59066174960861
H           -0.38063338282549        5.32167294100851       -2.31231271196754
H           -1.57356942691047        4.41260045796193       -2.72633026230013
O           -1.14713809641438        1.48901054858128        5.45680395923276
H           -1.65183013674932        1.10742214591290        6.20625583451739
H           -1.72327074145041        2.22600867276713        5.15310950968958
O            1.70607522222755        3.55314649388990        0.58429331041101
H            2.40586623975404        4.20460692737070        0.81337449376010
H            2.05278900597987        2.70666290888933        0.89610748762445
O            2.04523197639370       -2.09171286168421        6.98744499547799
H            1.88567876393558       -1.41144912547737        6.32952618324820
H            1.18794355298339       -2.41604627242928        7.26889725362518
37
 energy: -59.803707716729 gnorm: 0.041808441953 xtb: 6.7.1 (edcfbbe)
N            0.02991584701305        0.36380012842279        2.35155709148743
C            0.02731605835706       -0.48797019359672        1.13336602689716
C           -0.00617557905784        0.35917913322877       -0.13173923649957
C           -0.00422888771145       -0.52388992595343       -1.37068536167649
C            0.03156984670814        0.26672068924559       -2.72863679147989
O            0.06716912849358        1.51050337016622       -2.67078051131500
O           -0.01128019199340       -0.45178009258093       -3.75403384883696
H            0.85706002162791        0.97923902938498        2.38675460057570
H           -0.78722488239330        0.98614853295604        2.34341212855069
H           -0.85501938241890       -1.12936057762604        1.14886588406544
H            0.91975008846980       -1.11431778270235        1.12800952258930
H            0.85805093798199        1.02075779994122       -0.19941948113043
H           -0.89469787220523        0.99240015976662       -0.16662306742014
H           -0.89346410341801       -1.15519024591037       -1.43031617175224
H            0.87242154451029       -1.17454471590972       -1.40786984621407
H            0.00000114542154       -0.20712170089922        3.20275093446780
O            0.56772714686077        3.81687735901000        3.58900881922557
H            0.88561271115020        4.37673708612132        2.84914224704057
H            1.25153423936441        3.80131368552812        4.27572918637194
O            2.78176451328747        1.95820684746974        2.89547833517547
H            3.03782778232168        2.88295900439801        2.78669557520973
H            3.27740843122008        1.62471730938175        3.65285290028198
O           -2.64423003879671        2.82436993638037       -0.46713258700526
H           -2.29299421472300        3.71455757226508       -0.50310138004494
H           -3.11498542165250        2.66897623689161       -1.27949983009637
O           -0.62244074497401        4.49529527814334       -2.56956859352864
H           -0.40257956619684        5.40502053766276       -2.33090195487808
H           -1.57247393121458        4.46243864364418       -2.79100283430784
O           -1.16997713260510        1.49919710352902        5.47110948686706
H           -1.67342619608673        1.09351043832132        6.18588841943123
H           -1.72134633132303        2.21113145643996        5.12344027835538
O            1.72793453769705        3.57211430405928        0.59544679097277
H            2.42966827227190        4.22641705610408        0.77946252873234
H            2.07708832880432        2.72648358532722        0.90579288179569
O            2.05897341629724       -2.13319745367847        6.99876578697859
H            1.92938520424231       -1.42691466776884        6.35213130184341
H            1.18758927467877       -2.43864392717286        7.27357576926317
37
 energy: -59.806487623985 gnorm: 0.051036773741 xtb: 6.7.1 (edcfbbe)
N            0.04049097405179        0.40909722740750        2.34492253866205
C            0.03508231542911       -0.46026532385714        1.13916322089238
C           -0.00248084832952        0.36508609280590       -0.14152824459256
C           -0.00569096304315       -0.53821370402655       -1.36635765580281
C            0.01504253254355        0.23664423805351       -2.74132782062151
O            0.08833253601200        1.47824734644407       -2.69575808775906
O            0.00197005102616       -0.49730084523852       -3.75605312387597
H            0.88126193786104        1.00825573724643        2.38309782657643
H           -0.76642366441253        1.04692364251145        2.31924469348337
H           -0.84790865964601       -1.10172479564686        1.16781268961730
H            0.92699120989029       -1.08863252912971        1.14355823661618
H            0.85986480404045        1.02878345474453       -0.21867326175289
H           -0.89351498064900        0.99551918736112       -0.17770485337422
H           -0.89568842684871       -1.16889775650498       -1.41248234893975
H            0.87125079408103       -1.19009092988839       -1.39571042167958
H           -0.01219074528578       -0.14893631848864        3.20538561926087
O            0.51946431449103        3.80627129587672        3.58647211989461
H            0.82494944899809        4.36841966326340        2.86293136660529
H            1.18655964161817        3.82135694227165        4.28488647593511
O            2.78417297451642        1.90572080837915        2.89254526965476
H            3.03333179460876        2.83524891297108        2.80519347722703
H            3.30792124164280        1.54872245238623        3.62452771121298
O           -2.70579079030456        2.79608360477943       -0.40627261659386
H           -2.25883891245353        3.66178463376324       -0.48106199170316
H           -3.10126373711714        2.63924795968281       -1.27696029379986
O           -0.63997514947623        4.55415243634791       -2.55516382932396
H           -0.41580446263174        5.48300898898148       -2.38012700015721
H           -1.57589015300844        4.53406496460033       -2.81475463100644
O           -1.19221725546678        1.50910261514227        5.47948692398263
H           -1.69240893386668        1.07666567609296        6.15741182631292
H           -1.72315645605146        2.18870074277151        5.08889464901215
O            1.77719842387329        3.59999339682409        0.59600904424983
H            2.43640532157250        4.24227501777828        0.79853803204274
H            2.10169680452655        2.74721429667417        0.90044642641747
O            2.07920797008166       -2.18142130293055        7.00793057677651
H            1.97085256055282       -1.45276140510939        6.38020094147061
H            1.19642048718724       -2.46220542435575        7.27920151506708
37
 energy: -59.810557055945 gnorm: 0.061098207589 xtb: 6.7.1 (edcfbbe)
N            0.05191563101738        0.45816236166680        2.33470952299407
C            0.04293575445229       -0.42984548111977        1.14510673018676
C            0.00158347940380        0.37102907044708       -0.15354610823394
C           -0.00457233717663       -0.55439699759610       -1.36420898489175
C            0.00716992263471        0.20625846517405       -2.74678272526065
O            0.10362007975478        1.44330161868580       -2.72112422458015
O            0.00611965442431       -0.53160291928819       -3.75725180115692
H            0.91161734334504        1.03327952997018        2.37920961184939
H           -0.74233581568961        1.11083495180386        2.29256025276592
H           -0.83777601880689       -1.07342884401433        1.18813094164645
H            0.93346699176807       -1.05960034708940        1.16075235816038
H            0.86009446023546        1.03751899583144       -0.23488203063687
H           -0.89027871942221        0.99939165047676       -0.18808109043430
H           -0.89466466435355       -1.18509176265498       -1.39134645800564
H            0.87111052435718       -1.20863308002407       -1.37728404615758
H           -0.02675361946429       -0.08667650906327        3.20188953650108
O            0.47983486404429        3.78523080261938        3.57242576904172
H            0.77443157967055        4.35141841922254        2.88146152243920
H            1.11957985374884        3.84234302641503        4.28642250306861
O            2.76996863039514        1.86096848735679        2.88957316842782
H            3.02327123519402        2.78717960457922        2.82694610323293
H            3.32656443842143        1.47733740952923        3.58593793940695
O           -2.71287172200479        2.76611351199409       -0.38400808109394
H           -2.25720986860415        3.61513552216601       -0.45221496802601
H           -3.10202174385114        2.59757054732225       -1.24786930965971
O           -0.66710514778292        4.61506816955348       -2.54644084949838
H           -0.42744287963064        5.55354905764761       -2.43062599708434
H           -1.57947054759489        4.62010509147736       -2.82841623345310
O           -1.21913619864074        1.43571177875713        5.41625373700401
H           -1.72961403354918        1.09518074760789        6.16498058463738
H           -1.70071837835749        2.20948552721993        5.08468867662968
O            1.73656038127446        3.62975429463125        0.68960783408988
H            2.50582222571227        4.25689861564281        0.73506854434038
H            2.15438476374678        2.76290112953594        0.89375856114235
O            2.10249029222738       -2.22609937498882        7.02191305798932
H            2.00730130763476       -1.48484614190872        6.41322827753562
H            1.21135228148371       -2.48536592960539        7.28738267506754
37
 energy: -59.809873868261 gnorm: 0.087732191513 xtb: 6.7.1 (edcfbbe)
N            0.06008603192836        0.49864445217998        2.32597638086111
C            0.04770526966051       -0.40605302623296        1.15049308066292
C            0.00406310236713        0.37668678322791       -0.16023986126116
C            0.00293360436979       -0.56387674438845       -1.36033041146431
C            0.05468387777360        0.18354205563778       -2.74529971510129
O            0.09757350138049        1.41934263607829       -2.73780387911509
O           -0.03046062628974       -0.55616013118378       -3.75143257740988
H            0.93328177768286        1.05449921465543        2.37631465606930
H           -0.72168228208431        1.16283397093820        2.27045684946525
H           -0.83112428154611       -1.04977067886306        1.20311218136190
H            0.93770829706066       -1.03464520277843        1.17342303560228
H            0.86091513568569        1.04288074117776       -0.24756049772082
H           -0.88764126286445        1.00395381124643       -0.20110838069021
H           -0.88999378983591       -1.19138661947744       -1.38359218578868
H            0.87383447945630       -1.22272565158691       -1.35528601785224
H           -0.03911687656546       -0.03318700699078        3.19798874042254
O            0.44848358538137        3.76167624249761        3.60339388415999
H            0.70254705662836        4.29475624632084        2.84593023739819
H            1.11385792392574        3.89681548547974        4.29836884174647
O            2.75599799036788        1.82402245159217        2.88706519051610
H            3.00411523121510        2.74975603196489        2.84577016666143
H            3.32647818637311        1.42995782097085        3.56055657664244
O           -2.71464043055489        2.74654033888425       -0.36708017729879
H           -2.25520187575128        3.58064974996687       -0.44465050427230
H           -3.09846782856797        2.55823635908359       -1.22109538761545
O           -0.68888625420824        4.66702926524285       -2.52525847252260
H           -0.44535087250119        5.60191670812598       -2.43487102652741
H           -1.58642415649326        4.68789839383111       -2.88716189224240
O           -1.24011240935700        1.35485043026849        5.33948758669355
H           -1.75652321288876        1.11707121115081        6.17813873990648
H           -1.68478528072234        2.23444011612415        5.09068475385116
O            1.81609209046654        3.63888923348025        0.66122174016778
H            2.50743936495574        4.27289924897766        0.75621186880524
H            2.14099774288134        2.78196538816499        0.92988732344580
O            2.12413790729882       -2.26743241664082        7.02571115697688
H            2.03658495344193       -1.51183117497518        6.43873851142146
H            1.23011832995122       -2.50854473417474        7.29176448402393
37
 energy: -59.809192620206 gnorm: 0.094193895319 xtb: 6.7.1 (edcfbbe)
N            0.06485377011151        0.52122288666748        2.32074265146023
C            0.05030083394954       -0.39429136917570        1.15505710090953
C            0.00385057562993        0.38021833163758       -0.15969350675041
C            0.00660990841556       -0.56446854435919       -1.35583371572778
C            0.10770052609970        0.17133561381282       -2.73671209805851
O            0.08573194901225        1.40964717373153       -2.74594719535778
O           -0.06294583121508       -0.57036869629731       -3.74240825005957
H            0.94425193776230        1.06547809935178        2.37680781793749
H           -0.70726647409359        1.19111986044551        2.25756610815758
H           -0.82757985995579       -1.03695478673018        1.21128540021954
H            0.94139226271956       -1.01963709925491        1.17883904946930
H            0.86178629469759        1.04406262711323       -0.25676517228432
H           -0.88756234041631        1.00715006904083       -0.21030792658669
H           -0.88820193132458       -1.19107923674605       -1.38112048590050
H            0.87353912608297       -1.22639964558572       -1.34162438067279
H           -0.04650286352417       -0.00035893453265        3.19491823949561
O            0.42929900935346        3.75228672521703        3.63948830991031
H            0.66554923753556        4.25037201112651        2.79964037653307
H            1.12586849061872        3.92649619994995        4.30776826415390
O            2.75496910506421        1.79845329341685        2.87430310741593
H            2.98082313279406        2.73343762402344        2.85893374503775
H            3.31377193003028        1.41045865342608        3.54432952390087
O           -2.76354049531813        2.74325611718779       -0.31735628583315
H           -2.22174370172307        3.55738706170525       -0.46801718578240
H           -3.07388294865821        2.53498675068864       -1.22676112901971
O           -0.70223366441000        4.70534202318451       -2.52315870214759
H           -0.45219964298608        5.61792101318745       -2.41433722028161
H           -1.59632911279797        4.71781066541282       -2.92764631650968
O           -1.23692830492561        1.45955423060403        5.42384512816434
H           -1.73845971965908        1.05686963247751        6.10942516883166
H           -1.71548715591823        2.16581192026970        5.03567687662576
O            1.82056631792328        3.64171147761537        0.68560091025886
H            2.53629283648140        4.28403435482167        0.72809639367538
H            2.13991328370027        2.79001868161238        0.94935942625707
O            2.13282484968077       -2.29012687394827        7.03040462773440
H            2.05071057443642       -1.52432559280563        6.45778853739010
H            1.23948209485038       -2.52229131831956        7.29573780741032
37
 energy: -59.815258910508 gnorm: 0.059304131697 xtb: 6.7.1 (edcfbbe)
N            0.06980944890238        0.53618896663729        2.31975924021898
C            0.05595839889137       -0.38542797209464        1.15846225996953
C            0.00859296086825        0.38354653380857       -0.15911638049438
C           -0.00119321156751       -0.56534886799689       -1.35139845232247
C           -0.00668237970593        0.16379331315041       -2.73758476232972
O            0.13130748054094        1.40396804512403       -2.74959295647765
O            0.01064516720310       -0.58739205451014       -3.73924064833896
H            0.95352912327539        1.07481699967263        2.37887637038466
H           -0.69773355115113        1.21501131939342        2.24517008762797
H           -0.82502825141631       -1.02660275899972        1.21853661670917
H            0.94769380826568       -1.01222375445606        1.18432633561955
H            0.86593097879514        1.05013819939694       -0.26554213116289
H           -0.88711012567447        1.00611391650802       -0.21066501173256
H           -0.89078004051776       -1.19782822003600       -1.36212700921431
H            0.87238355798421       -1.22285877190944       -1.35114006750113
H           -0.05319854127373        0.02098177553364        3.19955956771957
O            0.42225785322791        3.75226187286084        3.59803065838992
H            0.69947171715558        4.28075992588529        2.84820281531710
H            1.06092219541004        3.88476105877721        4.29765778854519
O            2.75108810877174        1.78105889949980        2.86368236626687
H            2.96134873945692        2.72745870810184        2.86861178171294
H            3.31982761379419        1.37915251693133        3.52789077273643
O           -2.72404582732812        2.73003288451437       -0.34596868910810
H           -2.23776751660737        3.54943991296206       -0.45042659147645
H           -3.09361784602849        2.52178985687044       -1.20064572330113
O           -0.71751206766985        4.72727069261613       -2.54184197831433
H           -0.44826901064554        5.64127210982549       -2.43581919318342
H           -1.60457973293648        4.73326889175075       -2.89932484686816
O           -1.24324557680359        1.45049748168972        5.41863998553529
H           -1.74972600382626        1.05162948750856        6.09778947105888
H           -1.70700039372023        2.16410354342397        5.02659629043671
O            1.79578007617694        3.66456521413378        0.72622454200824
H            2.54727765101195        4.28270675765328        0.73205141082116
H            2.17335848432987        2.79035799281549        0.91820093314853
O            2.13913350854232       -2.30928327198947        7.03556155441493
H            2.07114979508716       -1.52824717789522        6.46895840145849
H            1.23924740920723       -2.53559302718696        7.29557019170054
37
 energy: -59.817716552724 gnorm: 0.076236912738 xtb: 6.7.1 (edcfbbe)
N            0.07742011097553        0.57348204059938        2.31537895817232
C            0.06116717825692       -0.36139913735549        1.16456259840595
C            0.01289793395038        0.39138098682175       -0.16346356196819
C            0.00762518693225       -0.57197238654322       -1.34537514046290