34
 energy: -56.599291609150 gnorm: 0.181236120014 xtb: 6.7.1 (edcfbbe)
C            0.00071700000000       -0.52255800000000        0.67804400000000
C            0.00015500000000        0.09392700000000        2.05036800000000
O           -0.00019500000000       -0.63013100000000        3.03226200000000
O           -0.00079700000000        1.43155900000000        2.21643300000000
C            0.00098900000000        0.52531100000000       -0.44326000000000
N           -0.00030100000000       -0.11659100000000       -1.75665200000000
H            0.90259300000000       -1.16292800000000        0.57888800000000
H           -0.90264000000000       -1.16023800000000        0.57901700000000
H           -0.90200200000000        1.16741300000000       -0.35103700000000
H            0.90366600000000        1.16894900000000       -0.35172000000000
H           -0.85706900000000       -0.70553200000000       -1.86752300000000
H            0.85322800000000       -0.71006900000000       -1.86779500000000
H            0.00165600000000        0.62088700000000       -2.49702600000000
O            3.40137500000000        0.19000400000000       -0.11255800000000
H            3.33449600000000       -0.79790400000000       -0.12578800000000
H            3.94493100000000        0.41257300000000       -0.90981800000000
O           -1.00664500000000       -3.99689900000000        3.63709700000000
H           -1.88854400000000       -3.54880400000000        3.68267500000000
H           -0.48619300000000       -3.59625600000000        4.37819700000000
O           -0.32115900000000       -4.52766000000000        1.08460500000000
H           -1.05450900000000       -5.10128600000000        0.74731800000000
H           -0.77988000000000       -3.73769700000000        1.46689600000000
O           -0.06663900000000       -4.13682900000000       -1.39796500000000
H           -1.04474000000000       -4.15633900000000       -1.55141900000000
H            0.29647600000000       -4.81117500000000       -2.02567400000000
O           -2.55036800000000        1.06852200000000        3.44514700000000
H           -2.83621500000000        0.20921500000000        3.84576200000000
H           -3.13296900000000        1.17845400000000        2.65198600000000
O            1.46776300000000       -2.43940300000000       -3.28203300000000
H            2.30753700000000       -2.56390000000000       -2.77223800000000
H            1.14011100000000       -3.35888900000000       -3.44877100000000
O            1.75648200000000       -2.90504900000000        1.59674800000000
H            1.46751100000000       -3.28504500000000        0.72915900000000
H            1.24128000000000       -3.41206200000000        2.27359300000000
34
 energy: -56.623655108223 gnorm: 0.090523441529 xtb: 6.7.1 (edcfbbe)
C           -0.00447745963590       -0.50207817576894        0.66797823699577
C            0.00851120437802        0.10675446234324        2.06071768399971
O           -0.01435763768624       -0.64058885059263        3.04892673317338
O            0.02895475334419        1.39547513626399        2.16611140479645
C            0.00173483111753        0.53441525542805       -0.44684087804855
N            0.00006136644414       -0.11669707563526       -1.76864174790530
H            0.88214883262589       -1.14398333393840        0.60271257541892
H           -0.89090247526636       -1.14474697231911        0.59229277077828
H           -0.87979789528081        1.17603823495588       -0.34073951036642
H            0.89146785510151        1.16332091556014       -0.33325422643039
H           -0.84160619165487       -0.70199129831985       -1.87650450942686
H            0.83209926919410       -0.72035405170041       -1.88154203852178
H            0.00750938543806        0.60051258515701       -2.50929503455275
O            3.36816591496150        0.19072628201947       -0.15474647660903
H            3.35957794412469       -0.78322337266234       -0.10390813852268
H            3.96283583256063        0.39995189207652       -0.89908899011461
O           -1.02037391944745       -3.99327699466958        3.66643437107957
H           -1.88160064863898       -3.54877409547143        3.70595364489741
H           -0.49198969658557       -3.58410575388667        4.36932704406491
O           -0.34308577696659       -4.54477274458029        1.08085017159694
H           -1.06740571432587       -5.11037416629885        0.77260579513757
H           -0.77191504821890       -3.77155215632447        1.48486877191539
O           -0.06332158786829       -4.09266472914707       -1.48294707717325
H           -1.03166505695830       -4.16554605462458       -1.56181700335437
H            0.28119837166839       -4.83728401819583       -2.01229132313453
O           -2.59868241004654        1.07662891585826        3.46283543475187
H           -2.84066936249169        0.21606191349318        3.84438690940550
H           -3.14638177046436        1.16900923239967        2.66468821188558
O            1.47465329535298       -2.42425507120233       -3.25637422237865
H            2.31023717912220       -2.57380067575827       -2.78661140224787
H            1.14232324159056       -3.31538244119840       -3.45396410563439
O            1.80069855796218       -2.93625121269993        1.57899728320490
H            1.45812652780397       -3.31662004095833        0.74762415006880
H            1.26802928874631       -3.37700153960192        2.26417349125075
34
 energy: -56.633389734469 gnorm: 0.027713075900 xtb: 6.7.1 (edcfbbe)
C           -0.00783697293422       -0.49876232768091        0.65678060982195
C            0.01004538233809        0.13021246801277        2.06755141127502
O           -0.04143454544830       -0.65753801300483        3.04166830723461
O            0.06385458567522        1.36563905756847        2.14015418897814
C            0.00822989041593        0.53844063954199       -0.44441817914028
N            0.00341347248185       -0.11761725786484       -1.77479281731077
H            0.87326957554267       -1.13708520887748        0.61882139815844
H           -0.88785335743156       -1.13810678226917        0.59862165752355
H           -0.85946928631200        1.18346133273086       -0.34097179187959
H            0.89650674388790        1.15098018520265       -0.32401310919465
H           -0.83001264530769       -0.69881304954828       -1.87788650378582
H            0.81530187358671       -0.73788491325614       -1.88874256465436
H            0.02024892484982        0.58427182805634       -2.51737086101479
O            3.35281646803107        0.18979085563085       -0.19225113929128
H            3.37339690110758       -0.76869061836629       -0.08132104182020
H            3.97841221019613        0.38891809508409       -0.89867278603013
O           -1.03601992146615       -3.97767887631756        3.69344880843120
H           -1.88945565108079       -3.54933176930530        3.74558737931964
H           -0.49066844698235       -3.56665443052218        4.36380371021279
O           -0.36784845668359       -4.55781903863237        1.03922352119374
H           -1.09569177202653       -5.14281659770543        0.81443228326753
H           -0.76160075389094       -3.82259499730830        1.52777233043105
O           -0.06801294467181       -4.09288185698673       -1.53734014637312
H           -1.02017549864022       -4.15103011363320       -1.59774340395711
H            0.27087253525490       -4.85388829607305       -2.01549272250809
O           -2.66148820681262        1.09245512983571        3.48477882455548
H           -2.84492190889080        0.22415932989937        3.85456107160361
H           -3.18141717222963        1.16289109830087        2.68037757837391
O            1.50384581392449       -2.38149607717667       -3.24819154692927
H            2.32277851609445       -2.57243119420315       -2.79055763840999
H            1.11998808431086       -3.23922402390238       -3.44490268043749
O            1.83508853622261       -2.95078069041188        1.54265582151472
H            1.45803573739596       -3.37296966946191        0.75564432943277
H            1.32790328949316       -3.34155421735431        2.26170370140970
34
 energy: -56.636856479516 gnorm: 0.090670492981 xtb: 6.7.1 (edcfbbe)
C           -0.01562225176196       -0.50834626955892        0.65380877455410
C           -0.00046044617489        0.14680799592583        2.07319217072031
O           -0.07629716471716       -0.66144352560327        3.03552658365769
O            0.11647698096431        1.37185542925378        2.12953310002502
C            0.01688934206595        0.53001898227856       -0.44366355418789
N            0.00732984524601       -0.12345787339857       -1.78030845305166
H            0.86572939452552       -1.14480128757775        0.63289205498024
H           -0.89905040285363       -1.13934661926591        0.60178129778610
H           -0.84299260752312        1.18705399060889       -0.34762755212803
H            0.91333388207471        1.13037008894131       -0.32166321630477
H           -0.83098619565994       -0.69699488065665       -1.87975098129968
H            0.80670212798851       -0.76150996368715       -1.89430130160874
H            0.03635507883974        0.57385611542755       -2.52580715655759
O            3.28961064544394        0.19915409279254       -0.26837967898373
H            3.40526500750053       -0.75754516389969       -0.04119220209172
H            4.02526558473730        0.37092382837328       -0.89915274087585
O           -1.05668344767459       -3.97452643089798        3.71703574506876
H           -1.90897422864990       -3.54791241164708        3.79154895606397
H           -0.47372905236131       -3.53873363442151        4.34471635636088
O           -0.38844296790811       -4.56668144675680        0.98912261971546
H           -1.13314755043302       -5.18080465264615        0.86738557516274
H           -0.74636685412065       -3.87912636250441        1.59723760077068
O           -0.05410435667164       -4.00786333229521       -1.67324148994184
H           -1.02211994081466       -4.15868141437319       -1.60080820221683
H            0.25554542471167       -4.91906844808695       -1.99098429473971
O           -2.74996827804157        1.12857753319715        3.53012992243807
H           -2.83308216639360        0.21732497749915        3.86568771991929
H           -3.22268785142215        1.14079403452015        2.68673504635578
O            1.52908710905846       -2.31512984943781       -3.21475618057818
H            2.36162242864190       -2.57813583969626       -2.80339519377737
H            1.08258865127974       -3.14114578047693       -3.44575084924949
O            1.90666979874707       -2.99342234837792        1.49304981873511
H            1.43579627207722       -3.44339068130473        0.75680994282262
H            1.39054918927986       -3.27509885224415        2.27750776245797
34
 energy: -56.642211062162 gnorm: 0.059971974724 xtb: 6.7.1 (edcfbbe)
C           -0.02170831184764       -0.51761973456007        0.65328170287108
C           -0.00361735864845        0.15393596895584        2.07763575512176
O           -0.11263394635250       -0.66049276527918        3.03334858050367
O            0.16242259451937        1.38628270843026        2.12453618662610
C            0.02778401517179        0.51871335543123       -0.44671789022958
N            0.01355877497965       -0.13097825089254       -1.78692464779021
H            0.85888657379807       -1.15578997515037        0.64245213835807
H           -0.91104189761386       -1.13982323712858        0.60308541580545
H           -0.82540794016972        1.18996726709037       -0.35619244363150
H            0.93410076021723        1.10877933780550       -0.32308876541976
H           -0.83342843946716       -0.69588703880259       -1.88411371540737
H            0.80491203352470       -0.78401734781409       -1.90106416977913
H            0.05423657126796        0.56583279871727       -2.53474981625599
O            3.33564905393101        0.18954495579415       -0.25829908424461
H            3.37937458333902       -0.74711798214595       -0.05302983332031
H            4.01558293577780        0.36935111491777       -0.91298374325739
O           -1.07430147806255       -3.96760935281319        3.72829111109248
H           -1.93110126061730       -3.54604542823992        3.83101882759825
H           -0.46184300752045       -3.51266341709597        4.32480684971157
O           -0.41153425738393       -4.59708283779535        1.00249532697141
H           -1.15640497349083       -5.21263436183683        0.90578349290939
H           -0.73996032399005       -3.91743692830932        1.62859556831741
O           -0.05581166807477       -4.07067889681903       -1.67385248781423
H           -1.01340352445024       -4.13447706874868       -1.63966781099477
H            0.25679676665241       -4.88040167556802       -2.06761016077805
O           -2.81028085357151        1.14769798673428        3.55783329802485
H           -2.83695027863414        0.22146520531990        3.88291104121857
H           -3.26182885795823        1.12773789533250        2.69694945741840
O            1.55066172310277       -2.25362297623943       -3.19031947506887
H            2.39078310790625       -2.57481812573370       -2.81094984768279
H            1.04616969809528       -3.05480111844829       -3.43141220708678
O            1.93935673594353       -3.00875218058466        1.45992677108603
H            1.43910425305926       -3.48572493416522        0.75507345903512
H            1.44197919656763       -3.24726296035335        2.27586911609422
34
 energy: -56.643404419350 gnorm: 0.066432784641 xtb: 6.7.1 (edcfbbe)
C           -0.02098735439633       -0.52539233769227        0.65242652590436
C            0.01727522295695        0.15248993741393        2.08070003899861
O           -0.15313464912808       -0.65993655121559        3.02838994117226
O            0.17446654359664        1.38737337769029        2.13224679559209
C            0.04426729553890        0.50458987490933       -0.45415223854734
N            0.02237275095419       -0.14312357622601       -1.79433585748450
H            0.85463266440081       -1.17162412950269        0.64442093569459
H           -0.91967461687318       -1.13690718590234        0.60592533638102
H           -0.80098993706572        1.19195946108894       -0.36871961147544
H            0.96237987401346        1.08234493248065       -0.33207855798492
H           -0.83758987939037       -0.69429416841332       -1.88943552592059
H            0.80614990175136       -0.81214019703801       -1.91221945386594
H            0.07627514453622        0.55554726645624       -2.54269578764640
O            3.32530550987158        0.18560777667412       -0.29078780552447
H            3.38153176172131       -0.73789116197486       -0.03017020565844
H            4.04100843549243        0.35384608231343       -0.91297833444508
O           -1.08152867985638       -3.93051972761533        3.71276471326624
H           -1.95943225799864       -3.54987790039440        3.87069609929099
H           -0.47188802797733       -3.49525392361894        4.31405421406264
O           -0.43680797103637       -4.63305404412918        1.05429799220578
H           -1.15268346161764       -5.24036114652974        0.92242423480020
H           -0.74673369801671       -3.95024437411127        1.63464454628931
O           -0.05153285690933       -4.08112173830189       -1.72947509071741
H           -1.00661948487147       -4.12776955657722       -1.66128696757667
H            0.25152674763252       -4.90611113560480       -2.08427195649708
O           -2.80667415768517        1.10927478113007        3.53450340311977
H           -2.90272128782662        0.26432493510442        3.93219604847634
H           -3.32047492505669        1.14615426497512        2.73735583630181
O            1.57311491056997       -2.19754844815145       -3.20472397304949
H            2.38412624480014       -2.50340586839702       -2.79931240367294
H            1.04397168374924       -2.99100005762262       -3.36796093250180
O            1.89042931260922       -2.96442871391006        1.45337925366456
H            1.51416850824776       -3.48721889939879        0.74886407672295
H            1.49657173326339       -3.31071784790235        2.22823271062843
34
 energy: -56.649504849711 gnorm: 0.051212091931 xtb: 6.7.1 (edcfbbe)
C           -0.02233117827701       -0.52811873426857        0.65225399685637
C            0.00980496795352        0.14693093725359        2.08252879809293
O           -0.16326132063051       -0.65942807892686        3.02630594847737
O            0.18352109262597        1.37342103230746        2.13892504245710
C            0.05518448070422        0.49433309655000       -0.45949004731338
N            0.02665264570358       -0.15546397199970       -1.79801147784482
H            0.84845878374447       -1.18093474532155        0.64964563092555
H           -0.92379689647015       -1.13524539293836        0.60744196345993
H           -0.78183925844770        1.19135050038832       -0.37617848110278
H            0.97971027339928        1.06106963733961       -0.33809736431336
H           -0.84087426435450       -0.69454024623764       -1.89268149405972
H            0.80367232675663       -0.83418999963583       -1.92226917498306
H            0.08893657509775        0.54308637712748       -2.54517464822370
O            3.32360685620203        0.18544408697037       -0.31765935668680
H            3.37540087266344       -0.72735652621106       -0.02410891827298
H            4.05275476916715        0.34412214139049       -0.92385247321972
O           -1.09231509410507       -3.91612534876800        3.70992471140303
H           -1.97227375248178       -3.55140830478209        3.89364688220074
H           -0.47843205099472       -3.47497021096142        4.29760614631610
O           -0.44743171656935       -4.62491771353569        0.99122122682247
H           -1.17804540731365       -5.27367912167355        0.97571444377492
H           -0.72637136006217       -4.00401553045629        1.71558374268533
O           -0.04240750157001       -4.05360156497383       -1.80397479088441
H           -0.99877227271780       -4.11342469046091       -1.67730351789310
H            0.23976493036367       -4.94564555275713       -2.08464362836130
O           -2.87395813642982        1.14302614948842        3.56077500480590
H           -2.88002942398658        0.26957146544801        3.95357804431995
H           -3.37222560722863        1.11692436081965        2.74482910377070
O            1.58764214701065       -2.13976440687355       -3.19292358013342
H            2.39780490319443       -2.45731658175486       -2.80557778203451
H            1.02930485704477       -2.91954371178159       -3.31281925626277
O            1.90666281307668       -2.96444753122084        1.40011244908108
H            1.49811995014210       -3.55449754785302        0.74464138189382
H            1.57746299678935       -3.27707427168307        2.24294947425078
34
 energy: -56.642120458892 gnorm: 0.134344453748 xtb: 6.7.1 (edcfbbe)
C           -0.02443715778408       -0.52880918360435        0.65266706724939
C           -0.02148877242472        0.13394611005771        2.08071041141902
O           -0.16466206331666       -0.65626017346576        3.02378653977418
O            0.19833565669470        1.35167500097726        2.15071433908689
C            0.06605965664178        0.48540412444493       -0.46460711626745
N            0.02892219605392       -0.16937709094782       -1.79795841657158
H            0.83989737131315       -1.19124819960198        0.65383718069870
H           -0.92770208643219       -1.13290786648590        0.60396558203582
H           -0.76238113777751        1.18988168831823       -0.38269933990572
H            0.99564648859996        1.04113411328643       -0.34629370875946
H           -0.84560022810568       -0.69447257653228       -1.89379039400173
H            0.80119579312233       -0.85345648899887       -1.93570067327614
H            0.09648392071924        0.52981985659479       -2.54218408725000
O            3.24333849123947        0.19816699205238       -0.40607180170696
H            3.40446456260175       -0.71526252571177        0.01692642617566
H            4.10672759776213        0.32123986999112       -0.92325370481104
O           -1.11807592137077       -3.93060085310802        3.73066858556535
H           -1.97564331126920       -3.54417426179228        3.90200779784669
H           -0.48413922577039       -3.43479925322856        4.27002328501633
O           -0.46673964633806       -4.67011789075761        1.05037833506096
H           -1.17531565754074       -5.29316650593182        0.97361067766039
H           -0.71962844446057       -4.01755057430866        1.69086787014964
O           -0.02955180019381       -4.04147876244093       -1.85790516133405
H           -0.98301784035038       -4.09876106411821       -1.68411312032094
H            0.23565944762001       -4.95242683972318       -2.10506641123220
O           -2.99045493245159        1.22018117449629        3.62495256017842
H           -2.81592294922441        0.25753583557879        3.96128251988592
H           -3.41798651591317        1.05700903719810        2.73296992625178
O            1.59426284603257       -2.07138189956077       -3.14704231998649
H            2.43655253182308       -2.43278188077282       -2.82989191589228
H            0.99276756571410       -2.82905465988325       -3.23948177482190
O            1.98431736739539       -3.02131888223688        1.34105006325142
H            1.44624198886048       -3.61230748080660        0.73944092574987
H            1.64197520853045       -3.21070888896779        2.26911785308643
34
 energy: -56.653736876579 gnorm: 0.060509305233 xtb: 6.7.1 (edcfbbe)
C           -0.02360363653999       -0.53067286220017        0.65098410454287
C           -0.01551534940395        0.13282655331832        2.07925449650486
O           -0.18619770067459       -0.65924687355641        3.02284297272148
O            0.20546998672721        1.35346073265727        2.14922870853035
C            0.07256457886067        0.48390296441703       -0.46599536701123
N            0.03211285615439       -0.17113067711493       -1.79897116675771
H            0.83769560528368       -1.19682735377405        0.65315940812220
H           -0.93041703297454       -1.12991928982777        0.60051594166801
H           -0.75279213721282        1.19287221438377       -0.38567237086642
H            1.00536252487335        1.03511161617331       -0.34933032613760
H           -0.84441272401853       -0.69261203789104       -1.89488988949562
H            0.80305162846761       -0.85790382151450       -1.94097258182190
H            0.10213262209564        0.52777303212655       -2.54322358557250
O            3.32856928678764        0.17570953776938       -0.35449988423293
H            3.36885452546079       -0.71616476504728       -0.02652760802177
H            4.06134258757063        0.33024716774720       -0.94132389192523
O           -1.12339273541086       -3.92464463522687        3.72799890109530
H           -1.98348805903542       -3.54477785456417        3.90706936114049
H           -0.48812730356289       -3.42226705291952        4.26084514022008
O           -0.47186554222538       -4.66669581958407        1.03140421975407
H           -1.18147541803926       -5.30678453100594        0.99250377145444
H           -0.71331366871092       -4.03536504685617        1.71405901485583
O           -0.02429725045433       -4.03005501459751       -1.89129385493492
H           -0.97895293344694       -4.10528210553919       -1.68717954850660
H            0.23676379456747       -4.95834996930584       -2.10832516658129
O           -2.94919495042314        1.16537556335457        3.59582993670034
H           -2.88020270471172        0.28158649106563        3.98723764966630
H           -3.43812995999592        1.08042627488035        2.76762438988733
O            1.59517959481819       -2.05177910611594       -3.12855801470535
H            2.44725299088108       -2.41973429823120       -2.83247789975122
H            0.98440328240180       -2.80541816490412       -3.20805784441973
O            2.00261902662485       -3.04041363154799        1.34856461029462
H            1.45990021165764       -3.58669132939527        0.73976865552374
H            1.63220500360870       -3.22298590716242        2.24132571806483
34
 energy: -56.621215380544 gnorm: 0.229425144394 xtb: 6.7.1 (edcfbbe)
C           -0.01983678674293       -0.53678421312564        0.64909091769517
C            0.02750869551971        0.13083388103018        2.07817727956228
O           -0.23911920644656       -0.67017984779222        3.02345306431463
O            0.20020045782825        1.35856957215208        2.14519936398070
C            0.08195766483775        0.48079145176673       -0.46635902689806
N            0.03482133707095       -0.17144531551801       -1.80067889488274
H            0.83527736028860       -1.21010403205191        0.64822336301863
H           -0.93579602655935       -1.12475082608230        0.59745562922583
H           -0.73839221825543        1.19826045100684       -0.38572006880328
H            1.02006911809552        1.02587686649546       -0.35210138041576
H           -0.84443613768832       -0.68930068621736       -1.89582093137457
H            0.80457004772962       -0.86353460072495       -1.94925289602169
H            0.10808049147385        0.52745493498900       -2.54559223112697
O            3.25064352004651        0.17918970783869       -0.42363755989330
H            3.40250622521699       -0.71508891687282        0.02091759279918
H            4.12016783574394        0.30170137674569       -0.92253117091228
O           -1.10766956617713       -3.87872312264307        3.69244659388942
H           -2.00368576539230       -3.55887856844117        3.92451413968298
H           -0.50471679930679       -3.42246409197002        4.26131076069607
O           -0.46864214780098       -4.60905722162349        0.89767034089695
H           -1.20320345488375       -5.34617004443422        1.07152888465129
H           -0.69738720403144       -4.09108206334730        1.83087036983899
O           -0.04228260351840       -4.12456237300259       -1.84001439341015
H           -0.96777307807408       -4.09033153869530       -1.75091976809684
H            0.25911861635036       -4.89062665869840       -2.17381144584139
O           -2.93373056246327        1.13401071770719        3.58032054462301
H           -2.92669501448798        0.31371901405090        3.99820293085522
H           -3.45363062865622        1.10051977813948        2.79638656370084
O            1.59877933234459       -2.04757638975345       -3.13432136115104
H            2.42095613829370       -2.36502737168647       -2.80573951226254
H            1.00751750090353       -2.81069271186972       -3.15031199197709
O            1.97188310504403       -3.02663427675299        1.37968712593620
H            1.51951182093545       -3.53453178129968        0.74446863501574
H            1.61352893276190       -3.28981109930658        2.16980653269030
34
 energy: -56.655856004537 gnorm: 0.044509390753 xtb: 6.7.1 (edcfbbe)
C           -0.01825838422855       -0.53594676303794        0.65067141579880
C           -0.00002292935931        0.12238882711100        2.07412197300330
O           -0.22517280342947       -0.66489700199369        3.02188559018696
O            0.20831550034489        1.34892384885124        2.14833976312031
C            0.08384049543699        0.48008171428124       -0.46661423323794
N            0.03378015937653       -0.17303770101892       -1.79867193739357
H            0.83444891431387       -1.21414921889415        0.64742732446540
H           -0.93399148701215       -1.12434169826860        0.59617884892726
H           -0.73508581232587        1.19693698176429       -0.38296090384647
H            1.02162413278496        1.02356926862970       -0.35256148517836
H           -0.84591061248011       -0.68840095227429       -1.89505966090350
H            0.80406338824954       -0.86246768176587       -1.95084538753097
H            0.10562344359900        0.52686131782221       -2.54231942108111
O            3.30037349555093        0.17435380760311       -0.38814279100267
H            3.38074283390375       -0.71119242125825       -0.00540172742642
H            4.09049045076621        0.31139704633283       -0.93315261200039
O           -1.11361073535728       -3.88470240484525        3.69262404027553
H           -1.99950062463605       -3.55977473043414        3.91982304287997
H           -0.50287593810481       -3.41534924298799        4.25598742587090
O           -0.47892032051157       -4.65944255541757        1.01103425900253
H           -1.18535302815193       -5.31975021056987        1.01951542263162
H           -0.70546474837706       -4.07112345912501        1.77482839852922
O           -0.03269575690784       -4.07098970620250       -1.87916515809412
H           -0.97224963196067       -4.08787515329248       -1.74523274013499
H            0.25853039921929       -4.93558575440436       -2.15317183224877
O           -2.95443436928848        1.16366450244706        3.59286317989944
H           -2.90390593218442        0.29756404604463        4.00437294824322
H           -3.46729372202880        1.08731797998299        2.78452673357974
O            1.59284150981162       -2.04091841258079       -3.12883920756016
H            2.42902752385912       -2.36001251956780       -2.80843124367109
H            1.00456373503233       -2.80806920852623       -3.13749779418095
O            1.99222529322034       -3.03195039575434        1.35639760244601
H            1.49881371091602       -3.55857824540091        0.72785362841463
H            1.62554284995911       -3.27093390323702        2.20253453822235
34