256
 energy: -431.730513932458 gnorm: 0.000538319004 xtb: 6.7.1 (edcfbbe)
N           -1.01807019824645       -0.39798421602856        1.13995492930899
C           -1.75798248200636        0.77382879664611        0.65598018558139
C           -2.55407736959743        0.47878121337649       -0.60687616842280
C           -1.68102020693402        0.07506603201536       -1.79045469994440
C           -1.48837891395037       -1.41891807025116       -1.99389141420713
O           -0.45194190076393       -1.79686773903810       -2.58768758537125
O           -2.38086344046717       -2.22374083484530       -1.61037578785084
H           -0.76533141445163       -0.23778842316148        2.15593776928858
H           -1.59922207971131       -1.23532594503934        1.08706273370235
H           -2.46554799984226        1.08786699721616        1.42229522458856
H           -1.05864651183184        1.58347197793070        0.45821188567591
H           -3.12340052804835        1.36987877677723       -0.86779011046621
H           -3.28368119772578       -0.30863317354675       -0.42118725252781
H           -0.71208192726195        0.56700741892103       -1.75532750425816
H           -2.17178085923919        0.38219637260330       -2.71631842952434
H           -0.12367648843786       -0.56392697330646        0.62916300378574
O           -2.37743363655749       -5.88343638144107        2.60280758984730
H           -3.15968544026441       -5.38890228264670        2.90509137860793
H           -1.60809750633548       -5.43651050994406        3.02761153293477
O           -0.29070347839168       -3.87871063410409        0.05824730338502
H            0.21081905502071       -4.70441096622423       -0.09353948123077
H           -1.22360357793928       -4.13230702795800       -0.02310297896741
O           -2.17320012403045       -4.25994488879220       -7.47168882134348
H           -1.95935376426947       -3.32222005230486       -7.67518072898535
H           -1.37120240070292       -4.61279059321949       -7.04945101184824
O            2.23025379165058        1.37838154391454        1.82469650614362
H            2.99498838884763        1.88510302702094        1.54470807854310
H            1.50467663619737        2.01295389236977        2.00514163090003
O           -2.91563554461440       -2.53681180831933        1.36534250355839
H           -2.93422903731966       -2.73195354905432        0.42121593112742
H           -3.46624531940005       -3.21848216307601        1.79949314106589
O           -2.38727426399756       -2.25858571026107        7.14286000759968
H           -2.21033933342037       -2.21943151149717        8.08337733181050
H           -1.57870075930486       -2.64587249274834        6.73245246403409
O            0.49838694381194       -0.08835243915268       -8.59244483352663
H            1.11962426848934       -0.33502714469707       -7.88348704139311
H            0.03597491670851        0.70764286513271       -8.25082228367583
O            0.76615181795232       -1.85239470486408        8.41435166295657
H            0.57662875086603       -2.47792861155434        7.68852172577577
H            1.09786711688196       -2.37817997109622        9.14307742428244
O           -0.09347182327562        2.95940731722582       -0.97364392837836
H            0.80625199394117        2.58858053017670       -0.98273028718138
H           -0.22198388123318        3.31858804154926       -1.86260642599528
O           -2.67417625500943        0.28746552905561        6.05124315066961
H           -3.43157869079654        0.34609764544502        5.43420122937729
H           -2.71896073706758       -0.60921141895160        6.42964973828387
O            4.21850857453980       -1.06765944751951       -4.94131639379390
H            4.07019897722923       -1.29457270148481       -4.00546520853705
H            4.45300944411285       -0.12306963110307       -4.94262820904020
O           -0.18138768753366        6.43383169973529       -1.94409044169046
H           -0.57946102338241        6.09664730175318       -1.11724880109052
H            0.77699608102805        6.43805891036069       -1.73312716677286
O            3.68180396051128       -0.87199243937421        5.52774662483298
H            2.78165086262599       -1.16434607043755        5.21735395642806
H            3.85565506031166       -0.04605878030802        5.02759036240639
O            5.86886943428703        0.88397518351552       -2.40362818924199
H            5.32531741248152        1.26445201742682       -3.12894443618192
H            6.77013226627621        0.85080851076082       -2.72606692448315
O           -1.53134357450733       -1.62938027561458       -7.52113531267728
H           -1.10685392244231       -1.71597774437556       -6.64310978665873
H           -0.87452091741400       -1.15574468006334       -8.06601566258957
O            1.20609746829790        6.82639266745324        1.63983180398680
H            0.58414535377226        6.19412349235119        1.20965297920826
H            0.67392294372188        7.57503090787866        1.90904944736535
O            1.92920818086713       -0.94792616834682       -6.34951706653199
H            2.75054571680873       -1.12271065844844       -5.83477134054642
H            1.20051499017991       -1.41725342068556       -5.88407690653564
O           -2.40592631389098        5.08807947745178        2.61979291765690
H           -1.83083373609886        5.20212556371746        3.41646459341772
H           -3.11371971319025        5.72741105246410        2.70124126364094
O            1.25991912759450       -1.60729866532494        4.78437480904794
H            0.97246042673099       -1.66947548307313        3.85763815246166
H            0.75889441951106       -0.86040796941686        5.18880383679123
O            4.79394596818389        1.55072718177475        0.07004791284600
H            5.35449616326308        1.36930203232497       -0.69859739382903
H            5.04189976909370        0.91471225581515        0.75589507835256
O            2.63548389713891       -3.75961707145189       -6.65146384187189
H            3.60440712904685       -3.78777780306928       -6.49876869713598
H            2.43999872213600       -2.87457463149412       -6.99265731920975
O            2.30395547619795       -3.44532514147139       -3.93421425263721
H            3.20811492079211       -3.69751969715796       -3.65699884121867
H            2.30496802373871       -3.50906007674366       -4.90585502770506
O           -1.56853473090638        2.86025047810139        6.24323119536871
H           -2.06354277458763        2.04601818347767        6.42526111470163
H           -0.69445196492960        2.74108978938942        6.66526735669706
O           -3.51603380803969        1.84086308577577       -6.34154609680725
H           -2.74326322650000        1.86492551355372       -6.93204460058238
H           -3.22843574822275        2.32548734016991       -5.54871617797787
O            0.98609497537852        2.75032263699285        7.35207607865657
H            1.56955112865913        1.98130983501876        7.48850360411140
H            1.42013113849288        3.32260250337061        6.70242487525162
O            2.53087768244782        2.01458357886903       -1.28693146195802
H            2.27304378977669        1.23024902898812       -1.80339712423942
H            3.35194031082992        1.76673116222490       -0.81406843661463
O            4.83025521041763       -3.89045783648277       -2.95969363869868
H            4.56737679091142       -4.40390630204766       -2.17626986719493
H            4.77309821695966       -2.95424018497807       -2.65931655997218
O            0.58242346741410       -5.40885047597176       -3.29720259741919
H            1.21968744495389       -4.66599909844076       -3.44914732031436
H           -0.28570186054099       -4.97981803762918       -3.16869594171225
O            3.08482013013056        5.19402935876439        2.89869181387538
H            2.54341865205670        5.96128825813953        2.65351534441747
H            3.01326793614817        4.63264572425407        2.09831930024022
O            0.01902755700959        0.12464259643595        6.39651990309828
H            0.04332122198976       -0.35785657181037        7.22448200455772
H           -0.91800087722476        0.22522027231425        6.14791824545924
O           -0.02052848698313        4.24438792630051       -3.49735538466214
H            0.95142620988827        4.09010278275075       -3.37559575885440
H           -0.17409271344281        5.11812087909738       -3.07552635795112
O            1.89600385990094       -2.84089507094420       -1.28164195126429
H            1.03396237757839       -3.05381730696178       -0.89378078954732
H            1.80299305574876       -2.96970705960543       -2.23429162872704
O            0.15750851788704       -4.90150611474758       -5.99462421159529
H            0.29115588771469       -5.33252121736585       -5.12736581423159
H            1.04212967996516       -4.74756228351071       -6.36305429175704
O           -6.08525393132553       -1.61831157758659       -0.10561419108642
H           -5.77177995994710       -1.42769682950266       -1.00243650773836
H           -5.87985535369143       -2.56250834040777        0.03784230349360
O           -0.71613831035948        0.09739118423142        3.69308870277714
H           -1.18128835276877       -0.70092874125529        4.00829415887805
H           -1.35327422590480        0.82249488120864        3.73979542113300
O           -0.86303306455987        0.79778462984587       -4.84989667832539
H            0.07392467828629        1.05988914880150       -4.70183347133652
H           -1.39600773753913        1.50876366797925       -4.46406993177086
O           -4.52661611500205       -0.36678325518057        1.83279707073872
H           -5.24799938662626       -0.61324845975548        1.23679473948262
H           -3.89324749388228       -1.11430970906490        1.75853727953592
O            1.23069825390167       -6.04424806013877       -0.65655085886412
H            0.94235622117212       -6.03035421736481       -1.58775209991104
H            2.15044812991578       -5.69017338102974       -0.68616614332403
O           -1.94061552180631       -4.38658357566746       -3.12239288784365
H           -2.47015209602645       -4.11693099934083       -3.90263982884744
H           -2.05951756374578       -3.64599561959172       -2.47831003572669
O           -1.95894389090465       -2.26505582606529        3.98050384910233
H           -1.46426533241687       -3.05661983939441        4.21658062936144
H           -2.15901372431083       -2.35119006280266        3.03505214881168
O            1.40539458461694        1.55489336991478        4.53815620951490
H            1.17009261004820        1.25511148571293        5.42880324845721
H            0.75659529290733        1.09845655592300        3.96603643200531
O            4.27556272699290       -1.35497476574742       -2.17370686386621
H            4.09697273031264       -1.57170081579497       -1.22314664466075
H            4.89681042822645       -0.60536908044514       -2.16326459224020
O            1.52172164293311        4.16516358984262        4.85717962684823
H            1.45371021344610        3.19025388737309        4.65717583372596
H            2.18563575771896        4.52898298540805        4.23883599503659
O           -2.39343629554912        2.94173196137446       -3.92213801666659
H           -3.02359853154590        3.29616219601747       -3.29194265263821
H           -1.57931196073122        3.47565124828746       -3.82777351281911
O           -0.21570913861894       -4.69502067696981        3.74602227241474
H            0.41388374053600       -5.35558917265507        3.41797576898878
H            0.05377735081914       -3.87643655126524        3.22522831680595
O            2.40100083537452        6.10599772826160       -1.10584152798928
H            2.28728037266466        5.39681164143639       -0.41073880977649
H            2.73234425982733        6.86875182561144       -0.63142284101848
O            1.76145079946616       -0.28594123233008       -2.50073306406553
H            2.55030377277583       -0.86514826806398       -2.45290422259235
H            0.97863914069522       -0.87142396257021       -2.59688266562192
O           -2.01680121354200        2.46938747914006        3.54295860408211
H           -1.84233655518363        2.67501162113370        4.48260573818679
H           -2.51097414764349        3.21557925991846        3.18706841785603
O           -3.26439561079403       -0.63010110549444       -5.01441120616777
H           -3.58327011722489        0.06861007430378       -5.61254497680592
H           -2.30598729216315       -0.46525380541086       -4.97675966106328
O            2.26533703574362        4.07917153267335        0.57870835594375
H            2.41751869582686        3.34298379143339       -0.03383698922975
H            1.38299277833552        3.91707327850226        0.96236582393351
O           -0.06972781042356       -3.35734134033299        6.20743347280114
H           -0.13009930744125       -4.13996491310647        5.64266095314968
H            0.45345311522065       -2.70941591907137        5.64863600064303
O            1.48442697153648       -0.54416006301827        0.24105173149034
H            1.53964144923200       -0.29319840349451       -0.69256906890995
H            1.76225527184038        0.22751437195294        0.80218235427891
O            0.67355507393740        3.94526618768250       -6.21882942034695
H            1.63459214756162        3.83367365615193       -6.11565227506794
H            0.33590346248565        4.06833076019572       -5.31110603113500
O           -0.64891195790800        5.20755151670253        0.45076608526607
H           -1.31073349727155        5.06242733027750        1.14709862460024
H           -0.46632826465883        4.32145039797828        0.05718698672678
O           -0.14514313397757       -2.25609423305761       -5.23820965213403
H           -0.29492660248604       -2.17405758361207       -4.27806925068377
H           -0.12362360945766       -3.21130725959703       -5.43897111835374
O           -3.42156324532605       -3.45633568301828       -5.17840827835165
H           -3.37891392373579       -2.48555769382542       -5.23548699832851
H           -3.08609529100994       -3.78596021365082       -6.03937732094283
O            5.09247972122996       -2.48062043448541        3.95403137992255
H            4.57499882743572       -1.93743356270927        4.60824092228505
H            5.77338799927634       -2.93080478336093        4.45374475551023
O            2.57380586184347        0.40617686398698        7.71626634596357
H            1.98858922980346       -0.28035433258413        8.06528832297343
H            3.05287147235556       -0.03547608384591        6.98201304804878
O            0.28448793632299        3.20312877577419        2.28435373742178
H            0.57187071144017        3.81319804094449        2.97225005337325
H           -0.55523074947380        2.82914447996934        2.61757829981229
O            2.59396743400476        4.07219797090103       -2.98496214084838
H            2.65932911479947        3.27798689672501       -2.39801917277553
H            2.68799143556308        4.84242429939849       -2.40275053882332
O            3.98792083811659        1.37933105038609        4.06231177226083
H            4.31404744242054        2.23334470518218        4.34526437587441
H            2.99255348576868        1.44202444216563        4.05634690390900
O           -4.74123680547939       -1.30881876613707       -2.56873537465955
H           -3.91979797560116       -1.69922104241539       -2.19891042645476
H           -4.49831234009142       -1.03671419139624       -3.46370336655067
O           -0.95407222969764        5.22926559251813        4.87287820743154
H           -1.36952548531234        4.60564599894582        5.48778666047585
H           -0.01203509251841        4.94180047544476        4.86606499417630
O            5.16504705413323       -0.24866725947399        2.22737502004317
H            4.68162435077569        0.36111091987245        2.82399179293743
H            5.32697119333978       -1.03936697069218        2.76664208981151
O            5.18883466906437       -3.48800432979130       -5.74727317715406
H            5.23548427886217       -3.88086886771743       -4.86126725871972
H            5.00057151621539       -2.54257696301649       -5.57262136607988
O            4.41127486619830        1.66628735950736       -4.54186574058579
H            4.55089398742396        2.44455720039601       -5.08915712305622
H            3.42098999680419        1.59165255458099       -4.49680551645023
O           -5.43544932237631       -4.31242133827866        0.25540992624224
H           -5.90619437201784       -4.88142429273156       -0.35503916983750
H           -4.47909068832888       -4.53747827915378        0.15343899140003
O            1.79645912909418        1.20735346511940       -4.65783205015935
H            1.84279349663175        0.58628777396344       -5.40847579867591
H            1.78030028146767        0.62534734899986       -3.85278318566487
O            3.27160163499743       -3.64280213111639        2.11911647408049
H            3.45238411336642       -2.96016536695641        1.41387608498653
H            3.85302768343106       -3.38530697507112        2.84902241798183
O           -4.87368604187902        0.11025705578418        4.47325493169494
H           -4.76845683362072        0.08274599921690        3.49869380709093
H           -4.91991402604258       -0.83337427040659        4.72232875356170
O           -0.83029573282958        1.89218518968294       -7.28351148076187
H           -0.84858349250997        1.36502437157580       -6.44275940543320
H           -0.30814843102022        2.68411758718790       -7.04698775054979
O           -4.48221992157147       -4.16265861478293        2.92073828516589
H           -5.26251271591267       -4.17759253370932        2.35857490446975
H           -4.66492544638690       -3.60497241160008        3.70258627025715
O            3.79536430284205       -1.72994865230927        0.40700983519991
H            4.27503711941535       -1.12587973727328        1.00470926585477
H            2.85963013786625       -1.37329595991582        0.35677952983995
O           -2.63998262269430       -6.76480925683318       -2.08723785623807
H           -2.37428325894018       -5.92650591619051       -2.53213362332911
H           -3.10539267872797       -7.27925181829081       -2.74909246010662
O            3.43828773654590        4.13689448297032       -5.54097988789331
H            3.64430591788416        5.05268713164832       -5.73603660426862
H            3.15105935181600        4.11391717223683       -4.59797820836440
O           -2.82461574565471       -5.04841025918455        0.09909747524337
H           -2.62379723162215       -5.44773509193885        0.98236677148925
H           -2.76323021296911       -5.76456849189496       -0.54705587642913
O            3.58722075319006       -4.72158996575476       -0.63994200686690
H            3.83342642783139       -4.60363099180803        0.28426599005754
H            2.98767768858468       -3.93647911979714       -0.84194650861764
O            0.65380682444918       -2.67477843941108        2.30127505328002
H            0.25818542574736       -2.96832215808702        1.45984143896183
H            1.58234579405233       -2.96120116638387        2.24873847533710
O            1.70781677011081       -5.97690507471134        2.24256851439219
H            2.29430116627173       -5.19946106633512        2.17007354573898
H            1.44605022335807       -6.18850871975240        1.33728928862667
O           -4.35237877085957       -2.51136934618622        5.07225496740961
H           -4.16459208096382       -2.71266191148840        5.99378072083403
H           -3.44672559290077       -2.34254807978864        4.67955818384204
