37
 energy: -59.763636375866 gnorm: 0.181975352625 xtb: 6.7.1 (edcfbbe)
N           -0.44376700000000       -0.47181200000000        1.74520500000000
C            0.69351000000000        0.10436000000000        1.02689900000000
C            0.25232500000000        0.99958500000000       -0.14624500000000
C           -0.57382300000000        0.30680200000000       -1.24485700000000
C            0.17276200000000       -0.78812900000000       -1.95771100000000
O            0.40822200000000       -0.68794500000000       -3.15102700000000
O            0.54634400000000       -1.90328400000000       -1.30373900000000
H           -0.08747200000000       -1.00411400000000        2.57127000000000
H           -1.08118400000000        0.28586300000000        2.08138600000000
H            1.28097900000000        0.73286000000000        1.73117400000000
H            1.36804500000000       -0.70373400000000        0.67713900000000
H            1.15866700000000        1.44313000000000       -0.61117500000000
H           -0.35578800000000        1.83434200000000        0.26527400000000
H           -1.51736400000000       -0.10080200000000       -0.82923500000000
H           -0.85273400000000        1.08677100000000       -1.98587200000000
H           -0.96872000000000       -1.13389300000000        1.13151600000000
O           -3.24831300000000       -3.24120300000000       -0.69564300000000
H           -2.77497100000000       -4.09037200000000       -0.88398100000000
H           -2.85921200000000       -2.59311400000000       -1.33532700000000
O            3.31556900000000       -0.93564300000000       -1.77521900000000
H            4.25864300000000       -1.11527600000000       -2.01802400000000
H            3.24044500000000        0.05170700000000       -1.78562300000000
O            3.16467500000000       -2.91503800000000       -2.72868900000000
H            2.22860000000000       -2.74030200000000       -2.45694900000000
H            3.21705200000000       -3.89976400000000       -2.81916600000000
O            3.42536600000000       -0.11743000000000       -3.97061900000000
H            2.56407500000000       -0.58237600000000       -4.12100400000000
H            3.97870900000000       -0.36032200000000       -4.75511100000000
O            4.05250200000000       -1.63237500000000        0.56139400000000
H            4.57470200000000       -2.16397800000000       -0.09076900000000
H            3.13445700000000       -1.99876300000000        0.50167400000000
O            3.69058000000000        0.93386500000000        1.77544000000000
H            3.95802700000000        0.01742200000000        2.03852700000000
H            3.85221200000000        0.96883200000000        0.79908700000000
O            2.78291300000000       -4.25306600000000        0.26534800000000
H            2.81968700000000       -3.90492700000000       -0.66096600000000
H            3.69716000000000       -4.11351900000000        0.61931400000000
37
 energy: -59.794815525785 gnorm: 0.091897979648 xtb: 6.7.1 (edcfbbe)
N           -0.44128512310817       -0.47323506655472        1.74740521859788
C            0.70078332960373        0.11156355804974        1.02645889789670
C            0.25089639360216        0.99950279096724       -0.13445754330901
C           -0.56623977980634        0.29999987713635       -1.23103140741563
C            0.18002912730614       -0.80572164320028       -1.96384260806454
O            0.41542261694875       -0.69119330541817       -3.17491119064328
O            0.51530266482081       -1.86798327460704       -1.30641931724166
H           -0.09685733687866       -1.00510026897222        2.56212467592677
H           -1.07865048134866        0.27050339123867        2.07526606678885
H            1.28992241039765        0.72699242522629        1.71873575742085
H            1.34583778550354       -0.69233499498092        0.65226862423221
H            1.14428785751377        1.43195786229091       -0.59973250249946
H           -0.34861465187607        1.83108265254864        0.25967770212009
H           -1.50231986119170       -0.10689621022140       -0.82585950204713
H           -0.84194557811707        1.05467854927380       -1.98298048773679
H           -0.95519471485098       -1.12382814614905        1.13239244085757
O           -3.23173256786211       -3.23467890965825       -0.69743235364516
H           -2.78457270091890       -4.07832136225290       -0.87947777918687
H           -2.86118856061879       -2.60955600786689       -1.34068839623065
O            3.33968060466892       -0.87609463110585       -1.66609158814475
H            4.23059142015934       -1.07740017000715       -2.02089286782952
H            3.25039101452353        0.08526556326742       -1.77989531183487
O            3.15350501358883       -2.99015099892300       -2.71910474380765
H            2.23831615312250       -2.75394020372138       -2.46520306229867
H            3.17026625269479       -3.95329994727086       -2.84538263706351
O            3.41955674570241       -0.05572717267665       -4.06295665536273
H            2.58696346158643       -0.57064539830545       -4.10864231406527
H            3.96476468364721       -0.37693629546968       -4.80169485936641
O            4.07421889124054       -1.69223084364182        0.64551859970111
H            4.56767891898072       -2.12553299053594       -0.07998617349804
H            3.15017598015738       -1.98166733362733        0.48563043854019
O            3.68789773366452        0.92863037597633        1.77411287302330
H            3.96001723376009        0.02827372410359        2.02366408729795
H            3.85394868778349        0.96701285928113        0.81915370663557
O            2.78979014095851       -4.26185568576946        0.25594008903014
H            2.81694009854279       -3.88911128424785       -0.64368141684469
H            3.68429613609862       -4.12766348417591        0.61571154006690
37
 energy: -59.806905936016 gnorm: 0.035136620627 xtb: 6.7.1 (edcfbbe)
N           -0.43718599741943       -0.47741654399658        1.74716381809367
C            0.70795124764365        0.11391662426687        1.01793461942482
C            0.25016843270554        1.00081269111518       -0.13144182777330
C           -0.56258208175784        0.29508846495938       -1.22467561035754
C            0.19030362957681       -0.83372198868182       -1.96209790715263
O            0.42604964352644       -0.68515451799966       -3.18447678498622
O            0.50167870945946       -1.84378411426108       -1.31123888577600
H           -0.10032673476664       -1.00960916109540        2.55342719661212
H           -1.07647420540421        0.25652033932437        2.06562501298402
H            1.30304545611162        0.71272510835698        1.70479557056330
H            1.32328595636453       -0.69122146300043        0.62050103766681
H            1.13648498749700        1.42737040493497       -0.59457235945843
H           -0.34805855704324        1.82656025010681        0.25292167355988
H           -1.48619436810835       -0.12447898402836       -0.82371077310897
H           -0.83822026464138        1.03208513190690       -1.98307039540858
H           -0.93874686575569       -1.11861757070071        1.12572722245044
O           -3.21047397307943       -3.22287406458046       -0.69939724621709
H           -2.79420636375268       -4.07130201258804       -0.86865488454613
H           -2.86078836922274       -2.62248436771320       -1.35873856653313
O            3.35568336310023       -0.80831407377535       -1.60075043633997
H            4.19680350596576       -1.04293184265890       -2.03084078149203
H            3.24821126231955        0.12802048816622       -1.82355882931651
O            3.14505565669637       -3.05321939764861       -2.69257881063006
H            2.25016078846279       -2.75094484346440       -2.46656131052848
H            3.11235668415922       -3.99836804267410       -2.87417715270458
O            3.43205970234088       -0.05209096005767       -4.09857695618248
H            2.58380935873642       -0.50673292576689       -4.10491170780407
H            3.94201217021223       -0.38231022803525       -4.83725160999192
O            4.09235448813584       -1.72890654068099        0.72010235163017
H            4.57716150687975       -2.10053689465582       -0.02771069200104
H            3.17697197948915       -1.97562403557462        0.51344064054866
O            3.68490476244997        0.92189162442782        1.77347672563102
H            3.96204777364452        0.02966448551581        2.00423769376676
H            3.85615206027854        0.97759292391184        0.83342491810498
O            2.79286088500366       -4.28882646680972        0.23785326701007
H            2.81497664072823       -3.86953981787866       -0.63116740210196
H            3.66358712946273       -4.14887967866646        0.62322518236386
37
 energy: -59.812043411050 gnorm: 0.073520010673 xtb: 6.7.1 (edcfbbe)
N           -0.43213083298364       -0.48348544120000        1.74035011583794
C            0.71259299926935        0.10929664706011        1.00301471376093
C            0.24777967795562        1.00407011592966       -0.13687346241249
C           -0.55905772536219        0.29443485181068       -1.23164919629646
C            0.21656274498016       -0.84705013468836       -1.95752511805732
O            0.44522577339785       -0.68325179965251       -3.18388916138479
O            0.49006809104599       -1.86064321350919       -1.30493928940145
H           -0.09545969994526       -1.01790206793664        2.54484993442369
H           -1.07433292402055        0.24879455038333        2.05543564827116
H            1.32142065297945        0.69444857163485        1.68964412584378
H            1.31017772240897       -0.69949026277162        0.58678947100921
H            1.13465394308634        1.43231755729887       -0.59806383277547
H           -0.35360879665466        1.82655387954615        0.24987442540576
H           -1.47447977942114       -0.14189595770680       -0.82931127826681
H           -0.83881135399251        1.02222364676432       -1.99459920367503
H           -0.92800035428308       -1.12149009842664        1.11162300978578
O           -3.17133683168517       -3.19552435010595       -0.67980205746765
H           -2.81294761497535       -4.07452634540770       -0.85132611305471
H           -2.86276573661697       -2.63774252678102       -1.40546980404151
O            3.36912303500063       -0.73601430046662       -1.54341394449648
H            4.16699706362358       -1.01122001369620       -2.03615911794300
H            3.24390974564840        0.18028387605484       -1.85642028540092
O            3.14676933473794       -3.11008635659771       -2.61554669293335
H            2.25168779965195       -2.73828638988090       -2.47182314519585
H            3.02719655250441       -4.04270927324413       -2.91294967998271
O            3.43946076480568       -0.00614842021597       -4.15666933818642
H            2.57636753989993       -0.45520912341710       -4.06204402042751
H            3.90662880107234       -0.42617975895236       -4.89636355244309
O            4.12272494230373       -1.79936294449236        0.84618125699419
H            4.60036136944422       -2.04459685940273        0.00742698272030
H            3.19133010516699       -1.95585593992836        0.53188238200447
O            3.67462975884032        0.91017764711031        1.77998212067173
H            3.96815843377757        0.01456505135625        1.98416957708266
H            3.86072801946015        1.00468064330228        0.84302219445236
O            2.79117730416853       -4.33148759156212        0.20557267792158
H            2.82006626678307       -3.83146813309138       -0.62944872876971
H            3.64001320792578       -4.17586173511737        0.63816438642626
37
 energy: -59.814456546128 gnorm: 0.085616616323 xtb: 6.7.1 (edcfbbe)
N           -0.42681168065147       -0.49068442502086        1.73185625738265
C            0.71708167956703        0.10261657356846        0.98539280988994
C            0.24397547769693        1.00695312054567       -0.14370256956132
C           -0.55574214970553        0.29321204811933       -1.24097342600104
C            0.23967000721227       -0.86388238677063       -1.95744826007611
O            0.48428512465414       -0.67550654457420       -3.18128608862864
O            0.48800403718296       -1.88037130556750       -1.29328224225760
H           -0.08976749703624       -1.02698038283446        2.53590537857857
H           -1.07315460332717        0.24056350370437        2.04292369298689
H            1.34425600505347        0.67208816910757        1.67100919301481
H            1.29482291502646       -0.71037537440327        0.54803120793762
H            1.13185430589143        1.43901103654464       -0.60256508951931
H           -0.36004878150471        1.82680457788570        0.24784993418418
H           -1.46329216873104       -0.15972039302105       -0.83618386341770
H           -0.83905412489399        1.00975898941003       -2.01005919994679
H           -0.91641047376560       -1.12675485308207        1.09512855799435
O           -3.13552379955372       -3.16849133621193       -0.66868688802910
H           -2.82987215633779       -4.07634600933202       -0.83094586895418
H           -2.85880723599169       -2.65233085966009       -1.44952699646276
O            3.38074006133666       -0.64699635352212       -1.49044948836764
H            4.12841489861411       -0.97438988891867       -2.02485852544605
H            3.23773977673680        0.23778593157647       -1.86461311947298
O            3.12301311623813       -3.17327520328254       -2.56397786194868
H            2.24642825694339       -2.75825173167702       -2.45124620579751
H            2.96076482792241       -4.08339205556723       -2.92579127581138
O            3.43764113450417        0.04576223262442       -4.22924789348263
H            2.56982664929882       -0.40018663988472       -4.04858457498759
H            3.87145323952519       -0.45346593550708       -4.96115540493877
O            4.11416033737764       -1.75500265930255        0.83293347525449
H            4.64007742685117       -2.06105137246745        0.12328276483273
H            3.23111848424389       -1.98379351626124        0.62974133111395
O            3.66623706759944        0.89880731838921        1.78798788828004
H            3.97320684810233       -0.00564499033075        1.95451270688338
H            3.86488405819290        1.04393987005798        0.85319910134993
O            2.78573599997481       -4.36187768775017        0.17530015228428
H            2.83273074814094       -3.81237962997695       -0.63313223453338
H            3.61324218760938       -4.20179383660748        0.65635862567191
37
 energy: -59.817328241379 gnorm: 0.072324943932 xtb: 6.7.1 (edcfbbe)
N           -0.42304253945021       -0.49637380641715        1.72222715567503
C            0.71923203970508        0.09442344478971        0.97251981557474
C            0.24282299370008        1.00532143787846       -0.15111169186545
C           -0.55407207986469        0.28802726748357       -1.24818886298695
C            0.23735703747290       -0.87393600537435       -1.96593755844977
O            0.53304706149895       -0.66559969999562       -3.17348554895222
O            0.50866702418841       -1.88754547113509       -1.28944047959265
H           -0.08408320385786       -1.03170243008333        2.52865712163763
H           -1.07089505853976        0.23650288030891        2.03292452470762
H            1.35797575228893        0.65666021148770        1.65662135319204
H            1.29143671968976       -0.71923523699478        0.52813396407395
H            1.13013089527854        1.44599775117414       -0.60835889524573
H           -0.36349282834709        1.82314397238310        0.24752177357000
H           -1.46168050049249       -0.16622963956272       -0.84239368811149
H           -0.83689998573429        1.00080019555245       -2.02096317469902
H           -0.91243266262583       -1.13486856228331        1.08477994430276
O           -3.14776956913828       -3.16958073065362       -0.69951767448585
H           -2.81857640166802       -4.06768986031440       -0.81712317324807
H           -2.83888494053522       -2.65116999392959       -1.44295513526049
O            3.37951268071647       -0.59914144017282       -1.48967211340815
H            4.10819382626718       -0.95679666336923       -1.98294756389264
H            3.22884471316223        0.26166926189004       -1.84066956392331
O            3.06482791254577       -3.19190537361840       -2.59485229960347
H            2.22327389989182       -2.80670302240912       -2.40649229041253
H            2.97034588106337       -4.07927523967632       -2.86252065821457
O            3.42107695721365        0.01774410593944       -4.22948826855519
H            2.55521428628032       -0.36420733573719       -4.13235561528270
H            3.85562628249166       -0.39048434347148       -4.97048368622963
O            4.12183879215180       -1.79763946266883        0.90446282752340
H            4.67720349069717       -2.02078912987601        0.16270370948277
H            3.22945484309397       -1.97846641725135        0.62500644152335
O            3.67495997844416        0.89491919687596        1.79632938776714
H            3.96525591465508       -0.02345332021787        1.93578198837057
H            3.86111301510344        1.06271409042195        0.86102275768777
O            2.77391660501881       -4.33691225217416        0.16915081106844
H            2.85123148821410       -3.84451404449823       -0.65022307390751
H            3.60214967941828       -4.21934633430073        0.65503344016849
37
 energy: -59.819912868126 gnorm: 0.085626843002 xtb: 6.7.1 (edcfbbe)
N           -0.41855714485053       -0.50191349419539        1.71112643888808
C            0.72201358331308        0.08617630547338        0.96215668639039
C            0.24454380088267        1.00041665762589       -0.15806484489010
C           -0.54923595134002        0.27774997888858       -1.25275506455141
C            0.24858643583198       -0.86754486836394       -1.97280162769163
O            0.56340851274897       -0.66314277482531       -3.16972763116896
O            0.52334126454332       -1.88511455818454       -1.30573863357935
H           -0.07812615521822       -1.03421091822667        2.51902768736827
H           -1.06479298755758        0.23194232568884        2.02360694023494
H            1.36387621885644        0.64592281665375        1.64418419477998
H            1.29503938530235       -0.72583632514009        0.51766672437057
H            1.12676721262942        1.45219236119525       -0.61439477465144
H           -0.36688141090882        1.81259573785720        0.24487257696762
H           -1.45910390122131       -0.17396084350776       -0.85035148394668
H           -0.83329183502423        0.98979675825052       -2.02735675920821
H           -0.91121726698256       -1.14340369255121        1.07917464914371
O           -3.14079927983984       -3.16003638076776       -0.70559100108428
H           -2.81748047156698       -4.05909642074768       -0.80601286073958
H           -2.82998757180716       -2.65944703559938       -1.45591857089282
O            3.39932535985405       -0.56494656856922       -1.41176537739595
H            4.08661504339689       -0.96963643550345       -2.01359895066376
H            3.22651558245388        0.29083600734773       -1.91290623672582
O            3.07035511074815       -3.20868193898284       -2.49317794198505
H            2.20813735384743       -2.77283612521470       -2.39879535553488
H            2.90392731718505       -4.08757406383611       -2.87846483735644
O            3.42242991776673       -0.01505883751563       -4.20421778699027
H            2.52870954239396       -0.32195640262964       -4.13901403832056
H            3.81874295661271       -0.38192277399195       -4.97707204043695
O            4.13198740607703       -1.83249972963353        0.97842435877561
H            4.70910066048377       -1.98474576671104        0.19494953306121
H            3.22224710615239       -1.96735889939931        0.60489676873242
O            3.69085276726142        0.89403536552003        1.79982934922885
H            3.95167781540188       -0.03691185817136        1.91521528689146
H            3.85570935986549        1.07198519733366        0.86719171418262
O            2.76941276038657       -4.34046880420579        0.15543730872146
H            2.87136413685524       -3.85171969356833       -0.66292664572787
H            3.58766736546413       -4.22926630179248        0.65658824580271
37
 energy: -59.819629692734 gnorm: 0.088729944223 xtb: 6.7.1 (edcfbbe)
N           -0.41341916829161       -0.50678415633099        1.70217467436798
C            0.72567860464559        0.07979656969640        0.95494100346143
C            0.24629704381808        0.99469810256250       -0.16326889023914
C           -0.54267140844437        0.26886372135748       -1.25801333001896
C            0.28043622837739       -0.84733082108534       -1.97624811395324
O            0.57324240103513       -0.66117450977614       -3.17391268423805
O            0.52012359476998       -1.88734099958801       -1.33333248985108
H           -0.07234860930687       -1.03662686916766        2.51058507912365
H           -1.05763128990319        0.22726055714391        2.01671654836739
H            1.36675970354626        0.63948809158823        1.63559935443698
H            1.30079494153270       -0.73039688300968        0.51002751614110
H            1.12358403479613        1.45470861562644       -0.61863116455623
H           -0.37147850181330        1.80034421971916        0.24127657445410
H           -1.45241474713746       -0.18586448215561       -0.85894057718914
H           -0.83206192144500        0.98211489301367       -2.03134246425953
H           -0.90966620303360       -1.15028144617155        1.07613702377513
O           -3.11626308800108       -3.14002697043044       -0.68864213827932
H           -2.82674210639145       -4.05577812354831       -0.79471135135921
H           -2.83040234825517       -2.67389042120110       -1.49149085662104
O            3.38844592541226       -0.54975090178190       -1.46774540790204
H            4.10064913960632       -0.94449330700883       -1.94367902462901
H            3.22831891041766        0.30022229953967       -1.83973962484495
O            3.07079135007073       -3.22907174487155       -2.44550333733092
H            2.19657346361799       -2.74568451452924       -2.39715707234616
H            2.84461041488488       -4.10949182943733       -2.89519932139000
O            3.44534273045804        0.00623157093994       -4.22949952572364
H            2.50322023349395       -0.26118647226846       -4.08633526080308
H            3.77209817994690       -0.43211016066794       -5.03982122801683
O            4.14004840645331       -1.83103427256228        1.00174980388685
H            4.71480658333542       -1.97490339403304        0.21215076515140
H            3.23098448549234       -1.96489842879077        0.62232185049081
O            3.69947842141436        0.88960115111671        1.80190531488777
H            3.94211205791444       -0.04740134911189        1.90050568127775
H            3.85337389418483        1.07430036075699        0.87238361427625
O            2.77014657554063       -4.36842266344227        0.14116286313272
H            2.88585836468489       -3.83118369440188       -0.66640448712852
H            3.57420370257002       -4.23814373768914        0.66367668344659
37
 energy: -59.823384703658 gnorm: 0.061465244885 xtb: 6.7.1 (edcfbbe)
N           -0.40852239965911       -0.51166771763165        1.69709017362026
C            0.73027884853827        0.07484951754501        0.94759886692351
C            0.24599498096137        0.99076715186341       -0.16780215369169
C           -0.53914429745297        0.26674916729110       -1.26661659719959
C            0.29734349657541       -0.84411067762429       -1.98400827215511
O            0.59652109739472       -0.64262929787231       -3.18161358534226
O            0.52504912960167       -1.89264974552519       -1.34820894798554
H           -0.06761695203219       -1.04094273501418        2.50560340515422
H           -1.05299789637409        0.22244628521778        2.01022541562175
H            1.37360231731073        0.63186585445843        1.62850722591393
H            1.30084836037808       -0.73633547386388        0.49681824882187
H            1.12195503956543        1.45376116295123       -0.62216684109612
H           -0.37502974472909        1.79273634942954        0.23862572571525
H           -1.44444021220326       -0.19692198997292       -0.86667971600241
H           -0.83322317367195        0.98063821304781       -2.03680130455680
H           -0.90459570028522       -1.15512848776708        1.07106102015685
O           -3.10889018026870       -3.13227973640976       -0.69150590517255
H           -2.82590195368920       -4.05345834420798       -0.78698479808637
H           -2.82306821835173       -2.67628906185404       -1.50275762772377
O            3.39279390623744       -0.52102075538051       -1.43552636720057
H            4.07220242387138       -0.95574792454151       -1.97539638693452
H            3.23437118503652        0.31791795816436       -1.86628495986895
O            3.00578441038736       -3.21312194620687       -2.50305916074675
H            2.17139344717035       -2.78692736911707       -2.32804980161866
H            2.87566467976044       -4.08458712268174       -2.82663980637961
O            3.42429542398754        0.02926901555530       -4.23692483216498
H            2.49420864077011       -0.26720612928487       -4.07316812410364
H            3.75069614149201       -0.42814884452439       -5.04458914800561
O            4.14475989575513       -1.80126436585194        0.98015911854416
H            4.71444695543447       -1.98264056740577        0.23948838185600
H            3.26187571063635       -1.97221320116600        0.67835893150377
O            3.69403897925099        0.87644489217808        1.81020375381901
H            3.94105987221135       -0.06240821791057        1.89098642208979
H            3.85607930747276        1.08380920418765        0.88238846703202
O            2.76863936957594       -4.36973600756320        0.13848219472840
H            2.89240668957936       -3.83286270538319       -0.67186829737472
H            3.57000041975933       -4.24659834712915        0.66475128190705
37
 energy: -59.825378124778 gnorm: 0.068864640253 xtb: 6.7.1 (edcfbbe)
N           -0.40310980310546       -0.51958170846145        1.68974220118124
C            0.73441564097820        0.06639089185094        0.93640274952444
C            0.24569863330056        0.98442402983876       -0.17576678882783
C           -0.53613268964337        0.26118655665213       -1.27888626540092
C            0.28151819675434       -0.85878760171008       -2.00682499055740
O            0.65547368779273       -0.60717355322977       -3.18724099084623
O            0.56290441982115       -1.88880436631241       -1.36295679419776
H           -0.06133960412409       -1.04773170464844        2.49926075437870
H           -1.04794053619237        0.21554567967181        2.00145269271922
H            1.38264437556785        0.62023175280130        1.61682133994934
H            1.30074692608279       -0.74522847005642        0.48068613928395
H            1.12066684321932        1.45307685329528       -0.62788601512107
H           -0.37788721961106        1.78310547946233        0.23517775197478
H           -1.43777941580243       -0.20826188509180       -0.87827728070540
H           -0.83195025565217        0.97758882157192       -2.04487362936142
H           -0.89958164092188       -1.16379936852566        1.06377649566407
O           -3.12015655507317       -3.13544732961798       -0.72013508798465
H           -2.81240313201840       -4.04345162986947       -0.78283253711480
H           -2.80388482118328       -2.66964103081982       -1.48541468958593
O            3.41051557226657       -0.48544600769306       -1.38288730206999
H            4.06148729160722       -0.93502416257177       -1.94427521606974
H            3.21946002584702        0.33428172849004       -1.88650683263759
O            2.99642899705613       -3.23958035299003       -2.42561450239443
H            2.15950655730047       -2.76581711655559       -2.31782170267503
H            2.80129064877549       -4.09431421224955       -2.84985447352375
O            3.36447189980041        0.02136494440030       -4.22315647574082
H            2.49351938691628       -0.31385892254767       -4.14169907048864
H            3.74152439031715       -0.34930438231334       -5.00231590181476
O            4.14388173064063       -1.81342413155676        1.01095600250795
H            4.73674105712044       -1.96250956382506        0.28199454932199
H            3.26715588708255       -1.97131653205887        0.68056634002296
O            3.68340151517165        0.86276495748699        1.81122228920383
H            3.94416213329149       -0.07560735070529        1.87285602825846
H            3.86294223515826        1.09885446474499        0.88835632389484
O            2.76344749038250       -4.34544444721048        0.14193449504674
H            2.90311187351376       -3.87124647883324       -0.68392686437703
H            3.56792825755982       -4.25365585081343        0.66164325855973
37
 energy: -59.828524368352 gnorm: 0.059649387232 xtb: 6.7.1 (edcfbbe)
N           -0.39613704207084       -0.52812324479394        1.67911792819399
C            0.73900821168977        0.05695666733524        0.92372838704173
C            0.24893969897901        0.97893884553544       -0.18464751426157
C           -0.52602377996379        0.25286870008995       -1.29054866791525