34
 energy: -54.762978522548 gnorm: 0.062932508786 xtb: 6.7.1 (edcfbbe)
N           -0.18740803480000        0.55101028720000        0.04566233870000
C            0.32269316430000        1.90443672220000       -0.22355649110000
C            0.03688910020000        2.32887101540000       -1.66112034010000
C            0.88707030940000        1.59502104930000       -2.71164191900000
C            0.27979825550000        0.25929815180000       -3.17112162910000
O           -0.09266435030000        0.16319403100000       -4.35795984240000
O            0.18676628300000       -0.66835981610000       -2.32616609590000
H            0.15746250000000        0.19168115450000        0.95435884560000
H           -1.23246843040000        0.53642747340000        0.03100932210000
H           -0.15788577910000        2.60599174990000        0.45874677190000
H            1.39895338010000        1.91996993770000       -0.04420067050000
H            0.24561502120000        3.39533356810000       -1.74873503570000
H           -1.02171238750000        2.17950927320000       -1.88270715260000
H            1.88578533220000        1.39475985930000       -2.31747126640000
H            0.98563283770000        2.21030421300000       -3.60742710910000
H            0.10723288210000       -0.07939877600000       -0.73653825300000
O            0.77694416980000       -0.31995655180000        2.51628930770000
H            1.12375315190000       -1.21390017870000        2.58323333630000
H            0.27606919560000       -0.14031557760000        3.31792700170000
O           -2.36273537840000       -1.67479669460000       -2.09351197840000
H           -2.67092883720000       -1.58310535250000       -3.00960480210000
H           -1.40037383920000       -1.51250077760000       -2.15304572070000
O           -2.42717165690000       -1.17789533100000       -4.85635620650000
H           -2.27450501490000       -1.78753059950000       -5.58450855800000
H           -1.59091052600000       -0.67807374060000       -4.74740055250000
O           -2.90316927140000        0.29151690710000       -0.28730360510000
H           -2.82527179110000       -0.41217470180000       -0.96630806290000
H           -3.50334822420000       -0.04844827660000        0.38327356560000
H            2.63819110840000       -1.93926597840000       -5.27636728420000
H            2.53478262130000       -3.01528370050000       -6.38555900630000
O            3.00325156150000       -2.79909683340000       -5.57385761390000
H           -1.33349647150000       -1.93229887380000        0.29968825900000
H           -0.65592268470000       -1.93718307360000        1.69240578530000
O           -0.92678810510000       -1.35298735840000        0.97795573780000
34
 energy: -54.775218531821 gnorm: 0.021730510915 xtb: 6.7.1 (edcfbbe)
N           -0.17568569705115        0.59021733932811        0.03861999871068
C            0.33479610430024        1.93576364188225       -0.23145530221222
C            0.04125636718432        2.34442061074206       -1.67026615959485
C            0.88724900883600        1.59864521965736       -2.71533088589770
C            0.27415883066762        0.26380731103238       -3.17009411329684
O           -0.08694462985222        0.16147216149640       -4.36090587068098
O            0.18630210554156       -0.66515729968177       -2.32801304351077
H            0.15357135015238        0.21335513165374        0.94777114114591
H           -1.22013280244985        0.56738555697794        0.02457914347291
H           -0.14869988628991        2.63294344888985        0.45241636818413
H            1.41036529027188        1.94456524312369       -0.05019696614755
H            0.24745749940894        3.41003371031688       -1.76587389224117
H           -1.01824566668043        2.18806252955541       -1.88406304331242
H            1.88474624053041        1.39646261494635       -2.31872888049899
H            0.98801649392062        2.21046904012654       -3.61324430685687
H            0.11316387380370       -0.04949115197626       -0.73531984756480
O            0.83961568716668       -0.27131702656644        2.54956238761504
H            1.15995788993743       -1.17753423090196        2.59128497263009
H            0.28165099663967       -0.12677262991089        3.32247753640614
O           -2.35394358848513       -1.68793266157566       -2.08888060036047
H           -2.67242789826134       -1.58345761742763       -3.00031489188914
H           -1.39654607717254       -1.49816119669158       -2.15539959645772
O           -2.42539455633459       -1.18011067094838       -4.85326146871930
H           -2.27412458836996       -1.78682742703171       -5.58448009833420
H           -1.59065473208826       -0.67675295533508       -4.74632624696751
O           -2.91606596918443        0.31075574665475       -0.30416316933898
H           -2.82091248474270       -0.40556710293593       -0.96745182997245
H           -3.49053748527572       -0.03871326366442        0.38413236922797
H            2.63498575319013       -1.95092624948143       -5.27443833500877
H            2.53359656123165       -3.01691332166803       -6.38397704880474
O            3.01079446474581       -2.78843925340106       -5.57938179661124
H           -1.36538296371909       -2.02380206946498        0.28921842865673
H           -0.72625553588719       -2.09644740215071        1.70099284958620
O           -1.01959986418426       -1.48928257496967        1.01859327484406
34
 energy: -54.778966528253 gnorm: 0.012625608426 xtb: 6.7.1 (edcfbbe)
N           -0.17558947878031        0.59904433553912        0.04348372808113
C            0.33571506400278        1.94473623717193       -0.23235484882105
C            0.04286530152847        2.35230429947197       -1.67290825498691
C            0.88851236677580        1.60412871091610       -2.71737424129777
C            0.28570231322340        0.26565555831988       -3.17386384685033
O           -0.08535089952505        0.16636472804637       -4.36223951501572
O            0.17855053992872       -0.65684682875229       -2.32715556025825
H            0.14655109733701        0.21480957972523        0.94996897458662
H           -1.21835577477465        0.57048620858229        0.03440608789723
H           -0.14197349669952        2.65095785595002        0.44674157449690
H            1.41227089983096        1.95925067867610       -0.05571979656396
H            0.24776843693490        3.41773919784512       -1.77796415969677
H           -1.01681498472283        2.19554392750737       -1.88393599578390
H            1.88489595828809        1.40110868040098       -2.31903136581819
H            0.99245935953510        2.21297406490100       -3.61711731878950
H            0.11060283247906       -0.04603001679453       -0.72535222825325
O            0.87369405909306       -0.23087604820698        2.55769497713099
H            1.20043841932475       -1.13404103568531        2.59086196370823
H            0.28926108563887       -0.10896554823424        3.31569741185664
O           -2.34088255975935       -1.69388217342025       -2.07808938880940
H           -2.67278599648555       -1.59768764506102       -2.98562617716278
H           -1.38811223924330       -1.48299820262388       -2.15959622725326
O           -2.42181252393532       -1.18315596064838       -4.84704274421919
H           -2.27509745200703       -1.78758825935618       -5.58123010250304
H           -1.58619922813919       -0.68087314145545       -4.74309714441290
O           -2.92482318639529        0.33887040184749       -0.32458617539529
H           -2.81993235003501       -0.38971310204999       -0.97246737354775
H           -3.47062352630370       -0.01784715238309        0.38465299003163
H            2.62730173195879       -1.96274786408573       -5.26790642149424
H            2.53222179329889       -3.02289606676751       -6.38224884799848
O            3.02621470256414       -2.77618164689866       -5.59183720111921
H           -1.39720572897791       -2.06608781479100        0.27543676797670
H           -0.78268945303517       -2.22264939344179        1.69390347495865
O           -1.07664699142289       -1.57815336364470        1.04397806152704
34
 energy: -54.781293207153 gnorm: 0.019042493871 xtb: 6.7.1 (edcfbbe)
N           -0.17768767879252        0.60723414496441        0.04943023399989
C            0.33698141111003        1.95144467741676       -0.23234798579868
C            0.04413434291706        2.35817783387315       -1.67474775467447
C            0.88829304526895        1.61032997630599       -2.72021714351587
C            0.25870698990499        0.28160533886979       -3.16744556771843
O           -0.07029177841749        0.16306645241704       -4.36769097006669
O            0.18028926677499       -0.64935841681459       -2.32706572688230
H            0.14067015415915        0.22120246975093        0.95532098554431
H           -1.21939480883786        0.58030689193547        0.04348577388193
H           -0.13592656329678        2.66541689943541        0.44254718287228
H            1.41423540203957        1.96741416054266       -0.05770699304632
H            0.25137591085280        3.42279041035015       -1.78393949766912
H           -1.01611532691591        2.20488172934643       -1.88544238953155
H            1.88371985362516        1.40040192288187       -2.32172596736485
H            0.99641185655860        2.21681845093726       -3.62114639406274
H            0.10758033172123       -0.04177885895154       -0.71576028745086
O            0.90023465781441       -0.18158599717185        2.55600219706621
H            1.25040514659510       -1.07527172485549        2.58466908904485
H            0.30434601119606       -0.08018973756857        3.30459804272346
O           -2.31899904519640       -1.69998085894292       -2.05725062917329
H           -2.66683819683208       -1.61851279473603       -2.96007880925779
H           -1.37186437447229       -1.46338440962788       -2.15705344709575
O           -2.41327274146338       -1.19158149666286       -4.83587281204935
H           -2.27311325737026       -1.78657859755907       -5.57924066616566
H           -1.58065023073870       -0.68270207118572       -4.73966974877930
O           -2.92662418807935        0.36878766555520       -0.34223412766520
H           -2.82026263520554       -0.36433388668091       -0.98267212661581
H           -3.44375468179312        0.00530698141072        0.38563639657787
H            2.60996931424862       -1.98029512435509       -5.25526346732475
H            2.53437060580541       -3.03253843555810       -6.38091044086867
O            3.05216136274352       -2.75833513830933       -5.61288331280530
H           -1.43423276716658       -2.10033521284032        0.24887193102268
H           -0.86127528548984       -2.38387991270391        1.67288114488213
O           -1.14345201176621       -1.67979013086943        1.07300436416854
34
 energy: -54.782926834884 gnorm: 0.012903066721 xtb: 6.7.1 (edcfbbe)
N           -0.17984575181334        0.61441314829821        0.05271066880492
C            0.33714378590893        1.95674088501624       -0.23282518805941
C            0.04346397184204        2.35978759354481       -1.67688325774824
C            0.89144273359166        1.61446261165967       -2.72184525954605
C            0.28912004806588        0.27733551408932       -3.17787127501656
O           -0.07094292881451        0.16961885399891       -4.36851867674798
O            0.16978470144065       -0.63947966521426       -2.32571954246303
H            0.14032905670141        0.23379618005378        0.96084585821526
H           -1.22183138669939        0.59318226891421        0.04590310998312
H           -0.13498307622096        2.67325402738875        0.43999154455899
H            1.41440530758231        1.97113259706184       -0.05729205029129
H            0.24903557066096        3.42513829597103       -1.78274055409463
H           -1.01657866326808        2.20657766652447       -1.88890456657439
H            1.88700784611245        1.41062738546967       -2.32155833316452
H            0.99859406234136        2.22352706107292       -3.62087175698327
H            0.10868734447764       -0.03431585950009       -0.71097148326086
O            0.91878058079525       -0.13070280266905        2.54763287056006
H            1.30295980206515       -1.01163826439298        2.57313908882296
H            0.31296138781013       -0.05367994396348        3.28973749929357
O           -2.30110779265276       -1.70088163027578       -2.03238499616189
H           -2.66123437138588       -1.64237980552147       -2.93176980071885
H           -1.35894410418733       -1.44778490284759       -2.14885577634506
O           -2.40701447900530       -1.20358955959234       -4.82203463345749
H           -2.27182267806546       -1.78591410094223       -5.57662203017533
H           -1.57761349886570       -0.68944351105713       -4.72944241015780
O           -2.92195836004965        0.39360633456850       -0.35174176143340
H           -2.82088625097436       -0.34021017930681       -0.98989213816742
H           -3.42028696384748        0.02966657787432        0.38754191358087
H            2.59788859649142       -1.99454842784965       -5.24736577614593
H            2.54614427511139       -3.03713259320031       -6.38495163991587
O            3.06478897715148       -2.74926161727401       -5.62489519422732
H           -1.48773890317762       -2.13787493125218        0.23649593626244
H           -0.95111180341571       -2.52208688417545        1.64991965068830
O           -1.18850694420479       -1.77718912187257        1.08012103628792
34
 energy: -54.783860603515 gnorm: 0.010643054855 xtb: 6.7.1 (edcfbbe)
N           -0.18306915353566        0.61704682102852        0.05359770576213
C            0.33633147768017        1.95867338915173       -0.23426172799177
C            0.04495619754337        2.36397240934637       -1.67772738281693
C            0.89306195842946        1.62075226873300       -2.72360496099855
C            0.28776052724920        0.28490079689186       -3.17770973943176
O           -0.06383231472641        0.17077682867499       -4.37013519584297
O            0.17490470504333       -0.63223573000372       -2.32475766928182
H            0.14203468119064        0.24724189466071        0.96586284468096
H           -1.22606444451952        0.60256055411404        0.04236992975617
H           -0.13526031387406        2.67562455374656        0.43824839997383
H            1.41327911366708        1.97074005768842       -0.05784239254307
H            0.25012131176441        3.42979757631516       -1.78039527952646
H           -1.01468383852412        2.20978541673258       -1.89070586662297
H            1.88927102801202        1.41742355103360       -2.32459274290314
H            0.99850960024182        2.23116434133655       -3.62187085697634
H            0.10843646245149       -0.03187677954469       -0.70862894787808
O            0.93312977546946       -0.08168777054993        2.53560831994064
H            1.35281922483913       -0.94859408881234        2.55886997781644
H            0.31488531472999       -0.03250963466218        3.27281685734644
O           -2.28298666076102       -1.70250028768903       -2.00393935736847
H           -2.64731734657540       -1.66422867778747       -2.90161603231447
H           -1.34430401243308       -1.44117378068941       -2.12829775868183
O           -2.39881745127255       -1.21544138215112       -4.80648253953153
H           -2.27335453681550       -1.78317886221735       -5.57426256673746
H           -1.56984412561350       -0.70078020583475       -4.71777932080948
O           -2.91685385107617        0.41446720793412       -0.35642208251819
H           -2.81560737230553       -0.32665958417595       -0.98689447168282
H           -3.40367158822856        0.05577039186318        0.39160947395606
H            2.59848679463193       -2.00019740961983       -5.25218692793949
H            2.56084683699690       -3.04287647737812       -6.38926946894750
O            3.06389616260499       -2.74888010685117       -5.62519181904369
H           -1.52905761569463       -2.17370094573804        0.21610011736028
H           -1.05045010933562       -2.63054304345482        1.62455728057944
O           -1.22742634575216       -1.85888009149252        1.07301527741816
34
 energy: -54.784015616550 gnorm: 0.037338506583 xtb: 6.7.1 (edcfbbe)
N           -0.18770064812919        0.61987950429398        0.05449495058844
C            0.33524340586449        1.96098983039863       -0.23688449289812
C            0.04710329708653        2.37051903951505       -1.67875724390383
C            0.89597140647166        1.63175103481048       -2.72645980418463
C            0.28946587290946        0.29572944455999       -3.17692746103309
O           -0.05459766537299        0.17298828330535       -4.37051106511740
O            0.18811617229947       -0.62158462175056       -2.32223346997753
H            0.14778423909029        0.27116373145754        0.97413581848280
H           -1.23259945419991        0.61569860184693        0.03393454747346
H           -0.13586725277444        2.67702282011083        0.43654003276973
H            1.41167222689774        1.96908590519774       -0.05914859648555
H            0.25108121695072        3.43715054965563       -1.77623736719116
H           -1.01174748813502        2.21397693445034       -1.89365837880513
H            1.89396078654735        1.43112976059211       -2.33044848559349
H            0.99654261165981        2.24417497981950       -3.62399710866271
H            0.10818127708055       -0.02984392772023       -0.70530527211386
O            0.94480244319931       -0.00675489279769        2.51419197130230
H            1.41083368217145       -0.85189638973404        2.54199123714633
H            0.32743761924599        0.01421572859316        3.25104948695959
O           -2.25644062696469       -1.70741337561695       -1.95665696688046
H           -2.62618101839652       -1.69606152821949       -2.85119490093453
H           -1.32277132456798       -1.43665279872338       -2.09174122017829
O           -2.38629340537672       -1.23612235515041       -4.77804363018624
H           -2.27657560842357       -1.77656497102789       -5.56915018147739
H           -1.55938105428830       -0.71819210026945       -4.69533122740610
O           -2.90632664691486        0.44122480700794       -0.35923377512558
H           -2.80435331149846       -0.31476523202283       -0.97476090409726
H           -3.37833820080690        0.09517483364927        0.40306316826938
H            2.55273407268420       -2.03545114109521       -5.22888309360061
H            2.57032372574782       -3.06780424365875       -6.38418295864042
O            3.12449008414672       -2.70876168850706       -5.66919814000917
H           -1.58209972759688       -2.20930612848003        0.16227578080205
H           -1.20211250838032       -2.81133364792810        1.56279316636146
O           -1.29222810672343       -1.97861354596442        1.06255666055008
34
 energy: -54.784887004196 gnorm: 0.019106833382 xtb: 6.7.1 (edcfbbe)
N           -0.18898187965800        0.61959098126305        0.05175515385555
C            0.33492621811410        1.96134387813353       -0.23853260258148
C            0.04668347614993        2.37252108099766       -1.67957775401764
C            0.89691149578158        1.63640114873092       -2.72808914073747
C            0.29496965483087        0.29741867081982       -3.17702100089184
O           -0.05438975307116        0.17439392868003       -4.36888166452099
O            0.19786604299635       -0.61981818490040       -2.32174948570778
H            0.14920500685805        0.27772619495148        0.97322424663861
H           -1.23415544630952        0.61624935151151        0.02686670164787
H           -0.13626199227039        2.67573806322423        0.43661819940090
H            1.41130778527694        1.96839319886035       -0.06024085018444
H            0.25026904410623        3.43923546615131       -1.77567259804862
H           -1.01196311810912        2.21577566520137       -1.89576547604978
H            1.89612386472303        1.43882670720096       -2.33351141486655
H            0.99428655973518        2.24885201273159       -3.62611731058795
H            0.10830840135113       -0.03086480384504       -0.70669667420885
O            0.93966182722261        0.01280316063915        2.50503200257974
H            1.40848765572743       -0.82616695597817        2.54143051349309
H            0.34007589274793        0.04017290489183        3.24795247191444
O           -2.24889134530169       -1.71126552673788       -1.93926613877574
H           -2.62189771357842       -1.70417776301469       -2.83216229375835
H           -1.31643753837980       -1.43877927267078       -2.07886060802907
O           -2.38126508410297       -1.24740129784972       -4.76370727303828
H           -2.27643831250676       -1.77538107767986       -5.56388514791539
H           -1.55768189206084       -0.72305585327751       -4.68470978027928
O           -2.90228505527174        0.44319091477121       -0.35548663140356
H           -2.80050855404484       -0.31849597972664       -0.96508396480521
H           -3.37164343532985        0.10308891629557        0.41251605035035
H            2.59061294738500       -2.01666497804069       -5.25611240356064
H            2.58699945472463       -3.06175421633434       -6.39621531107394
O            3.08124520722363       -2.74117433398525       -5.63762307431818
H           -1.59886594461188       -2.22685993433726        0.14718101005448
H           -1.23145049205812       -2.84094908569030        1.53236000632295
O           -1.31469288678686       -2.00415978038908        1.04811331930485
34
 energy: -54.783967031796 gnorm: 0.043709390416 xtb: 6.7.1 (edcfbbe)
N           -0.18771092973966        0.61996972573589        0.04556052228807
C            0.33490288353597        1.96313890070864       -0.24200327185809
C            0.04576473970538        2.37577629628729       -1.68215550965206
C            0.89711965633134        1.64110873493970       -2.73082065735683
C            0.29782713552228        0.29933467879780       -3.17686713022384
O           -0.05588940655440        0.17610269567991       -4.36749775377702
O            0.20949682704863       -0.61967879770697       -2.32286918274186
H            0.15108009451165        0.28254567868830        0.96798646822749
H           -1.23284927831327        0.61297164201083        0.01764466143954
H           -0.13678425270202        2.67528225996818        0.43533901345792
H            1.41135526477437        1.97050152450529       -0.06350100294319
H            0.24897330152587        3.44247082824875       -1.77777205056765
H           -1.01281940273046        2.21908752382077       -1.89913082495404
H            1.89764479725074        1.44720562522878       -2.33747752403968
H            0.99109748951603        2.25237957269041       -3.63009909551516
H            0.11220417694713       -0.03094407704566       -0.71107459572443
O            0.94089735860194        0.03423618014622        2.50490835699018
H            1.42153658302853       -0.79779340132406        2.53286934475857
H            0.31858147437085        0.03411337406346        3.24339381216939
O           -2.23974378893041       -1.71429284793051       -1.92345832581594
H           -2.61855220816464       -1.71415892832909       -2.81477074362544
H           -1.30808095163682       -1.44320882676609       -2.07077930947081
O           -2.37712747598739       -1.25713262639344       -4.74858298621269
H           -2.27784824445147       -1.77743889046992       -5.55270246425609
H           -1.55475788981058       -0.73016100145414       -4.67272445113865
O           -2.89913726059988        0.43807645136640       -0.34653724416990
H           -2.79712782531607       -0.32329558982557       -0.95534759722027
H           -3.37116786492458        0.10067281635646        0.42100536459246
H            2.58189829563626       -2.02406823007021       -5.25428242527409
H            2.59215251390749       -3.06920475388637       -6.39640099862596
O            3.09739368740232       -2.73536104884367       -5.64723887307980
H           -1.62984634862518       -2.27231685787169        0.16479831489699
H           -1.24457982876930       -2.80536005480756        1.51675188074441
O           -1.32577323085758       -2.01580537592060        1.01191735488015
34
 energy: -54.785328346327 gnorm: 0.011275832144 xtb: 6.7.1 (edcfbbe)
N           -0.18544065654886        0.62193955006304        0.04865276603370
C            0.33572461144741        1.96497859172051       -0.24194522877907
C            0.04574158379333        2.37691150075921       -1.68231624519053
C            0.89726250252693        1.64272813030073       -2.73125012653453
C            0.30130121383292        0.29947386542204       -3.17704221488579
O           -0.05674166597571        0.17690220189426       -4.36639160049094
O            0.21059515422153       -0.61809656172553       -2.32171367116029
H            0.15433359713998        0.28655449116941        0.97158311436526
H           -1.23078257060356        0.61422484301897        0.02137170888172
H           -0.13565403345675        2.67763372826018        0.43506322888898
H            1.41231314483014        1.97310325438379       -0.06446381041989
H            0.24813228053125        3.44383004156642       -1.77808211256430
H           -1.01279481409812        2.21968193923723       -1.89905118824830
H            1.89832434110992        1.45085242821948       -2.33839128114858
H            0.98977781973898        2.25376984516925       -3.63080205081160
H            0.11468342537557       -0.02955619410865       -0.70754168449466
O            0.94626996715062        0.04589208604410        2.50758623090070
H            1.43755621528276       -0.78243002707256        2.53150009103744
H            0.31394810683046        0.03297205844353        3.24284044376539
O           -2.23414273089744       -1.71591646002297       -1.91624512199224
H           -2.61557627780631       -1.72137841548169       -2.80668491282065
H           -1.30344732646758       -1.44330299019246       -2.06735424943260
O           -2.37591306530016       -1.26019701846909       -4.74217190230606
H           -2.27994877281049       -1.77660861591542       -5.54923761570873
H           -1.55333519107387       -0.73383741634849       -4.66688707321118
O           -2.89736867765139        0.44019193992768       -0.34465529915203
H           -2.79455482601962       -0.32046854732727       -0.95348282621243
H           -3.36861000115493        0.10243751790538        0.42239782502054
H            2.58317561045941       -2.02609163243963       -5.25673756491505
H            2.59637961231655       -3.07092179095830       -6.39767265421147
O            3.09734175706797       -2.73649507566902       -5.64721614476479
H           -1.63357328176470       -2.23656474700022        0.12627527497853
H           -1.28665524801600       -2.86740146923777        1.49679387643025
O           -1.33819171250719       -2.03005785093875        1.02135309535497
34
 energy: -54.785451981207 gnorm: 0.019413804483 xtb: 6.7.1 (edcfbbe)
N           -0.18532923206591        0.62547798284953        0.04585218567677
C            0.33551850533074        1.96881755718637       -0.24509955809196
C            0.04557454472603        2.38162579881906       -1.68492904112864
C            0.89725587689739        1.64835851466004       -2.73424299116108
C            0.30343694004231        0.30321856701978       -3.17741755337662
O           -0.05732159526069        0.17886966442682       -4.36585760730002
O            0.21957118784109       -0.61493775681890       -2.32206671726177
H            0.15514857572148        0.29524731912829        0.97047604919357
H           -1.23114473061557        0.61763867769457        0.01619384017810
H           -0.13574894777593        2.68061853923796        0.43284016259168
H            1.41212608439623        1.97694473694671       -0.06794559621681
H            0.24721527911653        3.44882968172737       -1.77970258304453
H           -1.01278257802072        2.22350880344051       -1.90175755306392
H            1.89961876883309        1.46023866172886       -2.34283192339336
H            0.98612023240082        2.25865110694946       -3.63466323107103
H            0.11753420836923       -0.02662846404101       -0.70858693607820
O            0.93813306541312        0.05520974627133        2.49408622228648
H            1.44522159407998       -0.76138657912260        2.54536901936688
H            0.35884526525687        0.07734679960597        3.24657200307313
O           -2.21905490280546       -1.72264890569138       -1.89480981883007
H           -2.60524305560648       -1.73610926418662       -2.78245876353050
H           -1.29093590765012       -1.44528983152844       -2.05253985978559
O           -2.36898253351040       -1.27498361592463       -4.72208735075859
H           -2.28316707370813       -1.77663957861916       -5.54089129258934
H           -1.54831187879514       -0.74476172479332       -4.65211525634921
O           -2.89590158356283        0.44383393613588       -0.34072007262420
H           -2.78905942658917       -0.32286387409545       -0.94245867748177
H           -3.36130072103718        0.10863584137380        0.43215329538016
H            2.57856368637257       -2.03570798921544       -5.25788393929314
H            2.60441818510163       -3.07972410739579       -6.39860974034404
O            3.11122753722288       -2.73150514214188       -5.65649507980717
H           -1.66521094189494       -2.24080084009862        0.09678330896070
H           -1.35359272198582       -2.91942127377335        1.45965473347487
O           -1.37231161473410       -2.06490978715884        1.00427139860102
34