34
 energy: -54.796856767985 gnorm: 0.000766075068 xtb: 6.7.1 (edcfbbe)
N           -0.25046522613144        0.62615573944084       -0.23722499072597
C            0.29545168664973        1.97923343246433       -0.41845935363902
C           -0.05626679591629        2.54040858201581       -1.79405880304534
C            0.72552037814506        1.89861534991832       -2.95335812557066
C            0.07799037329851        0.62825659097306       -3.51837142886372
O           -0.32461531973201        0.64217038600890       -4.69641697880790
O           -0.01973794060145       -0.37620296102557       -2.75986632336848
H            0.15650851693676        0.15975937651618        0.60625586531785
H           -1.29125590031850        0.65422853452882       -0.16933576966569
H           -0.11765926714495        2.63177004028257        0.35115253237439
H            1.37983348795145        1.94245386918828       -0.30185910488696
H            0.16934864814642        3.60692343660063       -1.79381662274308
H           -1.12823917849011        2.42949851703789       -1.96986387925258
H            1.73675088832762        1.64376815853304       -2.62850117228749
H            0.79788046616188        2.59918125824280       -3.78700626168242
H           -0.03072777448774        0.06433940908931       -1.08573324902735
O            0.88704124285171       -0.64989479062298        1.88749396583057
H            0.97767333327472       -1.54783816424932        1.51065195820488
H            0.44027109799743       -0.74746131558672        2.73354118854194
O           -2.66594763281407       -1.13289433046388       -2.48300614157417
H           -2.97892037548997       -1.10733866756004       -3.39929231142838
H           -1.70369264837630       -0.99020097821725       -2.56281612371825
O           -2.61232943620399       -0.75177406540478       -5.28527926377584
H           -3.05999109542411       -0.24385063463666       -5.96860565938413
H           -1.74533973682721       -0.31462769355043       -5.15215275047327
O           -3.00788680870245        0.58763089323148       -0.37804772324130
H           -3.03496233631760       -0.00912605324919       -1.15191921538297
H           -3.55153598545729        0.17504714604093        0.29955816169597
H            0.78330458512159       -1.98149051264572       -2.41207830170313
H            0.92531485109823       -3.48370727740100       -2.76209170088664
O            1.15298733472566       -2.82403022261338       -2.10128352114934
H            1.03672988032857       -2.99873227602346       -0.29234298537040
H           -0.01903664445203       -3.59265839770821        0.66804924180222
O            0.79920386546263       -3.08615388564138        0.64803127720676
