34
 energy: -54.788532693289 gnorm: 0.000349172027 xtb: 6.7.1 (edcfbbe)
N           -0.08715779298596        0.80246430227938        0.09993399272360
C            0.28535129633265        2.18659427818037       -0.22936941512211
C           -0.12442501031669        2.54854098962482       -1.65466071328088
C            0.72972348395144        1.88189344549706       -2.74616223538992
C            0.24816482277350        0.47716692047300       -3.13911988155579
O           -0.16985501446024        0.30169144064054       -4.30148433806624
O            0.29943521980936       -0.43032826407175       -2.26861687751883
H            0.33220121182770        0.50054819656118        0.99847435921492
H           -1.13033434352850        0.69759873453186        0.14315072659348
H           -0.21355602388195        2.86114395645430        0.46691123332750
H            1.36482293065397        2.30161316783454       -0.11779921916808
H           -0.02660750264851        3.62810376930741       -1.77137698923249
H           -1.17481202877331        2.29391298784077       -1.80846223654765
H            1.76794359893273        1.80223380986403       -2.41626055308326
H            0.70200303974937        2.48108378409911       -3.65780201721865
H            0.22679545979819        0.17943034877337       -0.67766311261059
O            1.07588886885276        0.07178334987302        2.52637144700326
H            1.54654925982285       -0.76533798267139        2.57188042272175
H            0.54996020938204        0.15460875444461        3.32764058953932
O           -2.06710602792488       -1.69060105150139       -1.80934869456212
H           -2.43117130012162       -1.78516752841024       -2.70156817491845
H           -1.15059642903610       -1.37801692300116       -1.95853393286086
O           -2.25386292378782       -1.45332902839244       -4.60836515611484
H           -2.13069227009427       -1.95255188269823       -5.42067569507174
H           -1.50755530265876       -0.81880460026521       -4.56502022262975
O           -2.77957207951974        0.34012455441165       -0.04634057870222
H           -2.69002217081556       -0.29145560638840       -0.78487015536266
H           -3.06722705903132       -0.20271689264521        0.69795052908868
H            3.15853650820496       -2.81199773251141       -5.50626486711729
H            3.14183925899031       -3.32970452984472       -6.96459231346506
O            3.68969696032255       -3.25239587703236       -6.17694760840353
H           -2.30967630873143       -2.35323032166921       -0.04014782243235
H           -2.10258492128830       -3.30722288562745        1.15680863976064
O           -2.42196752824292       -2.43292248339394        0.92041194661829
