34
 energy: -54.541964570466 gnorm: 0.425671394025 xtb: 6.7.1 (edcfbbe)
N           -0.18740803480000        0.55101028720000        0.04566233870000
C            0.32269316430000        1.90443672220000       -0.22355649110000
C            0.03688910020000        2.32887101540000       -1.66112034010000
C            0.88707030940000        1.59502104930000       -2.71164191900000
C            0.27979825550000        0.25929815180000       -3.17112162910000
O           -0.09266435030000        0.16319403100000       -4.35795984240000
O            0.18676628300000       -0.66835981610000       -2.32616609590000
H            0.15746250000000        0.19168115450000        0.95435884560000
H           -1.23246843040000        0.53642747340000        0.03100932210000
H           -0.15788577910000        2.60599174990000        0.45874677190000
H            1.39895338010000        1.91996993770000       -0.04420067050000
H            0.24561502120000        3.39533356810000       -1.74873503570000
H           -1.02171238750000        2.17950927320000       -1.88270715260000
H            1.88578533220000        1.39475985930000       -2.31747126640000
H            0.98563283770000        2.21030421300000       -3.60742710910000
H            0.10723288210000       -0.07939877600000       -0.73653825300000
O            0.77694416980000       -0.31995655180000        2.51628930770000
H            1.12375315190000       -1.21390017870000        2.58323333630000
H            0.27606919560000       -0.14031557760000        3.31792700170000
O           -2.36273537840000       -1.67479669460000       -2.09351197840000
H           -2.67092883720000       -1.58310535250000       -3.00960480210000
H           -1.40037383920000       -1.51250077760000       -2.15304572070000
O           -2.42717165690000       -1.17789533100000       -4.85635620650000
H           -2.27450501490000       -1.78753059950000       -5.58450855800000
H           -1.59091052600000       -0.67807374060000       -4.74740055250000
O           -2.90316927140000        0.29151690710000       -0.28730360510000
H           -2.82527179110000       -0.41217470180000       -0.96630806290000
H           -3.50334822420000       -0.04844827660000        0.38327356560000
H            0.07754683200000       -1.60061328510000       -4.00328437860000
H           -0.04641231490000       -2.67281953590000       -5.11405961040000
O            0.44027393980000       -2.45710041900000       -4.31302227540000
H           -0.03353694410000       -1.70745661700000       -1.34588007270000
H            0.22124457070000       -1.70182162680000        0.18181322980000
O            0.06397238850000       -1.11959904140000       -0.56743566190000
34
 energy: -54.666884009592 gnorm: 0.166656444715 xtb: 6.7.1 (edcfbbe)
N           -0.20322722554139        0.64630534672996        0.08403329010322
C            0.32174030205092        1.95532224908736       -0.20981459260963
C            0.03682944901776        2.33358107684668       -1.66109339078169
C            0.88768374085877        1.60370151576469       -2.71648905738205
C            0.28089979043836        0.29449016875910       -3.22066545136367
O           -0.10172809026454        0.19915380920363       -4.40190521835543
O            0.19927917706585       -0.64841193911510       -2.42429013743270
H            0.14454927903413        0.24964789935772        0.96991429033797
H           -1.23762617043896        0.58134448988809        0.04989909222387
H           -0.15301127364631        2.65574441577291        0.46506425349363
H            1.39977063247877        1.93029854322778       -0.03949565706514
H            0.24444036893318        3.39862639396911       -1.75349407989487
H           -1.02202281943717        2.18134775016464       -1.88179685940457
H            1.88420861557783        1.39483825484836       -2.31967028480941
H            0.98834041517708        2.21923575329643       -3.60879913586267
H            0.10241604344997       -0.10169879081077       -0.69279107694466
O            0.77491299028125       -0.32220971049685        2.51750308131547
H            1.12671999036851       -1.21383150952357        2.58748719261691
H            0.27668162648286       -0.14000061468987        3.31880241588299
O           -2.36794154405015       -1.67858510915581       -2.09705302661601
H           -2.67734862434609       -1.58437104928037       -3.00956564274142
H           -1.40968747364225       -1.50361363290260       -2.16316421860147
O           -2.42661453401997       -1.18120429996524       -4.85402397788494
H           -2.27744397889658       -1.78612875450344       -5.58616261715102
H           -1.59486727326990       -0.67236805030523       -4.75222896558868
O           -2.90846176205373        0.29197519108489       -0.28892224899846
H           -2.82525113499463       -0.41326722765562       -0.96664182725814
H           -3.50467371022430       -0.04918479549457        0.38279558641420
H            0.09134925818504       -1.61078610386646       -4.01927697281418
H           -0.04328259470908       -2.67862618160797       -5.12026399009723
O            0.43562386996026       -2.47652148984145       -4.31401240225218
H           -0.00380622537481       -1.81149262772498       -1.33688294316307
H            0.23199559140753       -1.82131853015375        0.23283328386429
O            0.07275382774185       -1.27053394740762       -0.52788228187933
34
 energy: -54.710815174782 gnorm: 0.099170767363 xtb: 6.7.1 (edcfbbe)
N           -0.21334419208855        0.67822053804386        0.09633353861143
C            0.32267188781608        1.97771662399166       -0.21444933453687
C            0.03740575737370        2.35412587480063       -1.66704952359574
C            0.88796829569806        1.62827443488770       -2.72505016113176
C            0.27553593195278        0.33206333729036       -3.23964630220477
O           -0.11088254334779        0.24419529682408       -4.42792275291691
O            0.19659259470346       -0.62885581032992       -2.45894042397283
H            0.12874021079525        0.28388671225728        0.98097842815998
H           -1.24193344896363        0.60667410138335        0.05232682304612
H           -0.13570096329961        2.71014398703891        0.44776869665441
H            1.40067680003273        1.95002767921659       -0.04416279353063
H            0.23841642917607        3.41919345994913       -1.76799397965293
H           -1.02090318105282        2.18795290406259       -1.88004365706480
H            1.87779855375452        1.39692446446186       -2.32373378591834
H            1.00052606367188        2.25374272239703       -3.60957217404726
H            0.09496728296863       -0.13162091389371       -0.64155073610637
O            0.77512264373590       -0.32537781482663        2.52421921648785
H            1.13479443137755       -1.21287797631640        2.60057409919651
H            0.27583859311099       -0.14011121069277        3.32392452049940
O           -2.37820500125706       -1.68475713415211       -2.10316904725075
H           -2.69092690460478       -1.58779568620074       -3.01399273750586
H           -1.42815393469581       -1.47890968209241       -2.17070635589431
O           -2.42503357133491       -1.18624738147264       -4.84931026374744
H           -2.28335060337943       -1.78129429661871       -5.59103998132913
H           -1.60277385777985       -0.65770503797241       -4.76378250553401
O           -2.92305957311613        0.29462314419041       -0.29539761691374
H           -2.82469928382978       -0.41573407935799       -0.96526000461779
H           -3.50827363225703       -0.05300118977135        0.38261443444946
H            0.12693161877442       -1.63807146275959       -4.03322183090063
H           -0.04098019284642       -2.69072400856015       -5.14282749997768
O            0.42957677256970       -2.52115983994034       -4.32375886943558
H            0.04005730348072       -1.89322329221516       -1.31070983072427
H            0.24747662432936       -1.92648402728396        0.28354419199206
O            0.08032362213199       -1.39235594283815       -0.48704535128706
34
 energy: -54.740524088453 gnorm: 0.062664752067 xtb: 6.7.1 (edcfbbe)
N           -0.22317334872134        0.70280538044878        0.10341851807403
C            0.32697340068239        1.99692238436940       -0.22564736631928
C            0.03579616457848        2.37577747985775       -1.67691334007862
C            0.88736664582733        1.65519258453575       -2.73786465295298
C            0.26943688150647        0.37033065254467       -3.26344713941194
O           -0.11953417936999        0.29426228874569       -4.45695766282361
O            0.18055414824416       -0.60184427812631       -2.49072787926617
H            0.11195867880069        0.32570137333354        0.99762748872395
H           -1.25021600798202        0.64358942024204        0.05281125407747
H           -0.11800300137360        2.75115074826224        0.42983188699673
H            1.40421861174750        1.97026199626408       -0.05203129285666
H            0.22705615517871        3.44180877369270       -1.78169441783731
H           -1.02172834141935        2.19696916737854       -1.88230156556935
H            1.86901405362583        1.40199797275365       -2.32892419968285
H            1.01778670843421        2.29281921873068       -3.61187663098890
H            0.08005419971163       -0.14560277401157       -0.57899720756622
O            0.77333607675198       -0.32676393507224        2.53268659079237
H            1.14599570882145       -1.20796742275648        2.61695068851556
H            0.27409389600236       -0.13964388227406        3.33220534019317
O           -2.38707722211730       -1.68419090865938       -2.10760596197808
H           -2.70142639773100       -1.59391801100366       -3.01975933252654
H           -1.44416425006782       -1.44917984047299       -2.17224442255795
O           -2.42299331740223       -1.18597135401824       -4.84751887730038
H           -2.29176666077573       -1.77355821669954       -5.59712637568849
H           -1.60824769934258       -0.64425213258272       -4.77540456580344
O           -2.93880383966952        0.29710868362526       -0.30064925538669
H           -2.82736870812206       -0.41659508198564       -0.96357627103614
H           -3.51159108512352       -0.05881307863466        0.38435318440901
H            0.16024749959533       -1.67615708715751       -4.03646380869083
H           -0.03788776488700       -2.70201016779244       -5.16696663525618
O            0.42879075861455       -2.56393971624709       -4.33840494716053
H            0.09460920608722       -1.98897997222252       -1.28374652029662
H            0.27098115907881       -2.05459546987881        0.33214877157004
O            0.08891240441634       -1.53125630168829       -0.44323696501707
34
 energy: -54.757463285613 gnorm: 0.043519858911 xtb: 6.7.1 (edcfbbe)
N           -0.23249946508475        0.71161091305112        0.11115453653326
C            0.33101662391655        2.00609387508751       -0.23971582522889
C            0.03279784722171        2.39338297542192       -1.68759479396422
C            0.88637982518828        1.68056653729906       -2.75229453541801
C            0.25307457117762        0.40517569317815       -3.28717763787220
O           -0.12713779650462        0.34213563601441       -4.48510345479349
O            0.15541074836035       -0.57316410196864       -2.51684974707573
H            0.09188293235102        0.36708283494051        1.02572974946609
H           -1.26340402942686        0.68042967165573        0.05542531776071
H           -0.10417898728650        2.77022294931939        0.41304205782094
H            1.40836107417085        1.98293065151442       -0.06771160481162
H            0.21375755863019        3.46177305412347       -1.79241857433821
H           -1.02388391839058        2.20796577669878       -1.88908913463363
H            1.86053398323587        1.41014778010757       -2.33645971730729
H            1.03582268947558        2.33120986824510       -3.61480034230463
H            0.05992798318276       -0.14065292585017       -0.51683508668706
O            0.76761754577072       -0.32150412042002        2.54366323556968
H            1.16019705471485       -1.19382879820066        2.63406783496252
H            0.27134654744337       -0.13783730799038        3.34601313268783
O           -2.39452407710720       -1.67827816108272       -2.10977843667291
H           -2.71030935044994       -1.59935407595016       -3.02353491897791
H           -1.45699139922275       -1.41863719518620       -2.17071493971261
O           -2.41948821638979       -1.18222920647147       -4.84721301550070
H           -2.30110974083395       -1.75980978890306       -5.60705050459218
H           -1.61309449864493       -0.62641915528564       -4.79033563093600
O           -2.95184185933860        0.30001128007594       -0.30207942323036
H           -2.83220727964932       -0.41475528152339       -0.96143754923420
H           -3.51482787423979       -0.06397949000178        0.38724589594209
H            0.19755847282341       -1.72272316706039       -4.02834289692769
H           -0.03246923111297       -2.71214415391002       -5.19142019062829
O            0.43052539949081       -2.61206957209219       -4.35281435886470
H            0.16385827304410       -2.08117855878352       -1.26193019129230
H            0.30457024237822       -2.18495526744127        0.36284430552925
O            0.09652888470703       -1.65576067511030       -0.40453712596837
34
 energy: -54.767302745442 gnorm: 0.022678865727 xtb: 6.7.1 (edcfbbe)
N           -0.24178879908871        0.71244118783621        0.11925933140517
C            0.33291577087621        2.00759490048962       -0.25284266877787
C            0.02627821701754        2.40327591218995       -1.69662754718474
C            0.88287240612341        1.70120706192445       -2.76629148301369
C            0.24443602259578        0.42941309140984       -3.31658774886770
O           -0.14121250041180        0.39089156704821       -4.51227261835247
O            0.12564250728559       -0.54877738160930       -2.54508412544486
H            0.06871972883003        0.40957570276155        1.05933987214130
H           -1.27856620602657        0.71276475156623        0.06063638607712
H           -0.09438827525228        2.77172543617653        0.40255509098282
H            1.41159377085238        1.98306356380195       -0.08940272217470
H            0.19833871583656        3.47477320633521       -1.79497359771321
H           -1.02974323392094        2.21613898008538       -1.89836285964105
H            1.85170024853931        1.42028994670632       -2.34739885362220
H            1.04686341739995        2.36414610181109       -3.61737943819049
H            0.03838651243535       -0.12170007510062       -0.46327493995547
O            0.75648181023899       -0.30414594220505        2.55855471054677
H            1.17438402906925       -1.16532405221141        2.64708388529979
H            0.26479301678570       -0.13471816049926        3.36710234853023
O           -2.40056750295653       -1.66436966020179       -2.10953602304174
H           -2.71465882310336       -1.60073748049275       -3.02543751476954
H           -1.46613508993170       -1.39335392072512       -2.16657668860870
O           -2.41694594823046       -1.17015794025751       -4.85245214669760
H           -2.31234829486947       -1.73591400734663       -5.62336090855415
H           -1.61676754010072       -0.60658543536758       -4.80577383330465
O           -2.96091517527339        0.30591234371520       -0.29847633320037
H           -2.83696070824115       -0.40697665246541       -0.95870438470091
H           -3.51575690859328       -0.06789574846051        0.39246135300725
H            0.22841418740387       -1.77849214504882       -4.00759227171896
H           -0.02116619993181       -2.72337470704700       -5.20823106887362
O            0.44172590927213       -2.65687251171905       -4.36629085195708
H            0.23754834343932       -2.16854003671931       -1.23854989839319
H            0.35680822637347       -2.31646708187736        0.37069616595144
O            0.10321889915861       -1.76735232100149       -0.37426218788418
34
 energy: -54.772006648358 gnorm: 0.024522337093 xtb: 6.7.1 (edcfbbe)
N           -0.25053459716049        0.70778338827733        0.12625557113931
C            0.33194904961288        2.00119473758606       -0.26339433291623
C            0.01726310635360        2.40500570599729       -1.70280360383803
C            0.87528628085350        1.71399529580845       -2.77752340875921
C            0.21247186090901        0.45194139629149       -3.33719226784055
O           -0.15020591961467        0.42898746688560       -4.53739851773652
O            0.09749818607726       -0.53401573364041       -2.57284135534205
H            0.04397867069130        0.44478397823328        1.08840599304938
H           -1.29142258776211        0.72759889860554        0.06375410183122
H           -0.08691591194432        2.76209786542355        0.39782713934030
H            1.41243463185050        1.96994893672741       -0.11300128577772
H            0.18486544517769        3.47876491523527       -1.79186024340345
H           -1.03863709213551        2.21915063236384       -1.90673297155889
H            1.84167305888987        1.42361519146291       -2.35978149443913
H            1.04705179608568        2.38616109464252       -3.61986303704458
H            0.02794790625444       -0.10692635961472       -0.42926664358913
O            0.73972021466946       -0.26801756864570        2.57955754085322
H            1.18735754672068       -1.11653870415079        2.65100837096770
H            0.24917003728522       -0.13087948666747        3.39598733897243
O           -2.40718690083853       -1.64399138151569       -2.10759977100694
H           -2.71602992470900       -1.59138707936753       -3.02549527580694
H           -1.47257995893106       -1.37448170751630       -2.16038674579583
O           -2.41190635284196       -1.15375076116182       -4.86048285302155
H           -2.32216312466511       -1.69714530341320       -5.65074758353925
H           -1.61992729260052       -0.57706795511216       -4.82474250618583
O           -2.96530566056081        0.31745113791613       -0.29092425808896
H           -2.84205664381965       -0.38849319853892       -0.95884621805585
H           -3.51346731592649       -0.06866175678012        0.39895121067825
H            0.25626218544969       -1.83764189539076       -3.96925031954609
H           -0.00040380108302       -2.72565972842239       -5.21847920830124
O            0.45547544118908       -2.70300534068993       -4.36700728288893
H            0.31054791400801       -2.24796158076831       -1.21659135675297
H            0.42417095113710       -2.43704530071021        0.35782996115053
O            0.11681933498041       -1.86435130584763       -0.35541825744822
34
 energy: -54.774377437685 gnorm: 0.027060252156 xtb: 6.7.1 (edcfbbe)
N           -0.25487596560471        0.69963627729337        0.13023595938053
C            0.33119529123591        1.99015559844763       -0.26861877538022
C            0.00551204386483        2.40009391268729       -1.70325248183625
C            0.86367658886368        1.71957595011104       -2.78407854104183
C            0.22023397858240        0.45224970278579       -3.36060890245887
O           -0.17408156913711        0.46303101430182       -4.55057392785009
O            0.08684576640216       -0.53491261773576       -2.59989840795908
H            0.02267628904735        0.46519170426279        1.10659841360215
H           -1.29763250804285        0.72340672882688        0.05903693858492
H           -0.07837924473587        2.74852244324515        0.39936986564725
H            1.41328932490608        1.95122607823427       -0.13265656006269
H            0.16689873122019        3.47631779435957       -1.78327872791177
H           -1.05051355530422        2.21284565398534       -1.90673865415133
H            1.83238128211645        1.43301996031188       -2.37372735648657
H            1.03005307096569        2.39988155083539       -3.62022391383969
H            0.03749175356199       -0.10713134903422       -0.41626050818295
O            0.72260571055382       -0.21794876325955        2.60613522837573
H            1.19787585561826       -1.05448633041537        2.65052545818593
H            0.22484812713851       -0.12518485337529        3.42679411312827
O           -2.41435623543325       -1.61590710197461       -2.10670482487564
H           -2.71778407325381       -1.57657467791005       -3.02671530354226
H           -1.47673594692295       -1.35649010327468       -2.15836797786781
O           -2.41331398557206       -1.12793765009287       -4.87506035583689
H           -2.33618888494811       -1.64907351602142       -5.68204601894209
H           -1.62318135202219       -0.55215085959699       -4.83669967442437
O           -2.96651309238969        0.33594099978720       -0.28493123817220
H           -2.84871590379041       -0.36301868630455       -0.96157600524401
H           -3.50809817407771       -0.06026017365090        0.40475901570193
H            0.27027874473290       -1.88914582393465       -3.92837170407358
H            0.02312269662252       -2.73943422450539       -5.20296158939866
O            0.48593504537839       -2.72993511685453       -4.36239552782142
H            0.36113612397196       -2.31483477382859       -1.20280264495700
H            0.47045968808826       -2.53852538883311        0.33553896212029
O            0.13705491196673       -1.94668486536943       -0.34849790311185
34
 energy: -54.776361752035 gnorm: 0.021969338418 xtb: 6.7.1 (edcfbbe)
N           -0.25806990591090        0.68430207888863        0.13254485789914
C            0.32934909714329        1.97227809801171       -0.27049729097765
C           -0.00635845143727        2.39049344516816       -1.70070153314815
C            0.84849806219861        1.72302055756088       -2.79124430043227
C            0.19179746829102        0.46309566652805       -3.37410715477951
O           -0.18958929284779        0.48676534210083       -4.56548335042570
O            0.08454665386686       -0.53832871452525       -2.62852654300015
H           -0.00027175554301        0.47108191168972        1.11799156070817
H           -1.30111852510793        0.70046147449645        0.04492374291869
H           -0.06818659639691        2.73023806158695        0.40472458729049
H            1.41271912991524        1.92494970790828       -0.14944852500816
H            0.15169205381154        3.46781943820209       -1.77303208318897
H           -1.06290715813341        2.20313298586946       -1.90258076609566
H            1.82123832130397        1.43486361251388       -2.38998010887326
H            1.00631975277057        2.40928171040727       -3.62397995371223
H            0.06255065755926       -0.11936051251617       -0.41579848641645
O            0.70601931300195       -0.15018394035601        2.63967317355492
H            1.20004526777749       -0.97607898949163        2.65560218303129
H            0.19244746416508       -0.10490266395432        3.45680311405140
O           -2.41998513294719       -1.58481481179650       -2.10489571731082
H           -2.72094338400223       -1.55039411584879       -3.02474801395228
H           -1.47733330150301       -1.34113078081936       -2.15895820706890
O           -2.41173737298251       -1.10445841308286       -4.88916712163063
H           -2.34863220055302       -1.58758538698513       -5.72369530902420
H           -1.62870507154339       -0.51578690906424       -4.85234932483007
O           -2.96613845110549        0.35968313374094       -0.28053489061333
H           -2.85846783075790       -0.33409990344850       -0.96499181298670
H           -3.49934459153024       -0.04327196323890        0.41188529752979
H            0.29818328863327       -1.94547056233671       -3.86059021563656
H            0.05886023920833       -2.71984089033931       -5.19702400984383
O            0.49823594879126       -2.77855122133789       -4.33096812196992
H            0.42762706151502       -2.38219499817374       -1.20418373382881
H            0.50445627449204       -2.64301189495478        0.30544038277388
O            0.16640350146203       -2.03054205889865       -0.35015589570621
34
 energy: -54.777555965980 gnorm: 0.028464492323 xtb: 6.7.1 (edcfbbe)
N           -0.25276946575343        0.65877563226023        0.13187764526499
C            0.32933106667542        1.94849330648814       -0.26695396191598
C           -0.01916161835540        2.37832327069969       -1.69158369948160
C            0.83090035872479        1.72799134003984       -2.79611917123109
C            0.16477861442922        0.47778873199049       -3.39107773723539
O           -0.21835451203871        0.52305574898344       -4.58096750133339
O            0.08728927652855       -0.54394935346309       -2.66700924750598
H           -0.00819806624259        0.45399024466171        1.11698546630299
H           -1.29518149891345        0.65798250017765        0.02940750866931
H           -0.05451999084294        2.70611428765478        0.41752371346239
H            1.41380230963435        1.89676232196127       -0.16150108147623
H            0.13428537467335        3.45655601788733       -1.75626579788828
H           -1.07633318766171        2.18849410620304       -1.88855978654144
H            1.80987472954364        1.43894809512834       -2.40716109492455
H            0.97548765190478        2.42341915197431       -3.62464120966563
H            0.09649924390252       -0.13937217537874       -0.43003582511591
O            0.68827053624271       -0.07828797659458        2.67359366054785
H            1.19859058293113       -0.89221829450914        2.67395608640436
H            0.16080750934221       -0.06808504331519        3.48129027937242
O           -2.42809410515973       -1.54868915791088       -2.10843893317160
H           -2.73101339092167       -1.51602511718846       -3.02648851831274
H           -1.47893254130087       -1.32871727670663       -2.17021591200803
O           -2.41955606922320       -1.07019101177678       -4.91262722536861
H           -2.36536475002997       -1.52895154670200       -5.75716287764282
H           -1.63548355167668       -0.48335722529894       -4.86483817509412
O           -2.96035033408936        0.38575708742481       -0.27804237909789
H           -2.86983370805656       -0.30424896896221       -0.96979236746364
H           -3.48662861796007       -0.01747745803473        0.41891656495304
H            0.29915331298153       -1.97971493716498       -3.81130626802784
H            0.08105201415811       -2.76757070093687       -5.11297027609721
O            0.55816305697371       -2.77756402122194       -4.29940664626821
H            0.47602887642628       -2.44112667078925       -1.22478166708473
H            0.53364751137787       -2.75236004970331        0.26352496485895
O            0.20501391538256       -2.11308636437177       -0.36718210058624
34
 energy: -54.779007388489 gnorm: 0.019119905827 xtb: 6.7.1 (edcfbbe)
N           -0.24235644270253        0.63414592082516        0.12919392430594
C            0.33060267539566        1.92910404914016       -0.26225705732349
C           -0.03082668514211        2.36611614670076       -1.68249088871455
C            0.81736079472146        1.73014637458589       -2.79844167258407
C            0.17913118173333        0.47541000489669       -3.40946324846437
O           -0.24255657876245        0.54347073944282       -4.58801657527551
O            0.09878544839522       -0.55147235819500       -2.69427495378987
H           -0.00068787582178        0.42662342956504        1.10969605130660
H           -1.28421057627413        0.61976774196916        0.01979373965056
H           -0.04615443062898        2.68406402912799        0.42970868749205
H            1.41562069117339        1.88009844949717       -0.16622490777738
H            0.11463089744425        3.44580424882650       -1.74158694922075
H           -1.08814267252921        2.16955344353983       -1.87245572719166
H            1.80228236505073        1.45045843010675       -2.41915968627733
H            0.94793584103470        2.43438909490993       -3.62283777057016
H            0.11945301320308       -0.15575742452436       -0.44648964791403
O            0.66634307667185       -0.02123245334678        2.69852856455447
H            1.20368490757051       -0.81996626404491        2.70269365102169
H            0.13090236315019       -0.02823281478562        3.49676604314024
O           -2.43332479155545       -1.52116934321802       -2.11490801430913
H           -2.74423722797058       -1.48704106537978       -3.02970012612270
H           -1.48005815131067       -1.31858052353237       -2.18715478393786
O           -2.42679677319217       -1.05330844467026       -4.92756906560244
H           -2.38128112922724       -1.48595248273125       -5.78566791581820
H           -1.64197170365151       -0.46687765602297       -4.87043047729294
O           -2.95215167040469        0.40385505721394       -0.27844232094749
H           -2.87826754353336       -0.28473174927494       -0.97428200906817
H           -3.47499120120931        0.00577454839013        0.42349274169073
H            0.33529713137360       -2.00400440077506       -3.75463273510235
H            0.10671646890034       -2.74214823444302       -5.09207020171074
O            0.55816720888544       -2.81639707398649       -4.24660746850778
H            0.48727502335054       -2.47330494856961       -1.24965281534197
H            0.54481481075294       -2.83032262189466        0.23246160886205
O            0.23221208871693       -2.16682335583615       -0.38557156386262
34