34
 energy: -54.754969589440 gnorm: 0.063074398709 xtb: 6.7.1 (edcfbbe)
N           -0.18740803480000        0.55101028720000        0.04566233870000
C            0.32269316430000        1.90443672220000       -0.22355649110000
C            0.03688910020000        2.32887101540000       -1.66112034010000
C            0.88707030940000        1.59502104930000       -2.71164191900000
C            0.27979825550000        0.25929815180000       -3.17112162910000
O           -0.09266435030000        0.16319403100000       -4.35795984240000
O            0.18676628300000       -0.66835981610000       -2.32616609590000
H            0.15746250000000        0.19168115450000        0.95435884560000
H           -1.23246843040000        0.53642747340000        0.03100932210000
H           -0.15788577910000        2.60599174990000        0.45874677190000
H            1.39895338010000        1.91996993770000       -0.04420067050000
H            0.24561502120000        3.39533356810000       -1.74873503570000
H           -1.02171238750000        2.17950927320000       -1.88270715260000
H            1.88578533220000        1.39475985930000       -2.31747126640000
H            0.98563283770000        2.21030421300000       -3.60742710910000
H            0.10723288210000       -0.07939877600000       -0.73653825300000
O            0.77694416980000       -0.31995655180000        2.51628930770000
H            1.12375315190000       -1.21390017870000        2.58323333630000
H            0.27606919560000       -0.14031557760000        3.31792700170000
O           -2.36273537840000       -1.67479669460000       -2.09351197840000
H           -2.67092883720000       -1.58310535250000       -3.00960480210000
H           -1.40037383920000       -1.51250077760000       -2.15304572070000
O           -2.42717165690000       -1.17789533100000       -4.85635620650000
H           -2.27450501490000       -1.78753059950000       -5.58450855800000
H           -1.59091052600000       -0.67807374060000       -4.74740055250000
O           -2.90316927140000        0.29151690710000       -0.28730360510000
H           -2.82527179110000       -0.41217470180000       -0.96630806290000
H           -3.50334822420000       -0.04844827660000        0.38327356560000
H            0.07754683200000       -1.60061328510000       -4.00328437860000
H           -0.04641231490000       -2.67281953590000       -5.11405961040000
O            0.44027393980000       -2.45710041900000       -4.31302227540000
H           -1.33349647150000       -1.93229887380000        0.29968825900000
H           -0.65592268470000       -1.93718307360000        1.69240578530000
O           -0.92678810510000       -1.35298735840000        0.97795573780000
34
 energy: -54.769744024180 gnorm: 0.025700642407 xtb: 6.7.1 (edcfbbe)
N           -0.17720678020794        0.59262294315997        0.04218589991950
C            0.33312032944086        1.93790736274978       -0.22859813405232
C            0.04013503204709        2.35081873089088       -1.66609404792260
C            0.89071643290196        1.61337264627241       -2.71164946650746
C            0.27623405716236        0.28522326146040       -3.15964632831663
O           -0.10038135751007        0.17973282198408       -4.34740907026590
O            0.17714328955360       -0.63931233702250       -2.31614668343011
H            0.15195195466511        0.21655142293698        0.95137210188974
H           -1.22171379963241        0.56763050164994        0.02706669094631
H           -0.15084011623072        2.63400938069511        0.45558675411730
H            1.40857477854022        1.94602751029698       -0.04728920018263
H            0.24505346666835        3.41612289032591       -1.76038573291491
H           -1.01849874431857        2.19172759549147       -1.88238945022191
H            1.88693002897115        1.40364943462701       -2.31686794693538
H            0.99107055071870        2.22082473501029       -3.61189169817321
H            0.11381885511561       -0.04815337927156       -0.72779268942990
O            0.83596969859428       -0.27392630617060        2.54868073945298
H            1.15660854317608       -1.18005778465008        2.58965752731387
H            0.28073270231495       -0.12872809590302        3.32311328254354
O           -2.35936355743483       -1.68164894463345       -2.08779902637431
H           -2.67241400453039       -1.58475701580650       -3.00164658877445
H           -1.39993595637375       -1.50468720614037       -2.14863314763174
O           -2.42959302744463       -1.18560434242075       -4.84866578282055
H           -2.28500873241287       -1.77760845279238       -5.59286930280996
H           -1.60931174274117       -0.65438590102108       -4.76324171609831
O           -2.91714913415177        0.31009219728285       -0.30181415288469
H           -2.82324466434778       -0.40614168213791       -0.96509394030276
H           -3.49153061446626       -0.03918735272116        0.38650993253752
H            0.14719060649164       -1.65308699712874       -4.02982846239829
H           -0.03778614951683       -2.70154210574095       -5.14853379989024
O            0.43085745846445       -2.54584099606382       -4.32224926056830
H           -1.35995322647193       -2.01814298652644        0.28871825981318
H           -0.71970335185627       -2.08507560229020        1.69992028712881
O           -1.01715956797798       -1.48055947349197        1.01722286944363
34
 energy: -54.775206184887 gnorm: 0.014928468961 xtb: 6.7.1 (edcfbbe)
N           -0.17908463575984        0.61004335141988        0.05186166435924
C            0.33290656286323        1.95480043237535       -0.22484809490109
C            0.04083000971272        2.36911043007332       -1.66368611648481
C            0.88787426542267        1.62902933784499       -2.71129642435196
C            0.27447168549498        0.30069010388153       -3.15243820521665
O           -0.09174875173561        0.17692054619950       -4.34438652633018
O            0.17836886390404       -0.62376681981125       -2.30972965016241
H            0.14197203731524        0.22609786533528        0.95873608763699
H           -1.22183240666694        0.57785057896948        0.04069289843862
H           -0.14450377395947        2.65950216815323        0.45548969036048
H            1.40941131180202        1.96664401188507       -0.04863327148615
H            0.24216389349366        3.43492915591534       -1.76435353635247
H           -1.01753426387954        2.20743123892535       -1.87755022297121
H            1.88290429361869        1.41815748977743       -2.31423339213934
H            0.99363939307972        2.23549297326941       -3.61171741888288
H            0.10998215209125       -0.03797757915275       -0.71217059475872
O            0.87206337665374       -0.23539384778451        2.55881059257226
H            1.19521212888208       -1.14033124429917        2.58614043325037
H            0.28865900052406       -0.11614485415858        3.31813311107963
O           -2.35326942747251       -1.68339557884721       -2.07649023771776
H           -2.67247520394549       -1.59310160352521       -2.98885858177434
H           -1.39724344338386       -1.49157547742205       -2.14385762075008
O           -2.43842417970956       -1.17602881807557       -4.84566104552980
H           -2.31155512681499       -1.75652181376126       -5.60250147361385
H           -1.61798279183305       -0.64689446621758       -4.76756805882849
O           -2.92894541074112        0.33699263251473       -0.31636041389221
H           -2.82439303623027       -0.39031559081262       -0.96582495538906
H           -3.47220470710383       -0.02285795846190        0.39337384924617
H            0.19468930450830       -1.71875540503573       -4.05727676250123
H           -0.01213777150954       -2.74262900193790       -5.18494950561593
O            0.44093365962517       -2.61957661406059       -4.34300848262752
H           -1.38466913731794       -2.05944820369881        0.27354511360509
H           -0.76813345645656       -2.20508659111847        1.69154574407577
O           -1.07463115727100       -1.56602437545760        1.04257012385325
34
 energy: -54.778668990850 gnorm: 0.015078664101 xtb: 6.7.1 (edcfbbe)
N           -0.18437695462667        0.62766282660340        0.06365400773799
C            0.33096911342778        1.97063112593924       -0.21884873215909
C            0.03530689792530        2.38145445073030       -1.65991773407111
C            0.88297601107403        1.64175094286403       -2.70935782271504
C            0.29030576437522        0.30480115824858       -3.15160836222724
O           -0.07734632986945        0.17000031229369       -4.34283016292440
O            0.17871856987888       -0.61359570338027       -2.30292241479151
H            0.13362186038870        0.24249355948284        0.97047962037329
H           -1.22617791472599        0.59657423684785        0.05398112467203
H           -0.14091719993982        2.68259785499382        0.45842363951945
H            1.40843085172371        1.98257092021316       -0.04566278917987
H            0.23614693712296        3.44768327350777       -1.76148782763385
H           -1.02376336565035        2.22205605286332       -1.87197615286422
H            1.87943080061530        1.43786218699852       -2.31125502749010
H            0.98871693128517        2.25034735938435       -3.60854742117452
H            0.10613570771516       -0.02341281597231       -0.69798420111924
O            0.89601539351541       -0.19194614218753        2.55832063920010
H            1.24291011401546       -1.08753309526533        2.57487860219086
H            0.30461426123011       -0.09686982726840        3.31134404476268
O           -2.34270575366250       -1.68218847126905       -2.05733014636316
H           -2.67371680326954       -1.60466141471168       -2.96639858252538
H           -1.39119155189141       -1.47285414238504       -2.13843377046200
O           -2.44766601400719       -1.16390442086388       -4.83477502552865
H           -2.34913826205906       -1.72036533328943       -5.61584503337313
H           -1.62376399437880       -0.64247689557997       -4.76319030826549
O           -2.93283116677319        0.36403389257881       -0.32369122697741
H           -2.82939973840559       -0.36446395041403       -0.97009572590274
H           -3.44720250367360       -0.00509252318494        0.40316211560818
H            0.24555090245553       -1.79096514778619       -4.09035535973547
H            0.02300002727600       -2.79928515850209       -5.22202976685726
O            0.46126409061311       -2.69399825382217       -4.37142519550106
H           -1.41173166376709       -2.08933320240791        0.24730490444729
H           -0.83168023240194       -2.34659412534781        1.66970554273190
O           -1.13519152833493       -1.65511305700985        1.06821326479772
34
 energy: -54.780777760885 gnorm: 0.015092382503 xtb: 6.7.1 (edcfbbe)
N           -0.19081564929660        0.64126519496152        0.07339257549384
C            0.32660459070994        1.98323383942443       -0.21355821156991
C            0.02906067279045        2.39201045638761       -1.65557362786289
C            0.87583948559770        1.65360274950063       -2.70689233630727
C            0.27761019621026        0.31587023254425       -3.14296654824819
O           -0.04855507986806        0.15785766418169       -4.34442616923891
O            0.18885744988963       -0.60751099828688       -2.29572041766962
H            0.13105204483755        0.26262243203979        0.98230504511668
H           -1.23300430444655        0.61507965395736        0.06327760801652
H           -0.14134892337978        2.69950509879604        0.46232995453169
H            1.40452249394547        1.99412951893152       -0.04228299257488
H            0.23208370645877        3.45811543205554       -1.75725753206860
H           -1.03074879903440        2.23540483600768       -1.86564758047042
H            1.87523667189796        1.45540585990562       -2.31096715049096
H            0.97723270753016        2.26273584444569       -3.60648820945213
H            0.10255398372834       -0.00962575103336       -0.68769761610440
O            0.91876827645818       -0.14052820726795        2.55155266740100
H            1.29659514049203       -1.02481770565010        2.55574076128564
H            0.31395066637158       -0.07797709978765        3.29819491051185
O           -2.32505226306552       -1.67742055575068       -2.03375727298416
H           -2.66999075058934       -1.61339880631496       -2.93825005897520
H           -1.37820202774104       -1.44996761605600       -2.13023551189920
O           -2.45283408710290       -1.14661547330259       -4.82128253645767
H           -2.38908904035751       -1.67350472311807       -5.62884169734906
H           -1.62102153079761       -0.63917133032988       -4.75563623319264
O           -2.93225502850176        0.38888262468110       -0.32322372159121
H           -2.83113925332911       -0.33970984854311       -0.96859703322949
H           -3.42298002854917        0.01409284253640        0.41595394691320
H            0.30467779555901       -1.85941799205852       -4.12369664204489
H            0.06558883589341       -2.85624763430360       -5.26421023939229
O            0.47553319352478       -2.77553909793122       -4.39419893950075
H           -1.46843803213273       -2.12460460694582        0.23800798471244
H           -0.91446966190977       -2.48290792681903        1.64391881378796
O           -1.17051019459242       -1.75298243395480        1.07023272710338
34
 energy: -54.782150331753 gnorm: 0.020336469831 xtb: 6.7.1 (edcfbbe)
N           -0.19783811284143        0.65079529006827        0.08408573829502
C            0.32049978327389        1.99203542968446       -0.20962643682232
C            0.02136753519164        2.39766238109886       -1.65207003584523
C            0.86917160474532        1.66171188063378       -2.70457720284215
C            0.30328265566623        0.30858572976659       -3.14379609350192
O           -0.02935379099168        0.14874330167941       -4.34027224862784
O            0.19146784162281       -0.60208692228371       -2.28385658790041
H            0.13141787961460        0.28448212223094        0.99690165438352
H           -1.24109427761799        0.63124508294432        0.07102245158505
H           -0.14529957399137        2.71066427532310        0.46527609609234
H            1.39856605266427        2.00269617802098       -0.03999386374157
H            0.22315180459633        3.46448432206286       -1.75361852096990
H           -1.03841913452388        2.24002620134986       -1.86013810162721
H            1.87300711969962        1.47911531366126       -2.31219503565889
H            0.95913827794382        2.27102078120562       -3.60550526415300
H            0.09844753476262        0.00011765215405       -0.67571315202879
O            0.93572374777591       -0.08772924990453        2.54284674810456
H            1.34706077576017       -0.95903464247054        2.53585409737689
H            0.32373028532084       -0.05755589243097        3.28682449493190
O           -2.30868278150361       -1.66780155789322       -2.00623504610447
H           -2.66351159207043       -1.62387590497768       -2.90745536633620
H           -1.36511753521260       -1.43189153572970       -2.11573081859849
O           -2.46262846616218       -1.12342382818365       -4.80585316879388
H           -2.42707700919771       -1.62654838356049       -5.62855947395669
H           -1.61926639027328       -0.63682196152515       -4.73893470220460
O           -2.92981988546442        0.41403665177087       -0.31780249366403
H           -2.82888154566753       -0.31672809897628       -0.96080316574207
H           -3.40393885694116        0.03793800068266        0.42966338486171
H            0.35109025057542       -1.92063555170182       -4.15841312953371
H            0.10587328939522       -2.92473377065049       -5.29343750983901
O            0.50767542766370       -2.83315827590595       -4.42781609728271
H           -1.49681500874193       -2.13632675103410        0.19341557496782
H           -1.01100747383549       -2.63048790735232        1.60250651845038
O           -1.21660717403453       -1.83865388685396        1.07750547292519
34
 energy: -54.782897600854 gnorm: 0.018665990871 xtb: 6.7.1 (edcfbbe)
N           -0.20585634122190        0.65581367027783        0.08763957476996
C            0.31261287295507        1.99742473268285       -0.20854199550502
C            0.01272071079301        2.40095520014525       -1.65061584770691
C            0.86298926895026        1.66873976199284       -2.70358412052316
C            0.32787507907278        0.30031681567627       -3.14464586864627
O           -0.00588299537368        0.13848419106816       -4.33787154187797
O            0.19710542744362       -0.59765568594103       -2.27264001811158
H            0.13104420563219        0.30310354451494        1.00436130257601
H           -1.25014212595727        0.64109600373649        0.06980165670452
H           -0.15367560375576        2.71531943702275        0.46666442264015
H            1.39046836089843        2.00821083985458       -0.03824352332685
H            0.21222356130365        3.46848599578585       -1.75105100970273
H           -1.04668553510464        2.24100380214764       -1.85799664304159
H            1.87121092022108        1.50244247086185       -2.31522923627968
H            0.94017547420153        2.27676824325203       -3.60681565729190
H            0.09417615098421        0.00535808444526       -0.66976956664961
O            0.94080644226602       -0.04394453277375        2.52732287861666
H            1.38270400926696       -0.90045880085863        2.51911910216877
H            0.34036407816332       -0.03104949479033        3.27567513504604
O           -2.29165964364569       -1.65727423247220       -1.97778429373067
H           -2.65514040208985       -1.62507251526321       -2.87491208108016
H           -1.35069658031549       -1.41528737857594       -2.09755180330266
O           -2.46639212751984       -1.09948343202247       -4.78566555008021
H           -2.45794028389714       -1.57441728796744       -5.62511187574716
H           -1.61366150969646       -0.62837413574258       -4.72232377262752
O           -2.92822319272311        0.43328098800520       -0.30819581844305
H           -2.82594655132738       -0.30136354076803       -0.94742712653866
H           -3.38697565274833        0.05653950005628        0.44871041086891
H            0.39757225260274       -1.96704059792624       -4.18952948567033
H            0.16651484185660       -2.96645260189581       -5.33827573268843
O            0.51523903135744       -2.89757310001715       -4.43705372790448
H           -1.53606210430120       -2.19642977114804        0.18257035624286
H           -1.10003699644022       -2.71351489493729        1.57181618831934
O           -1.24551178464954       -1.92008480552174        1.05065398472265
34
 energy: -54.783761105766 gnorm: 0.014908513593 xtb: 6.7.1 (edcfbbe)
N           -0.21036408299058        0.65878604713632        0.09148125518100
C            0.30757681084559        2.00035778796539       -0.20942521023926
C            0.00575948058262        2.40227928914543       -1.65079830008479
C            0.85556795643495        1.67396602287209       -2.70551137573550
C            0.31459543113308        0.30310264975852       -3.13489405629466
O            0.01994082242047        0.12276242673201       -4.33751788151532
O            0.21214696967244       -0.59660284596980       -2.26308779497434
H            0.13381681982817        0.31883352952818        1.01146090914377
H           -1.25544531139963        0.64723958218460        0.07064499881018
H           -0.15924800577013        2.71754630157193        0.46609321532322
H            1.38539437103788        2.01134372171469       -0.03922683038490
H            0.20412720322667        3.46975619030207       -1.75212183885794
H           -1.05362178626385        2.24056538230032       -1.85728627567001
H            1.86815259025690        1.51671485012652       -2.32435746162772
H            0.92059830804400        2.27775699544092       -3.61287466908128
H            0.08992612770554        0.00566006520621       -0.66296532342051
O            0.94844477252363       -0.00181663359580        2.51858403146132
H            1.40505073768627       -0.84872310620014        2.50361904947919
H            0.34801217604742       -0.01021848046549        3.26715312534715
O           -2.27494422853497       -1.65013838011427       -1.94817619562074
H           -2.64542929502262       -1.62149827153456       -2.84109315420630
H           -1.33563809485621       -1.40379462539963       -2.07488601530481
O           -2.46749463232154       -1.07873281000492       -4.76039532170855
H           -2.48645952757672       -1.52419687299338       -5.61762103247007
H           -1.60732118585383       -0.61895850277337       -4.70660550777755
O           -2.92554531003596        0.44809893907741       -0.29583597592974
H           -2.82024912925625       -0.29114927046695       -0.93046370643495
H           -3.37188296173344        0.07137791250342        0.46954322391254
H            0.41944441816990       -2.00484023628481       -4.21813747602270
H            0.21340937013676       -3.02552548761580       -5.35320301150347
O            0.55728811496742       -2.92019394946792       -4.46439313358110
H           -1.55763585217295       -2.21898931666902        0.14381625012374
H           -1.18386028435611       -2.80870390418179        1.52714733734724
O           -1.27879953537333       -1.98419852692374        1.03483286851611
34
 energy: -54.783048965265 gnorm: 0.044700453605 xtb: 6.7.1 (edcfbbe)
N           -0.21199689784479        0.66047757795332        0.09633434070322
C            0.30279076932365        2.00213639545627       -0.21256855073792
C           -0.00210060133471        2.40087072101109       -1.65382022715422
C            0.84948220341150        1.67849512404163       -2.71029073831370
C            0.31065204697564        0.30254628533675       -3.12808760101209
O            0.04748319783166        0.10587344447417       -4.33788486060438
O            0.22799506900375       -0.59571040041779       -2.25434594250821
H            0.13949251938348        0.33355305124621        1.01898544617891
H           -1.25768134827541        0.64880009979118        0.07475184327384
H           -0.16492478587856        2.71924043680486        0.46253053726819
H            1.38079203617266        2.01543136311872       -0.04372430763444
H            0.19173007053996        3.46894967048897       -1.75653878615771
H           -1.06110860117255        2.23462918512490       -1.85955471538090
H            1.86665969692487        1.53351491254946       -2.33633437435005
H            0.90097836294461        2.27792506707880       -3.62163996127752
H            0.08772550004539        0.00310991484302       -0.65467828279967
O            0.95547719680745        0.04156015286743        2.51798458457368
H            1.42922583473425       -0.79529328305679        2.48678555588478
H            0.33928342041148       -0.00427080131307        3.26294055333095
O           -2.25859765099514       -1.64448740638536       -1.91719340624349
H           -2.63578626455531       -1.61819400982016       -2.80649439406668
H           -1.32040528658134       -1.39615811753447       -2.05021224937132
O           -2.46878478004625       -1.05054439808073       -4.73291288479579
H           -2.50845542058424       -1.47783908226495       -5.59340465959760
H           -1.59925307088992       -0.60773224202091       -4.68489268338662
O           -2.92105509920001        0.45713130701211       -0.27948547979283
H           -2.81323003445621       -0.28518232570233       -0.91071484673794
H           -3.36194402733272        0.08323729850785        0.48913363925050
H            0.45901920115710       -2.02566824100211       -4.25185293966281
H            0.29060083384805       -3.05179955910158       -5.39692154196545
O            0.54480017971463       -2.98079887229866       -4.44771187938058
H           -1.57636849202220       -2.21363427643460        0.08644348728545
H           -1.26849654445638       -2.90715219308763        1.46730603516515
O           -1.31868597640262       -2.03515032628063        1.02156800621647
34
 energy: -54.784462983779 gnorm: 0.011162993126 xtb: 6.7.1 (edcfbbe)
N           -0.21199666776984        0.66027985351955        0.09414020851085
C            0.30114148527581        2.00221913386958       -0.21500990852785
C           -0.00446463114396        2.39966186582421       -1.65643923294392
C            0.84906358403362        1.67843401456615       -2.71240121643155
C            0.32354890684034        0.29723462529509       -3.13052494778551
O            0.04620545068993        0.10491708950343       -4.33552769062853
O            0.22988282307706       -0.59648309398690       -2.25365703299152
H            0.13837672584915        0.33352857683155        1.01659234186923
H           -1.25755968401360        0.64594841094624        0.07296229127992
H           -0.16743916956693        2.71898572571728        0.45991615206549
H            1.37918777069220        2.01695532537187       -0.04642568607567
H            0.18607955759733        3.46839993014880       -1.75931304259620
H           -1.06306460418060        2.23045029298541       -1.86214802244619
H            1.86702671589438        1.53869626017610       -2.33910204293569
H            0.89753186611480        2.27742228731471       -3.62398283837412
H            0.08876149371524        0.00216396426076       -0.65570942126792
O            0.95381875466181        0.04264160729068        2.51862731102942
H            1.43490188610977       -0.79067605664136        2.48654019822338
H            0.33910452920842       -0.00702911619683        3.26536523911562
O           -2.25677764604101       -1.64297478931498       -1.91188126682698
H           -2.63570501418567       -1.61627859978726       -2.80091605155401
H           -1.31826084825425       -1.39757911323227       -2.04675662955318
O           -2.46836336370697       -1.04333773946441       -4.72485578105901
H           -2.51220738842598       -1.46773937915562       -5.58494592556111
H           -1.59635410070835       -0.60620027263260       -4.67770109128718
O           -2.92183376036611        0.45364345101354       -0.27317430513974
H           -2.81320816038110       -0.28896197196886       -0.90368818012843
H           -3.36373334193678        0.08072931533062        0.49476822600633
H            0.46028759662985       -2.02029401465682       -4.26184380144620
H            0.27954204101627       -3.07762511037591       -5.37511324691592
O            0.58043142017525       -2.95668748458652       -4.47176588503453
H           -1.59437027593801       -2.23741994688883        0.09593285732442
H           -1.26995454079739       -2.88543558767376        1.45965450772648
O           -1.32428615296297       -2.03972298049746        1.00188263055908
34
 energy: -54.784473134342 gnorm: 0.028940741940 xtb: 6.7.1 (edcfbbe)
N           -0.21288956007601        0.66343994427344        0.09352744926202
C            0.29721937717177        2.00528899539412       -0.21985520288646
C           -0.01057651754596        2.39784838703750       -1.66226621616691
C            0.84645917969712        1.67849164885803       -2.71685919784003
C            0.33814591960296        0.28905556769450       -3.13112217961526
O            0.05901725847040        0.09188685645501       -4.33446501727679
O            0.23495573439986       -0.59710575358608       -2.24786590148796
H            0.13767905633437        0.33991385942619        1.01648961103632
H           -1.25873898517513        0.64607689532649        0.07327737385175
H           -0.17225147491945        2.72280397106503        0.45368724002086
H            1.37543014079224        2.02286286620771       -0.05252479874636
H            0.17409647004403        3.46758348386546       -1.76699209091057
H           -1.06833389369906        2.22258748804240       -1.86749777071631
H            1.86625425099562        1.54975317981197       -2.34456120505485
H            0.88852206804068        2.27469987613233       -3.63043155960586
H            0.08969220057242        0.00357942352500       -0.65381343443285
O            0.94860654808269        0.04093579910624        2.51234529304213
H            1.43978665979009       -0.78374751852965        2.50175658624194
H            0.37612916390520        0.02245630600649        3.27194894800836
O           -2.25044741900758       -1.64210978221149       -1.89339361366663
H           -2.63661789041907       -1.61337821364141       -2.77955565429234
H           -1.31269038305443       -1.39653799404384       -2.03543316603016
O           -2.45819372859827       -1.04170335545707       -4.69152823774968
H           -2.54300337403990       -1.42040393159311       -5.59297020821024
H           -1.58165867929747       -0.61096627525124       -4.66309444638492
O           -2.92541123509064        0.45222229968811       -0.25881938402562
H           -2.81347587533217       -0.29296391424410       -0.88600873486659
H           -3.35861900671617        0.07679025082141        0.51549951980230
H            0.45429068907813       -2.02742873462265       -4.27966621303245
H            0.33585893674511       -3.09311582067750       -5.39227731758977
O            0.60086679522424       -2.95524528738869       -4.47389243706556
H           -1.62663371530331       -2.23910420880205        0.07544438974126
H           -1.31248624482761       -2.91515672549981        1.42460059286795
O           -1.34566920864310       -2.06144311028316        0.97981569997864
34