
                                 *****************
                                 * O   R   C   A *
                                 *****************

                                            #,                                       
                                            ###                                      
                                            ####                                     
                                            #####                                    
                                            ######                                   
                                           ########,                                 
                                     ,,################,,,,,                         
                               ,,#################################,,                 
                          ,,##########################################,,             
                       ,#########################################, ''#####,          
                    ,#############################################,,   '####,        
                  ,##################################################,,,,####,       
                ,###########''''           ''''###############################       
              ,#####''   ,,,,##########,,,,          '''####'''          '####       
            ,##' ,,,,###########################,,,                        '##       
           ' ,,###''''                  '''############,,,                           
         ,,##''                                '''############,,,,        ,,,,,,###''
      ,#''                                            '''#######################'''  
     '                                                          ''''####''''         
             ,#######,   #######,   ,#######,      ##                                
            ,#'     '#,  ##    ##  ,#'     '#,    #''#        ,####,   ,####,        
            ##       ##  ##   ,#'  ##            #'  '#       #'       #'  '#        
            ##       ##  #######   ##           ,######,      #####,   #    #        
            '#,     ,#'  ##    ##  '#,     ,#' ,#      #,     #,   #   #,  ,#        
             '#######'   ##     ##  '#######'  #'      '#     '####' # '####'        



                #########################################################
                #                        -***-                          #
                #          Department of theory and spectroscopy        #
                #                                                       #
                #                      Frank Neese                      #
                #                                                       #
                #     Directorship, Architecture, Infrastructure        #
                #                    SHARK, DRIVERS                     #
                #        Core code/Algorithms in most modules           #
                #                                                       #
                #        Max Planck Institute fuer Kohlenforschung      #
                #                Kaiser Wilhelm Platz 1                 #
                #                 D-45470 Muelheim/Ruhr                 #
                #                      Germany                          #
                #                                                       #
                #                  All rights reserved                  #
                #                        -***-                          #
                #########################################################


                         Program Version 6.0.1  -  RELEASE   -


 With contributions from (in alphabetic order):
[Max-Planck-Institut fuer Kohlenforschung]                               
  Daniel Aravena         : Magnetic Suceptibility                        
  Michael Atanasov       : Ab Initio Ligand Field Theory (pilot matlab implementation)
  Alexander A. Auer      : GIAO ZORA, VPT2 properties, NMR spectrum      
  Ute Becker             : All parallelization in ORCA, NUMFREQ, NUMCALC 
  Giovanni Bistoni       : ED, misc. LED, open-shell LED, HFLD           
  Martin Brehm           : Molecular dynamics                            
  Dmytro Bykov           : pre 5.0 version of the SCF Hessian            
  Marcos Casanova-Páez   : Triplet and SCS-CIS(D). UHF-(DLPNO)-IP/EA/STEOM-CCSD. UHF-CVS-IP/STEOM-CCSD   
  Vijay G. Chilkuri      : MRCI spin determinant printing, contributions to CSF-ICE 
  Pauline Colinet        : FMM embedding                                 
  Dipayan Datta          : RHF DLPNO-CCSD density                        
  Achintya Kumar Dutta   : EOM-CC, STEOM-CC                              
  Nicolas Foglia         : Exact transition moments, OPA infrastructure, MCD improvements    
  Dmitry Ganyushin       : Spin-Orbit,Spin-Spin,Magnetic field MRCI      
  Miquel Garcia-Rates    : C-PCM and meta-GGA Hessian, CCSD/C-PCM, Gaussian charge scheme 
  Tiago L. C. Gouveia    : GS-ROHF, GS-ROCIS                             
  Yang Guo               : DLPNO-NEVPT2, F12-NEVPT2, CIM, IAO-localization        
  Andreas Hansen         : Spin unrestricted coupled pair/coupled cluster methods 
  Ingolf Harden          : AUTO-CI MPn and infrastructure                
  Benjamin Helmich-Paris : MC-RPA, TRAH-(SCF,CASSCF), AVAS, COSX integrals, SCF dyn. polar. 
  Lee Huntington         : MR-EOM, pCC                                   
  Robert Izsak           : Overlap fitted RIJCOSX, COSX-SCS-MP3, EOM     
  Riya Kayal             : Wick's Theorem for AUTO-CI, AUTO-CI UHF-CCSDT 
  Emily Kempfer          : AUTO-CI, RHF CISDT and CCSDT                  
  Christian Kollmar      : KDIIS, OOCD, Brueckner-CCSD(T), CCSD density, CASPT2, CASPT2-K, improved NEVPT2 
  Axel Koslowski         : Symmetry handling                             
  Simone Kossmann        : meta-GGA functionals, TD-DFT gradient, OOMP2, (MP2 Hessian; deprecated post 5.0) 
  Lucas Lang             : DCDCAS                                        
  Marvin Lechner         : AUTO-CI (C++ implementation), FIC-MRCC        
  Spencer Leger          : CASSCF response                               
  Dagmar Lenk            : GEPOL surface, SMD, ORCA-2-JSON               
  Dimitrios Liakos       : Extrapolation schemes; Compound Job, initial MDCI parallelization 
  Dimitrios Manganas     : Further ROCIS development; embedding schemes. LFT, Crystal Embedding 
  Dimitrios Pantazis     : SARC Basis sets                               
  Anastasios Papadopoulos: AUTO-CI, single reference methods and gradients 
  Taras Petrenko         : pre 6.0 DFT Hessian and TD-DFT gradient, (ASA, deprecated), ECA, 1-Electron XAS/XES, NRVS 
  Peter Pinski           : DLPNO-MP2, DLPNO-MP2 Gradient                 
  Christoph Reimann      : Effective Core Potentials                     
  Marius Retegan         : Local ZFS, SOC                                
  Christoph Riplinger    : Optimizer, TS searches, QM/MM, DLPNO-CCSD(T), (RO)-DLPNO pert. Triples 
  Michael Roemelt        : Original ROCIS implementation                 
  Masaaki Saitow         : Open-shell DLPNO-CCSD energy and density      
  Barbara Sandhoefer     : DKH picture change effects                    
  Kantharuban Sivalingam : CASSCF convergence/infrastructure, NEVPT2 and variants, FIC-MRCI 
  Bernardo de Souza      : ESD, SOC TD-DFT                               
  Georgi L. Stoychev     : AutoAux, RI-MP2 NMR, DLPNO-MP2 response, X2C  
  Van Anh Tran           : RI-MP2 g-tensors                              
  Willem Van den Heuvel  : Paramagnetic NMR                              
  Zikuan Wang            : NOTCH, Electric field optimization            
  Frank Wennmohs         : Technical directorship and infrastructure     
  Hang Xu                : AUTO-CI-Response properties                   
                                                                         
[FACCTs GmbH]                                                            
  Markus Bursch, Miquel Garcia-Rates, Christoph Riplinger, Bernardo de Souza, Georgi L. Stoychev 
                                                                 
  APM, Basis sets (HGBS, AHGBS, def-TZVP (Ac-Lr), def2-XVPD (La-Lu)), CI-OPT, improved COSX, DLPNO-Multilevel,           
  DOCKER, DRACO, updates on ESD, GOAT, IRC, LR-CPCM, MBIS, meta-GGA TD-DFT gradient, ML-optimized integration grids, 
  MM, NACMEs, nearIR, NEB, NEB-TS, NL-DFT gradient (VV10), 2- and 3-layer-ONIOM, interface openCOSMO-RS, QMMM,   
  Crystal-QMMM, SF, symmetry and pop. for TD-DFT, r2SCAN hybrids, SOLVATOR                                   
                                                                         
[Other institutions]                                                     
  V. Asgeirsson          : NEB                                           
  Christoph Bannwarth    : sTDA-DFT, sTD-DFT, PBEh-3c, B97-3c, D3        
  Sebastian Ehlert       : rSCAN, r2SCAN, r2SCAN-3c, D4, dhf basis sets  
  Marvin Friede          : D4 for Fr, Ra, Ac-Lr                          
  Lars Goerigk           : TD-DFT with DH, B97 family of functionals     
  Stefan Grimme          : VdW corrections, initial TS optimization, DFT functionals, gCP, sTDA/sTD-DF 
  Waldemar Hujo          : DFT-NL                                        
  H. Jonsson             : NEB                                           
  Holger Kruse           : gCP                                           
  Marcel Mueller         : wB97X-3c, vDZP basis set                      
  Hagen Neugebauer       : wr2SCAN                                       
  Tobias Risthaus        : range-separated hybrid DFT                    
  Lukas Wittmann         : regularized MP2, r2SCAN double-hybrids, wr2SCAN        
                                                                         
We gratefully acknowledge several colleagues who have allowed us to      
interface, adapt or use parts of their codes:                            
  Ed Valeev, F. Pavosevic, A. Kumar             : LibInt (2-el integral package), F12 methods 
  Garnet Chan, S. Sharma, J. Yang, R. Olivares  : DMRG                   
  Ulf Ekstrom                                   : XCFun DFT Library      
  Mihaly Kallay                                 : mrcc  (arbitrary order and MRCC methods)
  Frank Weinhold                                : gennbo (NPA and NBO analysis)           
  Simon Mueller                                 : openCOSMO-RS                            
  Christopher J. Cramer and Donald G. Truhlar   : smd solvation model                     
  S Lehtola, MJT Oliveira, MAL Marques          : LibXC Library                           
  Liviu Ungur et al                             : ANISO software                          


 Your calculation uses the libint2 library for the computation of 2-el integrals
 For citations please refer to: http://libint.valeyev.net

 Your ORCA version has been built with support for libXC version: 6.2.2
 For citations please refer to: https://libxc.gitlab.io

 This ORCA versions uses:
   CBLAS   interface :  Fast vector & matrix operations
   LAPACKE interface :  Fast linear algebra routines
   SCALAPACK package :  Parallel linear algebra routines
   Shared memory     :  Shared parallel matrices
   BLAS/LAPACK       :  OpenBLAS 0.3.27  USE64BITINT DYNAMIC_ARCH NO_AFFINITY SkylakeX SINGLE_THREADED
        Core in use  :  SkylakeX
   Copyright (c) 2011-2014, The OpenBLAS Project


NOTE: MaxCore=5000 MB was set to SCF,MP2,MDCI,CIPSI,MRCI and CIS
      => If you want to overwrite this, your respective input block should be placed after the MaxCore statement
Your calculation utilizes the atom-pairwise dispersion correction
based on EEQ partial charges (D4)


Warning: RI is on but no J-basis has been assigned. Assigning Def2/J (nothing to worry about!)
================================================================================

----- Orbital basis set information -----
Your calculation utilizes the basis: def2-TZVP
   F. Weigend and R. Ahlrichs, Phys. Chem. Chem. Phys. 7, 3297 (2005).

----- AuxJ basis set information -----
Your calculation utilizes the auxiliary basis: def2/J
   F. Weigend, Phys. Chem. Chem. Phys. 8, 1057 (2006).

================================================================================
                                        WARNINGS
                       Please study these warnings very carefully!
================================================================================


================================================================================
                                       INPUT FILE
================================================================================
NAME = input.inp
|  1> ! SP B3LYP D4 def2-TZVP TightSCF CPCM(water)
|  2> 
|  3> %maxcore 5000
|  4> 
|  5> %pal
|  6> nprocs 28
|  7> end
|  8> 
|  9> %geom
| 10>     MaxIter 500
| 11> end
| 12> 
| 13> * xyz 0 1
| 14> H            0.85071085249627       -0.39917955494793       -0.67491263861731
| 15> C            0.02583639257483       -1.05544605626013       -0.40351011744639
| 16> H           -0.78391913697555       -0.46549387199096       -2.18611655567772
| 17> H            0.30998049635366       -2.08877617892099       -0.57917359013520
| 18> N           -1.13530176550519       -0.71855479115885       -1.24272392851691
| 19> H            0.44295077747113       -1.41425635891066        1.67604954816387
| 20> C           -0.27863302230341       -0.86797230287018        1.07235571428953
| 21> O           -0.38044127163170        1.50417212226645        0.70593465684580
| 22> C           -0.24896799750634        0.57626815927188        1.52488477522330
| 23> H           -1.63928632124934        0.07593867696449       -0.82665864443766
| 24> O           -0.07433188972996        0.79729414151726        2.76468200572708
| 25> H           -1.82970608628783       -1.48623881060472       -1.29215794289731
| 26> H           -1.27502314382928       -1.24554660187385        1.29935644549321
| 27> O           -1.00933913263347        2.28262320692683       -1.80951501462526
| 28> H           -0.30995743752669        2.86114119543664       -2.18803952397848
| 29> H           -0.69492126387774        2.00608929981646       -0.93000286037351
| 30> O            2.25823782876908       -1.37187789943076        4.53271505581375
| 31> H            1.27739423873662       -1.38651641015883        4.51163133708672
| 32> H            2.48435987677933       -1.77129671179841        5.39762134207651
| 33> O            2.13431687307638        1.20266787166823       -1.28571477317733
| 34> H            1.65675646415818        1.97092592812098       -0.92799063165118
| 35> H            2.89602505491681        1.10689540370147       -0.68643598941668
| 36> O           -0.85079661522540        2.70370285294159       -5.20720781009341
| 37> H           -1.57818432365941        2.15148546605426       -4.87760738762972
| 38> H           -0.22807384288277        2.07750742856179       -5.62964656544297
| 39> O           -3.47716242873597       -2.17174575751771       -1.40779326163513
| 40> H           -3.86367902535263       -2.68973451652276       -0.68797859964207
| 41> H           -3.52356587943304       -2.71666120503142       -2.22828524477534
| 42> O            0.59553697500773        3.86865203202451       -3.21550505241384
| 43> H            0.25638022859355        4.71650920928315       -2.88022852339595
| 44> H            0.08930791224748        3.64491900084305       -4.02520970077575
| 45> O            3.14151175089113        2.82025763109479       -3.19236766744303
| 46> H            2.84038503663959        2.11339673571144       -2.56941704408193
| 47> H            2.33374888031987        3.34887745869131       -3.32567637598726
| 48> O           -1.19114367682623       -4.39187268731697       -2.37920952985527
| 49> H           -1.24395521010440       -4.20224706822332       -1.42159832696320
| 50> H           -0.58265203421647       -3.70229465818755       -2.72524435742401
| 51> O           -1.14804215621365       -3.93388452089570        0.34471212700047
| 52> H           -1.66616149975155       -4.72332308491987        0.56738384227131
| 53> H           -0.21109449768212       -4.11523853399622        0.56637700350388
| 54> O            0.06052276022537        5.73147972069327        1.00800330058973
| 55> H            0.61623809305290        6.42018718784156        1.38101796198625
| 56> H           -0.50212174310990        5.41577706226580        1.73162662863713
| 57> O            1.09778472251882        4.32716213482596        4.20483876336112
| 58> H            0.98147864950601        3.74929766238860        4.97744014281865
| 59> H            0.19883457828541        4.49733466957306        3.86795561943891
| 60> O            3.58717637761019       -3.66922621063404       -4.38944741372630
| 61> H            2.79305253249701       -3.71481304695579       -4.95693163867492
| 62> H            4.33163880221671       -3.93124486339749       -4.93251454885327
| 63> O           -3.02295493525803       -0.07034740798917        4.64378994060672
| 64> H           -2.70381805179953        0.84477260161531        4.72003520603442
| 65> H           -2.21695115554046       -0.61011061653111        4.75558718491146
| 66> O            2.39792227968736       -3.85158005702948       -1.68990062613509
| 67> H            2.90295945199402       -3.05395620908880       -1.39015866804173
| 68> H            2.92476570548391       -4.22887723003268       -2.40223476783819
| 69> O            0.92263786762364        0.71805013069398       -5.89717272680335
| 70> H            0.75224272862010        0.42569570503750       -4.96401744273037
| 71> H            1.87884785964982        0.91773427943208       -5.89597367943876
| 72> O            2.72174930829590       -1.84673184330606        1.85167992862336
| 73> H            2.63749765311616       -1.75143798470547        2.81431457150382
| 74> H            3.66199586663314       -1.67379822643454        1.65896328751870
| 75> O           -1.51713268834694        4.52467263941789        3.20087563793659
| 76> H           -1.96328867103181        4.14111128202643        2.41111533548843
| 77> H           -1.63045221593333        3.81504370522879        3.86365698198159
| 78> O           -1.38482158677433        2.20730738439903        4.64821333503224
| 79> H           -0.73697226374004        2.22664847496812        5.36849876827751
| 80> H           -0.91241177218616        1.74847852273306        3.91750442876393
| 81> O           -3.18902367479718        0.62951394845498        0.33125573231834
| 82> H           -3.16239562577970        1.54313955601226        0.65471661213654
| 83> H           -3.81149273393599        0.60754998941126       -0.41669466023613
| 84> O            2.26281305924694       -2.27967856625503        7.07188098130694
| 85> H            1.85536504527564       -3.14232980605303        6.87379076645689
| 86> H            1.51990563241331       -1.66804414451510        7.24519482693677
| 87> O            1.20193645448993       -3.65047500184482       -5.77632888177267
| 88> H            0.78148145491213       -2.87840484819683       -6.24095116713732
| 89> H            0.76566489082338       -4.43368019800470       -6.11629690654742
| 90> O           -0.67771935838338        5.87083908118304       -1.79418087001349
| 91> H           -0.36850314160612        5.94599777914792       -0.88016860260215
| 92> H           -1.52994200231971        5.39504746343448       -1.72133800086532
| 93> O            0.39799893761880        0.32950482596459       -3.30050009068244
| 94> H           -0.06899535341277        1.17463466362062       -3.33987004712597
| 95> H            1.16296631385995        0.49936885006484       -2.72981069169553
| 96> O           -0.49292762168578       -1.25262088002506        4.39812072558898
| 97> H           -0.83863572122780       -1.99809787849443        3.85934001467738
| 98> H           -0.34028029064486       -0.50752632167662        3.76424158513930
| 99> O           -3.32319757405406       -3.48382489555362       -3.70955489758248
|100> H           -2.59809289632327       -4.02183918035962       -3.31504709419010
|101> H           -2.84311147461735       -2.76044518428756       -4.16854517047997
|102> O            4.04170649662863        1.49132522859447        0.66091285030459
|103> H            3.49364883764177        1.77254661365683        1.40677975658816
|104> H            4.31236191223576        2.32124455616999        0.21172190539520
|105> O            0.62099126682622       -2.56051022634211       -3.28770678545148
|106> H            1.23075206691070       -2.99666619673204       -2.65356096875670
|107> H            0.80881972270328       -2.97206871143230       -4.14762048369075
|108> O            2.96529629967184       -1.07107735705451       -3.62180684660037
|109> H            3.34927361240065       -1.91287260519256       -3.91719390029690
|110> H            2.00288960928777       -1.25123642226938       -3.57683397758861
|111> O           -1.72282968631373       -3.10445484072099        2.85894273377380
|112> H           -2.55283360445793       -2.60374218318789        2.79909361917574
|113> H           -1.50048821572974       -3.31508876092891        1.92017894644398
|114> O           -2.44985507350093        3.21129167990469        1.05611975565453
|115> H           -2.60654887747749        3.70041237002331        0.22551600236306
|116> H           -1.59356991040541        2.74529311808605        0.93277293649250
|117> O            0.17006526063434       -0.42875543597496        6.97264172467982
|118> H           -0.14677074829210       -0.78675415957787        6.12457157937762
|119> H            0.40589813278853        0.49352161262501        6.77838135821420
|120> O           -2.80166436608118        4.16319917002712       -1.48614079653613
|121> H           -2.17435483397535        3.40707161380035       -1.68593257675792
|122> H           -3.54129801318514        4.07516358643879       -2.08937588572364
|123> O            2.90977734453653        1.21540396924187        4.91400820033270
|124> H            2.73325407205584        0.25534003143512        4.77860411522110
|125> H            2.82536473842036        1.61860099320397        4.03059537833799
|126> O            1.01451971763010       -4.61178451345584        6.18336871452429
|127> H            0.90311390400488       -4.71238033452289        5.21602142730137
|128> H            0.25650428440725       -5.04919121597474        6.57986199819668
|129> O           -3.19065846314041       -5.67829715667878        0.96630180023134
|130> H           -3.78093674366122       -4.90160158595096        0.96455576621918
|131> H           -3.61092269189014       -6.34681319187589        0.42081156794075
|132> O            4.11871444382322        3.80036210936834       -0.77852753975175
|133> H            3.18710808202753        3.90550336751651       -0.48974904649454
|134> H            4.04009398049224        3.56297159230521       -1.72194498424202
|135> O           -4.74720877121797       -3.34178102849486        0.81316020420150
|136> H           -4.41136679634359       -2.63103171858029        1.39291743225885
|137> H           -5.70243280323956       -3.33925621641230        0.91028995240029
|138> O            0.38421648199591       -4.87255829277285        3.52217237030948
|139> H           -0.42345201411933       -4.34834214645321        3.40060212078740
|140> H            0.89552824016601       -4.75001841642601        2.70690373597848
|141> O            1.50656297778298        3.54983471761927        0.05962061262224
|142> H            0.94212800067541        4.31381462136080        0.25525335655683
|143> H            1.68698815772780        3.13961500556539        0.92560402673026
|144> O            2.07343075516484        2.45215031751087        2.56373720167002
|145> H            1.29263113076958        1.86699371259573        2.65984431115018
|146> H            1.84999627823833        3.24009903051279        3.11058833162352
|147> O           -0.14350518738240       -1.61140371134513       -6.78459874171773
|148> H           -0.84749766586882       -1.58878139411071       -6.09764455872246
|149> H            0.31916276715574       -0.75653335295924       -6.65926988291792
|150> O            1.49842731963003       -4.13436401580314        0.96972329181264
|151> H            1.87572740874481       -4.29383201382102        0.08907268934076
|152> H            1.94342482730420       -3.31972465109634        1.28735138026911
|153> O            3.56488469968753       -1.55481942219159       -1.06360924789922
|154> H            2.93416908125017       -1.14859372253458       -0.45749032021886
|155> H            3.39807062175006       -1.16669115758322       -1.95495040555065
|156> O            0.93156296562707        2.27480199451360        6.26952196839046
|157> H            1.29739316585798        2.60613723487493        7.09245388374712
|158> H            1.69752360439633        1.85932567010530        5.77764950486795
|159> O           -4.60773353847207        0.13821007895642       -2.00503881387757
|160> H           -5.52378791701651       -0.02068809959920       -2.23316608794051
|161> H           -4.20421284456994       -0.75225296567253       -1.81360534828874
|162> O            5.25092731521251       -1.01202464268424        1.02845193358321
|163> H            5.01328990540319       -1.32921719095815        0.13854324765040
|164> H            5.02326656659967       -0.06634302824034        1.00854589545436
|165> O            3.53015377923726        1.06226372709563       -5.25550281701776
|166> H            3.51350793036631        1.79915654656305       -4.61154599285089
|167> H            3.45392560218407        0.26142345457385       -4.69231978104658
|168> O           -3.71760476335009       -1.24108658897957        2.24584850921224
|169> H           -3.66219186918920       -0.77710820457223        3.09975478800718
|170> H           -3.52818442046554       -0.56424984157209        1.55714316444857
|171> O           -1.67886612668742       -1.46619534459620       -4.53680317002369
|172> H           -0.88908442142874       -1.65786888438628       -3.99981720063294
|173> H           -1.96351359848071       -0.56581907331405       -4.27563999902913
|174> O           -2.54708847382203        0.97230588309972       -3.63265441752105
|175> H           -2.01774247889345        1.38850542548163       -2.92133984705555
|176> H           -3.37571190314409        0.71805003201499       -3.19346049512070
|177> *
|178> 
|179>                          ****END OF INPUT****
================================================================================

                       ****************************
                       * Single Point Calculation *
                       ****************************

---------------------------------
CARTESIAN COORDINATES (ANGSTROEM)
---------------------------------
  H      0.850711   -0.399180   -0.674913
  C      0.025836   -1.055446   -0.403510
  H     -0.783919   -0.465494   -2.186117
  H      0.309980   -2.088776   -0.579174
  N     -1.135302   -0.718555   -1.242724
  H      0.442951   -1.414256    1.676050
  C     -0.278633   -0.867972    1.072356
  O     -0.380441    1.504172    0.705935
  C     -0.248968    0.576268    1.524885
  H     -1.639286    0.075939   -0.826659
  O     -0.074332    0.797294    2.764682
  H     -1.829706   -1.486239   -1.292158
  H     -1.275023   -1.245547    1.299356
  O     -1.009339    2.282623   -1.809515
  H     -0.309957    2.861141   -2.188040
  H     -0.694921    2.006089   -0.930003
  O      2.258238   -1.371878    4.532715
  H      1.277394   -1.386516    4.511631
  H      2.484360   -1.771297    5.397621
  O      2.134317    1.202668   -1.285715
  H      1.656756    1.970926   -0.927991
  H      2.896025    1.106895   -0.686436
  O     -0.850797    2.703703   -5.207208
  H     -1.578184    2.151485   -4.877607
  H     -0.228074    2.077507   -5.629647
  O     -3.477162   -2.171746   -1.407793
  H     -3.863679   -2.689735   -0.687979
  H     -3.523566   -2.716661   -2.228285
  O      0.595537    3.868652   -3.215505
  H      0.256380    4.716509   -2.880229
  H      0.089308    3.644919   -4.025210
  O      3.141512    2.820258   -3.192368
  H      2.840385    2.113397   -2.569417
  H      2.333749    3.348877   -3.325676
  O     -1.191144   -4.391873   -2.379210
  H     -1.243955   -4.202247   -1.421598
  H     -0.582652   -3.702295   -2.725244
  O     -1.148042   -3.933885    0.344712
  H     -1.666161   -4.723323    0.567384
  H     -0.211094   -4.115239    0.566377
  O      0.060523    5.731480    1.008003
  H      0.616238    6.420187    1.381018
  H     -0.502122    5.415777    1.731627
  O      1.097785    4.327162    4.204839
  H      0.981479    3.749298    4.977440
  H      0.198835    4.497335    3.867956
  O      3.587176   -3.669226   -4.389447
  H      2.793053   -3.714813   -4.956932
  H      4.331639   -3.931245   -4.932515
  O     -3.022955   -0.070347    4.643790
  H     -2.703818    0.844773    4.720035
  H     -2.216951   -0.610111    4.755587
  O      2.397922   -3.851580   -1.689901
  H      2.902959   -3.053956   -1.390159
  H      2.924766   -4.228877   -2.402235
  O      0.922638    0.718050   -5.897173
  H      0.752243    0.425696   -4.964017
  H      1.878848    0.917734   -5.895974
  O      2.721749   -1.846732    1.851680
  H      2.637498   -1.751438    2.814315
  H      3.661996   -1.673798    1.658963
  O     -1.517133    4.524673    3.200876
  H     -1.963289    4.141111    2.411115
  H     -1.630452    3.815044    3.863657
  O     -1.384822    2.207307    4.648213
  H     -0.736972    2.226648    5.368499
  H     -0.912412    1.748479    3.917504
  O     -3.189024    0.629514    0.331256
  H     -3.162396    1.543140    0.654717
  H     -3.811493    0.607550   -0.416695
  O      2.262813   -2.279679    7.071881
  H      1.855365   -3.142330    6.873791
  H      1.519906   -1.668044    7.245195
  O      1.201936   -3.650475   -5.776329
  H      0.781481   -2.878405   -6.240951
  H      0.765665   -4.433680   -6.116297
  O     -0.677719    5.870839   -1.794181
  H     -0.368503    5.945998   -0.880169
  H     -1.529942    5.395047   -1.721338
  O      0.397999    0.329505   -3.300500
  H     -0.068995    1.174635   -3.339870
  H      1.162966    0.499369   -2.729811
  O     -0.492928   -1.252621    4.398121
  H     -0.838636   -1.998098    3.859340
  H     -0.340280   -0.507526    3.764242
  O     -3.323198   -3.483825   -3.709555
  H     -2.598093   -4.021839   -3.315047
  H     -2.843111   -2.760445   -4.168545
  O      4.041706    1.491325    0.660913
  H      3.493649    1.772547    1.406780
  H      4.312362    2.321245    0.211722
  O      0.620991   -2.560510   -3.287707
  H      1.230752   -2.996666   -2.653561
  H      0.808820   -2.972069   -4.147620
  O      2.965296   -1.071077   -3.621807
  H      3.349274   -1.912873   -3.917194
  H      2.002890   -1.251236   -3.576834
  O     -1.722830   -3.104455    2.858943
  H     -2.552834   -2.603742    2.799094
  H     -1.500488   -3.315089    1.920179
  O     -2.449855    3.211292    1.056120
  H     -2.606549    3.700412    0.225516
  H     -1.593570    2.745293    0.932773
  O      0.170065   -0.428755    6.972642
  H     -0.146771   -0.786754    6.124572
  H      0.405898    0.493522    6.778381
  O     -2.801664    4.163199   -1.486141
  H     -2.174355    3.407072   -1.685933
  H     -3.541298    4.075164   -2.089376
  O      2.909777    1.215404    4.914008
  H      2.733254    0.255340    4.778604
  H      2.825365    1.618601    4.030595
  O      1.014520   -4.611785    6.183369
  H      0.903114   -4.712380    5.216021
  H      0.256504   -5.049191    6.579862
  O     -3.190658   -5.678297    0.966302
  H     -3.780937   -4.901602    0.964556
  H     -3.610923   -6.346813    0.420812
  O      4.118714    3.800362   -0.778528
  H      3.187108    3.905503   -0.489749
  H      4.040094    3.562972   -1.721945
  O     -4.747209   -3.341781    0.813160
  H     -4.411367   -2.631032    1.392917
  H     -5.702433   -3.339256    0.910290
  O      0.384216   -4.872558    3.522172
  H     -0.423452   -4.348342    3.400602
  H      0.895528   -4.750018    2.706904
  O      1.506563    3.549835    0.059621
  H      0.942128    4.313815    0.255253
  H      1.686988    3.139615    0.925604
  O      2.073431    2.452150    2.563737
  H      1.292631    1.866994    2.659844
  H      1.849996    3.240099    3.110588
  O     -0.143505   -1.611404   -6.784599
  H     -0.847498   -1.588781   -6.097645
  H      0.319163   -0.756533   -6.659270
  O      1.498427   -4.134364    0.969723
  H      1.875727   -4.293832    0.089073
  H      1.943425   -3.319725    1.287351
  O      3.564885   -1.554819   -1.063609
  H      2.934169   -1.148594   -0.457490
  H      3.398071   -1.166691   -1.954950
  O      0.931563    2.274802    6.269522
  H      1.297393    2.606137    7.092454
  H      1.697524    1.859326    5.777650
  O     -4.607734    0.138210   -2.005039
  H     -5.523788   -0.020688   -2.233166
  H     -4.204213   -0.752253   -1.813605
  O      5.250927   -1.012025    1.028452
  H      5.013290   -1.329217    0.138543
  H      5.023267   -0.066343    1.008546
  O      3.530154    1.062264   -5.255503
  H      3.513508    1.799157   -4.611546
  H      3.453926    0.261423   -4.692320
  O     -3.717605   -1.241087    2.245849
  H     -3.662192   -0.777108    3.099755
  H     -3.528184   -0.564250    1.557143
  O     -1.678866   -1.466195   -4.536803
  H     -0.889084   -1.657869   -3.999817
  H     -1.963514   -0.565819   -4.275640
  O     -2.547088    0.972306   -3.632654
  H     -2.017742    1.388505   -2.921340
  H     -3.375712    0.718050   -3.193460

----------------------------
CARTESIAN COORDINATES (A.U.)
----------------------------
  NO LB      ZA    FRAG     MASS         X           Y           Z
   0 H     1.0000    0     1.008    1.607611   -0.754340   -1.275400
   1 C     6.0000    0    12.011    0.048824   -1.994504   -0.762524
   2 H     1.0000    0     1.008   -1.481392   -0.879656   -4.131162
   3 H     1.0000    0     1.008    0.585778   -3.947215   -1.094479
   4 N     7.0000    0    14.007   -2.145409   -1.357872   -2.348408
   5 H     1.0000    0     1.008    0.837056   -2.672557    3.167275
   6 C     6.0000    0    12.011   -0.526540   -1.640230    2.026459
   7 O     8.0000    0    15.999   -0.718930    2.842473    1.334023
   8 C     6.0000    0    12.011   -0.470481    1.088989    2.881615
   9 H     1.0000    0     1.008   -3.097802    0.143503   -1.562158
  10 O     8.0000    0    15.999   -0.140467    1.506668    5.224492
  11 H     1.0000    0     1.008   -3.457643   -2.808584   -2.441825
  12 H     1.0000    0     1.008   -2.409445   -2.353742    2.455428
  13 O     8.0000    0    15.999   -1.907375    4.313533   -3.419488
  14 H     1.0000    0     1.008   -0.585735    5.406773   -4.134795
  15 H     1.0000    0     1.008   -1.313211    3.790959   -1.757451
  16 O     8.0000    0    15.999    4.267451   -2.592474    8.565590
  17 H     1.0000    0     1.008    2.413925   -2.620136    8.525748
  18 H     1.0000    0     1.008    4.694760   -3.347266   10.200026
  19 O     8.0000    0    15.999    4.033274    2.272713   -2.429649
  20 H     1.0000    0     1.008    3.130816    3.724510   -1.753648
  21 H     1.0000    0     1.008    5.472694    2.091729   -1.297176
  22 O     8.0000    0    15.999   -1.607773    5.109258   -9.840197
  23 H     1.0000    0     1.008   -2.982336    4.065718   -9.217342
  24 H     1.0000    0     1.008   -0.430997    3.925920  -10.638490
  25 O     8.0000    0    15.999   -6.570885   -4.104005   -2.660344
  26 H     1.0000    0     1.008   -7.301295   -5.082862   -1.300091
  27 H     1.0000    0     1.008   -6.658575   -5.133746   -4.210849
  28 O     8.0000    0    15.999    1.125402    7.310693   -6.076424
  29 H     1.0000    0     1.008    0.484488    8.912911   -5.442843
  30 H     1.0000    0     1.008    0.168767    6.887899   -7.606544
  31 O     8.0000    0    15.999    5.936597    5.329515   -6.032701
  32 H     1.0000    0     1.008    5.367550    3.993741   -4.855495
  33 H     1.0000    0     1.008    4.410146    6.328461   -6.284618
  34 O     8.0000    0    15.999   -2.250935   -8.299437   -4.496054
  35 H     1.0000    0     1.008   -2.350735   -7.941096   -2.686432
  36 H     1.0000    0     1.008   -1.101053   -6.996323   -5.149965
  37 O     8.0000    0    15.999   -2.169485   -7.433964    0.651412
  38 H     1.0000    0     1.008   -3.148589   -8.925787    1.072200
  39 H     1.0000    0     1.008   -0.398911   -7.776674    1.070297
  40 O     8.0000    0    15.999    0.114371   10.830927    1.904850
  41 H     1.0000    0     1.008    1.164521   12.132396    2.609746
  42 H     1.0000    0     1.008   -0.948873   10.234335    3.272300
  43 O     8.0000    0    15.999    2.074512    8.177151    7.945994
  44 H     1.0000    0     1.008    1.854726    7.085146    9.405999
  45 H     1.0000    0     1.008    0.375743    8.498731    7.309377
  46 O     8.0000    0    15.999    6.778781   -6.933833   -8.294853
  47 H     1.0000    0     1.008    5.278104   -7.019979   -9.367243
  48 H     1.0000    0     1.008    8.185611   -7.428976   -9.321102
  49 O     8.0000    0    15.999   -5.712557   -0.132937    8.775491
  50 H     1.0000    0     1.008   -5.109476    1.596389    8.919574
  51 H     1.0000    0     1.008   -4.189431   -1.152942    8.986757
  52 O     8.0000    0    15.999    4.531416   -7.278431   -3.193449
  53 H     1.0000    0     1.008    5.485798   -5.771141   -2.627019
  54 H     1.0000    0     1.008    5.527006   -7.991420   -4.539566
  55 O     8.0000    0    15.999    1.743533    1.356918  -11.144041
  56 H     1.0000    0     1.008    1.421533    0.804448   -9.380633
  57 H     1.0000    0     1.008    3.550508    1.734266  -11.141776
  58 O     8.0000    0    15.999    5.143361   -3.489817    3.499168
  59 H     1.0000    0     1.008    4.984148   -3.309738    5.318284
  60 H     1.0000    0     1.008    6.920169   -3.163020    3.134986
  61 O     8.0000    0    15.999   -2.866965    8.550392    6.048778
  62 H     1.0000    0     1.008   -3.710078    7.825566    4.556348
  63 H     1.0000    0     1.008   -3.081108    7.209388    7.301254
  64 O     8.0000    0    15.999   -2.616934    4.171206    8.783850
  65 H     1.0000    0     1.008   -1.392676    4.207756   10.144992
  66 H     1.0000    0     1.008   -1.724208    3.304146    7.403010
  67 O     8.0000    0    15.999   -6.026381    1.189609    0.625983
  68 H     1.0000    0     1.008   -5.976062    2.916111    1.237235
  69 H     1.0000    0     1.008   -7.202677    1.148103   -0.787439
  70 O     8.0000    0    15.999    4.276097   -4.307968   13.363918
  71 H     1.0000    0     1.008    3.506132   -5.938143   12.989582
  72 H     1.0000    0     1.008    2.872205   -3.152147   13.691434
  73 O     8.0000    0    15.999    2.271331   -6.898398  -10.915680
  74 H     1.0000    0     1.008    1.476786   -5.439397  -11.793689
  75 H     1.0000    0     1.008    1.446897   -8.378441  -11.558126
  76 O     8.0000    0    15.999   -1.280704   11.094278   -3.390510
  77 H     1.0000    0     1.008   -0.696370   11.236307   -1.663278
  78 H     1.0000    0     1.008   -2.891171   10.195162   -3.252857
  79 O     8.0000    0    15.999    0.752109    0.622674   -6.237041
  80 H     1.0000    0     1.008   -0.130382    2.219738   -6.311440
  81 H     1.0000    0     1.008    2.197688    0.943670   -5.158595
  82 O     8.0000    0    15.999   -0.931498   -2.367110    8.311244
  83 H     1.0000    0     1.008   -1.584792   -3.775858    7.293096
  84 H     1.0000    0     1.008   -0.643037   -0.959086    7.113386
  85 O     8.0000    0    15.999   -6.279933   -6.583475   -7.010043
  86 H     1.0000    0     1.008   -4.909684   -7.600175   -6.264531
  87 H     1.0000    0     1.008   -5.372702   -5.216485   -7.877409
  88 O     8.0000    0    15.999    7.637718    2.818196    1.248944
  89 H     1.0000    0     1.008    6.602040    3.349628    2.658428
  90 H     1.0000    0     1.008    8.149183    4.386517    0.400096
  91 O     8.0000    0    15.999    1.173503   -4.838663   -6.212865
  92 H     1.0000    0     1.008    2.325784   -5.662878   -5.014504
  93 H     1.0000    0     1.008    1.528448   -5.616396   -7.837867
  94 O     8.0000    0    15.999    5.603598   -2.024043   -6.844223
  95 H     1.0000    0     1.008    6.329210   -3.614805   -7.402424
  96 H     1.0000    0     1.008    3.784913   -2.364494   -6.759237
  97 O     8.0000    0    15.999   -3.255676   -5.866569    5.402619
  98 H     1.0000    0     1.008   -4.824156   -4.920360    5.289520
  99 H     1.0000    0     1.008   -2.835512   -6.264610    3.628612
 100 O     8.0000    0    15.999   -4.629555    6.068462    1.995777
 101 H     1.0000    0     1.008   -4.925664    6.992766    0.426163
 102 H     1.0000    0     1.008   -3.011411    5.187852    1.762685
 103 O     8.0000    0    15.999    0.321377   -0.810230   13.176383
 104 H     1.0000    0     1.008   -0.277357   -1.486750   11.573763
 105 H     1.0000    0     1.008    0.767036    0.932621   12.809284
 106 O     8.0000    0    15.999   -5.294378    7.867306   -2.808399
 107 H     1.0000    0     1.008   -4.108935    6.438432   -3.185951
 108 H     1.0000    0     1.008   -6.692083    7.700943   -3.948348
 109 O     8.0000    0    15.999    5.498682    2.296781    9.286130
 110 H     1.0000    0     1.008    5.165102    0.482523    9.030253
 111 H     1.0000    0     1.008    5.339166    3.058713    7.616721
 112 O     8.0000    0    15.999    1.917164   -8.715010   11.684873
 113 H     1.0000    0     1.008    1.706638   -8.905108    9.856852
 114 H     1.0000    0     1.008    0.484723   -9.541589   12.434137
 115 O     8.0000    0    15.999   -6.029471  -10.730427    1.826046
 116 H     1.0000    0     1.008   -7.144935   -9.262685    1.822746
 117 H     1.0000    0     1.008   -6.823655  -11.993739    0.795219
 118 O     8.0000    0    15.999    7.783242    7.181644   -1.471204
 119 H     1.0000    0     1.008    6.022761    7.380332   -0.925492
 120 H     1.0000    0     1.008    7.634671    6.733041   -3.254004
 121 O     8.0000    0    15.999   -8.970924   -6.315051    1.536650
 122 H     1.0000    0     1.008   -8.336275   -4.971929    2.632232
 123 H     1.0000    0     1.008  -10.776036   -6.310280    1.720199
 124 O     8.0000    0    15.999    0.726064   -9.207801    6.655941
 125 H     1.0000    0     1.008   -0.800208   -8.217176    6.426207
 126 H     1.0000    0     1.008    1.692303   -8.976234    5.115307
 127 O     8.0000    0    15.999    2.846991    6.708215    0.112667
 128 H     1.0000    0     1.008    1.780364    8.151928    0.482359
 129 H     1.0000    0     1.008    3.187946    5.933013    1.749138
 130 O     8.0000    0    15.999    3.918216    4.633893    4.844761
 131 H     1.0000    0     1.008    2.442719    3.528107    5.026377
 132 H     1.0000    0     1.008    3.495986    6.122900    5.878160
 133 O     8.0000    0    15.999   -0.271186   -3.045112  -12.821034
 134 H     1.0000    0     1.008   -1.601538   -3.002362  -11.522878
 135 H     1.0000    0     1.008    0.603130   -1.429641  -12.584196
 136 O     8.0000    0    15.999    2.831617   -7.812816    1.832511
 137 H     1.0000    0     1.008    3.544611   -8.114167    0.168323
 138 H     1.0000    0     1.008    3.672541   -6.273370    2.432742
 139 O     8.0000    0    15.999    6.736656   -2.938183   -2.009930
 140 H     1.0000    0     1.008    5.544776   -2.170528   -0.864531
 141 H     1.0000    0     1.008    6.421423   -2.204727   -3.694321
 142 O     8.0000    0    15.999    1.760399    4.298753   11.847680
 143 H     1.0000    0     1.008    2.451718    4.924886   13.402795
 144 H     1.0000    0     1.008    3.207855    3.513616   10.918175
 145 O     8.0000    0    15.999   -8.707354    0.261179   -3.788974
 146 H     1.0000    0     1.008  -10.438446   -0.039095   -4.220072
 147 H     1.0000    0     1.008   -7.944811   -1.421552   -3.427217
 148 O     8.0000    0    15.999    9.922815   -1.912449    1.943492
 149 H     1.0000    0     1.008    9.473745   -2.511856    0.261809
 150 H     1.0000    0     1.008    9.492598   -0.125370    1.905876
 151 O     8.0000    0    15.999    6.671024    2.007388   -9.931461
 152 H     1.0000    0     1.008    6.639568    3.399913   -8.714559
 153 H     1.0000    0     1.008    6.526973    0.494019   -8.867199
 154 O     8.0000    0    15.999   -7.025255   -2.345314    4.244039
 155 H     1.0000    0     1.008   -6.920540   -1.468522    5.857688
 156 H     1.0000    0     1.008   -6.667302   -1.066278    2.942574
 157 O     8.0000    0    15.999   -3.172597   -2.770708   -8.573316
 158 H     1.0000    0     1.008   -1.680126   -3.132918   -7.558559
 159 H     1.0000    0     1.008   -3.710503   -1.069243   -8.079789
 160 O     8.0000    0    15.999   -4.813300    1.837392   -6.864722
 161 H     1.0000    0     1.008   -3.812981    2.623895   -5.520532
 162 H     1.0000    0     1.008   -6.379171    1.356918   -6.034766

--------------------------------
INTERNAL COORDINATES (ANGSTROEM)
--------------------------------
 H      0   0   0     0.000000000000     0.00000000     0.00000000
 C      1   0   0     1.088468154735     0.00000000     0.00000000
 H      2   1   0     2.044855327642    84.76648085     0.00000000
 H      2   1   3     1.085986496117   109.57719599   102.71753097
 N      3   2   1     1.038026603428    43.23396367   214.27380830
 H      2   1   3     2.151115442325   101.22548538   193.47110838
 C      6   2   1     1.087913459352    41.51160256   108.59563300
 O      7   6   2     2.402435948090   127.48478498   255.08853652
 C      8   7   6     1.244576346690    32.75465350   313.91777055
 H      5   3   2     1.028751973964   110.18941479   119.40882865
 O      9   8   7     1.271395857997   121.77329492   179.40607398
 H      5   3   2     1.036329984229   111.34994762   235.81541394
 H      7   6   2     1.089442498487   108.47969490   120.52269292
 O     10   5   3     2.496456833121   113.56567770   337.83334921
 H     14  10   5     0.983411725912   148.31936771   324.10845844
 H     14  10   5     0.974100214275    58.33463520   255.32250306
 O      6   2   1     3.384907803033   156.60219814   348.87493295
 H     17   6   2     0.981179370604    56.32877906   153.86932719
 H     17   6   2     0.979147308778   149.79352094   209.66253636
 O      1   2   3     2.141643957760   167.49673742    50.19423494
 H     20   1   2     0.972754309629   101.04547515    34.74014201
 H     20   1   2     0.973913127835   102.69239201   141.58371891
 O     15  14  10     3.071265372400   102.88460331   102.12269525
 H     23  15  14     0.970913672398    80.05907588     2.06754398
 H     23  15  14     0.978958049525   110.18011479   259.59414565
 O     12   5   3     1.788128547247   154.74506809   267.50443681
 H     26  12   5     0.967388537009   121.68634957   244.93386623
 H     26  12   5     0.986049298754   108.00052467   119.71078473
 O     15  14  10     1.700201055492   163.73398258   122.56822746
 H     29  15  14     0.972779236301    97.03746941    92.99084401
 H     29  15  14     0.980788433253    95.09682627   344.45280712
 O     20   1   2     2.695619300070   150.98632452   287.99408575
 H     32  20   1     0.989139576907     8.87019340   295.79088973
 H     32  20   1     0.974520902277    96.46292619    71.80373247
 O     28  26  12     2.875639925551   109.11314184    46.22021692
 H     35  28  26     0.977632931815    77.98203407    22.86785704
 H     35  28  26     0.982608792590    96.42704847   279.84768174
 O     36  35  28     1.789153540224   173.32019318   192.45625019
 H     38  36  35     0.970177093782    94.35327775   259.84733446
 H     38  36  35     0.979742573522   104.29186626     9.62228712
 O     30  29  15     4.023291190556   124.74591459    49.43792131
 H     41  30  29     0.960352770633   121.87861232   111.53938422
 H     41  30  29     0.969467754268   131.87111902   289.53879145
 O     43  41  30     3.140312312868   113.89481732   123.77741376
 H     44  43  41     0.971785646459   140.47124081   200.76885736
 H     44  43  41     0.974966823055    36.64123920   178.19302986
 O     37  35  28     4.489781099219   135.30273899   189.72810897
 H     47  37  35     0.977112678553    57.32463491    95.06395778
 H     47  37  35     0.958018783376   158.40533441    48.35074715
 O     11   9   8     3.602530548653   110.75356630   108.30933594
 H     50  11   9     0.972165789802    62.96793652   237.60466253
 H     50  11   9     0.976465584672    61.13467232   111.48888166
 O      4   2   1     2.949693704737   144.56381471   353.72703758
 H     53   4   2     0.990510772105    76.45079428    29.43895916
 H     53   4   2     0.962983427426   154.15217114   292.72422205
 O     25  23  15     1.801064083378   162.42583224    25.08703539
 H     56  25  23     0.992614929260    88.45262806     4.90296097
 H     56  25  23     0.976838136962   118.09502854   260.83354251
 O      6   2   1     2.326113457945   107.09555831   315.50219125
 H     59   6   2     0.971001913778    88.37281057   167.71654709
 H     59   6   2     0.975248342766   153.71609277    45.39052790
 O     46  44  43     1.841273126527   170.77243400   106.21586392
 H     62  46  44     0.984832884855   134.98691243   308.74370751
 H     62  46  44     0.977595851866    81.46732072    47.25856215
 O     64  62  46     1.805735073151   157.68267550   295.24141744
 H     65  64  62     0.968965390757   113.33768685    97.49931563
 H     65  64  62     0.983682094437    99.08368360   347.97955275
 O     10   5   3     2.012187155830   145.33654589   144.16526350
 H     68  10   5     0.969560593543   115.47182136   164.78553351
 H     68  10   5     0.973334441394    92.52964607   275.17133212
 O     19  17   6     1.763712119892   157.98698814   292.13396154
 H     71  19  17     0.974382254987    96.58817539    86.71029737
 H     71  19  17     0.977775945597    94.78378274   340.17781298
 O     48  47  37     1.790866159080   170.44574765    28.40024197
 H     74  48  47     0.994358384528   128.12379532    76.71810479
 H     74  48  47     0.958812554374   122.48962897   233.05916178
 O     30  29  15     1.839706225724   158.02780350     6.47602867
 H     77  30  29     0.967823291503   116.36057597    67.18811846
 H     77  30  29     0.978757979249   100.42923072   315.47364288
 O     57  56  25     1.703534950990   166.01087265   329.90953202
 H     80  57  56     0.966373687464    90.64887617    22.13285413
 H     80  57  56     0.969389118730   113.63391827   275.86476749
 O     18  17   6     1.779003136985   174.28398455   294.90662392
 H     83  18  17     0.982616252556   109.14696047   120.98882671
 H     83  18  17     0.990085790854    86.79361490    15.25347074
 O     28  26  12     1.680133140612   168.61785451   344.38081527
 H     86  28  26     0.985328661544    89.08836224    75.18843906
 H     86  28  26     0.982055466946    97.70198675   331.91809701
 O     22  20   1     1.809895342844   158.79149959   249.92920567
 H     89  22  20     0.967352111115   106.08736804    42.66765024
 H     89  22  20     0.981729570335    90.77114799   296.53506749
 O     37  35  28     1.751797039583   174.85207157   158.51213023
 H     92  37  35     0.981927278701    85.97482081   341.11528904
 H     92  37  35     0.971653993923    98.10009629    85.98746955
 O     82  80  57     2.551539105634   104.10818917   308.34618556
 H     95  82  80     0.971242157224   156.78624159   309.46241159
 H     95  82  80     0.980156357640    53.38125422   324.61611730
 O     84  83  18     1.733960615297   168.46937663   202.18362274
 H     98  84  83     0.971185659937    98.18637456   352.57288148
 H     98  84  83     0.987461303690   124.73455651   106.11906120
 O     63  62  46     1.713862415094   166.88595390    24.90325921
 H    101  63  62     0.976572881401   116.50405142   231.98134723
 H    101  63  62     0.982646110231    96.26521285   343.01501490
 O     73  71  19     1.852617263751   161.07849331     8.19838666
 H    104  73  71     0.973535368647    96.85139527    39.05499179
 H    104  73  71     0.971570475026   119.18012559   287.95558778
 O    102 101  63     1.783819125744   164.49606017   156.22156582
 H    107 102 101     1.002578119550    85.82029571   333.41446211
 H    107 102 101     0.958488794266   131.64223488    82.17540705
 O     17   6   2     2.695165239948   105.13285527    55.69084558
 H    110  17   6     0.985503676639     3.68740349   234.20997330
 H    110  17   6     0.974736652777   104.35541217   338.62607644
 O     72  71  19     1.828387434852   168.69691253   338.80999108
 H    113  72  71     0.978923668435   120.53550695    19.87947736
 H    113  72  71     0.960790791177   124.95123545   237.08425375
 O     39  38  36     1.842607393423   155.95968024   266.85021088
 H    116  39  38     0.975544723054    95.02528838   356.63685313
 H    116  39  38     0.959737101923   126.88812302   111.99178553
 O     91  89  22     1.790497707850   157.15888591    35.21359973
 H    119  91  89     0.980988336154    91.62981300    31.13903585
 H    119  91  89     0.975997904411   110.02187980   286.08988849
 O    117 116  39     1.841098155694   172.85837865    27.76553194
 H    122 117 116     0.976766531530   112.78188397   277.01115853
 H    122 117 116     0.960152859712   121.06764600   149.58656042
 O    114 113  72     1.778773774472   169.56082803   244.79974262
 H    125 114 113     0.970520629996   108.26484358    32.42444301
 H    125 114 113     0.970112715854   129.42997589   161.68488512
 O    120 119  91     1.803479708308   162.45141528   328.77200288
 H    128 120 119     0.969806324584   116.64276761   176.39780502
 H    128 120 119     0.975069603272   100.43274488    63.56131274
 O    130 128 120     1.818083022657   177.00229327    54.50577678
 H    131 130 128     0.980455446323    98.32125905   153.38164328
 H    131 130 128     0.984800638775    98.60155375    47.72331485
 O     75  74  48     1.660254454761   168.84884332   244.07143150
 H    134  75  74     0.983881714708   100.81067377     1.90481549
 H    134  75  74     0.980087898431   111.14681458   110.76254225
 O     40  38  36     1.756564503858   169.95660890   101.65876202
 H    137  40  38     0.971252224333    99.88373512   260.71186698
 H    137  40  38     0.981095142656   120.44587719    14.35889834
 O     54  53   4     1.670984938040   169.59758742   304.30051992
 H    140  54  53     0.964469628809   103.98330422    76.21331063
 H    140  54  53     0.986387117571    96.28264346   326.96265554
 O     66  65  64     1.896884651270   160.34138879   283.02748767
 H    143  66  65     0.959599767726   138.71658484   149.68597780
 H    143  66  65     1.000627201639   115.42293837   331.16663680
 O     70  68  10     1.837693260792   161.26813237    30.74772303
 H    146  70  68     0.957312022681   131.52653926   135.32837400
 H    146  70  68     0.996192830733    83.49397548    28.93649645
 O     61  59   6     1.833082647312   165.39442017   357.43497491
 H    149  61  59     0.974176637228    89.15286984   292.89622731
 H    149  61  59     0.972902555609    98.92369378    36.86380391
 O     58  56  25     1.777048937682   157.92390986    97.34114073
 H    152  58  56     0.978758654142   106.41283762   290.07974842
 H    152  58  56     0.982003568769    93.91283297    35.50978033
 O    123 122 117     1.772214615603   172.28973710   106.78491017
 H    155 123 122     0.973397381855   144.91769590   171.05502665
 H    155 123 122     0.984023933065   106.13936109    15.49522976
 O    135 134  75     1.772689114835   162.16267842    59.47914973
 H    158 135 134     0.974088198850    95.25176254   340.14476391
 H    158 135 134     0.979748853008   115.75419577    90.31226199
 O    160 158 135     1.766300788286   173.36149554   181.22654947
 H    161 160 158     0.979488468325   117.11836971    75.52761869
 H    161 160 158     0.971675937186   102.61672033   322.24090431

---------------------------
INTERNAL COORDINATES (A.U.)
---------------------------
 H      0   0   0     0.000000000000     0.00000000     0.00000000
 C      1   0   0     2.056906717945     0.00000000     0.00000000
 H      2   1   0     3.864216552733    84.76648085     0.00000000
 H      2   1   3     2.052217062797   109.57719599   102.71753097
 N      3   2   1     1.961586000203    43.23396367   214.27380830
 H      2   1   3     4.065019068443   101.22548538   193.47110838
 C      6   2   1     2.055858495582    41.51160256   108.59563300
 O      7   6   2     4.539945996178   127.48478498   255.08853652
 C      8   7   6     2.351908448001    32.75465350   313.91777055
 H      5   3   2     1.944059490523   110.18941479   119.40882865
 O      9   8   7     2.402589979416   121.77329492   179.40607398
 H      5   3   2     1.958379854564   111.34994762   235.81541394
 H      7   6   2     2.058747960795   108.47969490   120.52269292
 O     10   5   3     4.717619719756   113.56567770   337.83334921
 H     14  10   5     1.858378838860   148.31936771   324.10845844
 H     14  10   5     1.840782631974    58.33463520   255.32250306
 O      6   2   1     6.396548736306   156.60219814   348.87493295
 H     17   6   2     1.854160298695    56.32877906   153.86932719
 H     17   6   2     1.850320258356   149.79352094   209.66253636
 O      1   2   3     4.047120556533   167.49673742    50.19423494
 H     20   1   2     1.838239240790   101.04547515    34.74014201
 H     20   1   2     1.840429089838   102.69239201   141.58371891
 O     15  14  10     5.803850438432   102.88460331   102.12269525
 H     23  15  14     1.834760940512    80.05907588     2.06754398
 H     23  15  14     1.849962610200   110.18011479   259.59414565
 O     12   5   3     3.379073246543   154.74506809   267.50443681
 H     26  12   5     1.828099400041   121.68634957   244.93386623
 H     26  12   5     1.863363129190   108.00052467   119.71078473
 O     15  14  10     3.212914367484   163.73398258   122.56822746
 H     29  15  14     1.838286345373    97.03746941    92.99084401
 H     29  15  14     1.853421534167    95.09682627   344.45280712
 O     20   1   2     5.093982238445   150.98632452   287.99408575
 H     32  20   1     1.869202908577     8.87019340   295.79088973
 H     32  20   1     1.841577617086    96.46292619    71.80373247
 O     28  26  12     5.434171919061   109.11314184    46.22021692
 H     35  28  26     1.847458500632    77.98203407    22.86785704
 H     35  28  26     1.856861514777    96.42704847   279.84768174
 O     36  35  28     3.381010202559   173.32019318   192.45625019
 H     38  36  35     1.833369008651    94.35327775   259.84733446
 H     38  36  35     1.851445145699   104.29186626     9.62228712
 O     30  29  15     7.602918507168   124.74591459    49.43792131
 H     41  30  29     1.814803728449   121.87861232   111.53938422
 H     41  30  29     1.832028551235   131.87111902   289.53879145
 O     43  41  30     5.934330246302   113.89481732   123.77741376
 H     44  43  41     1.836408732684   140.47124081   200.76885736
 H     44  43  41     1.842420285234    36.64123920   178.19302986
 O     37  35  28     8.484456678780   135.30273899   189.72810897
 H     47  37  35     1.846475364447    57.32463491    95.06395778
 H     47  37  35     1.810393131734   158.40533441    48.35074715
 O     11   9   8     6.807796126039   110.75356630   108.30933594
 H     50  11   9     1.837127099494    62.96793652   237.60466253
 H     50  11   9     1.845252534229    61.13467232   111.48888166
 O      4   2   1     5.574113280905   144.56381471   353.72703758
 H     53   4   2     1.871794091978    76.45079428    29.43895916
 H     53   4   2     1.819774949340   154.15217114   292.72422205
 O     25  23  15     3.403517867227   162.42583224    25.08703539
 H     56  25  23     1.875770372743    88.45262806     4.90296097
 H     56  25  23     1.845956556027   118.09502854   260.83354251
 O      6   2   1     4.395717391944   107.09555831   315.50219125
 H     59   6   2     1.834927692554    88.37281057   167.71654709
 H     59   6   2     1.842952280388   153.71609277    45.39052790
 O     46  44  43     3.479501946885   170.77243400   106.21586392
 H     62  46  44     1.861064440056   134.98691243   308.74370751
 H     62  46  44     1.847388429683    81.46732072    47.25856215
 O     64  62  46     3.412344758672   157.68267550   295.24141744
 H     65  64  62     1.831079221780   113.33768685    97.49931563
 H     65  64  62     1.858889761329    99.08368360   347.97955275
 O     10   5   3     3.802482654712   145.33654589   144.16526350
 H     68  10   5     1.832203992039   115.47182136   164.78553351
 H     68  10   5     1.839335530949    92.52964607   275.17133212
 O     19  17   6     3.332932885674   157.98698814   292.13396154
 H     71  19  17     1.841315611678    96.58817539    86.71029737
 H     71  19  17     1.847728757515    94.78378274   340.17781298
 O     48  47  37     3.384246583168   170.44574765    28.40024197
 H     74  48  47     1.879065025727   128.12379532    76.71810479
 H     74  48  47     1.811893141532   122.48962897   233.05916178
 O     30  29  15     3.476540933489   158.02780350     6.47602867
 H     77  30  29     1.828920966971   116.36057597    67.18811846
 H     77  30  29     1.849584532171   100.42923072   315.47364288
 O     57  56  25     3.219214516934   166.01087265   329.90953202
 H     80  57  56     1.826181612335    90.64887617    22.13285413
 H     80  57  56     1.831879951604   113.63391827   275.86476749
 O     18  17   6     3.361828720288   174.28398455   294.90662392
 H     83  18  17     1.856875612070   109.14696047   120.98882671
 H     83  18  17     1.870990993801    86.79361490    15.25347074
 O     28  26  12     3.174991504282   168.61785451   344.38081527
 H     86  28  26     1.862001322221    89.08836224    75.18843906
 H     86  28  26     1.855815880848    97.70198675   331.91809701
 O     22  20   1     3.420206529035   158.79149959   249.92920567
 H     89  22  20     1.828030565079   106.08736804    42.66765024
 H     89  22  20     1.855200025505    90.77114799   296.53506749
 O     37  35  28     3.310416647026   174.85207157   158.51213023
 H     92  37  35     1.855573640172    85.97482081   341.11528904
 H     92  37  35     1.836159945445    98.10009629    85.98746955
 O     82  80  57     4.821710129638   104.10818917   308.34618556
 H     95  82  80     1.835381686873   156.78624159   309.46241159
 H     95  82  80     1.852227084362    53.38125422   324.61611730
 O     84  83  18     3.276710689917   168.46937663   202.18362274
 H     98  84  83     1.835274922472    98.18637456   352.57288148
 H     98  84  83     1.866031431819   124.73455651   106.11906120
 O     63  62  46     3.238730595748   166.88595390    24.90325921
 H    101  63  62     1.845455295663   116.50405142   231.98134723
 H    101  63  62     1.856932034899    96.26521285   343.01501490
 O     73  71  19     3.500939259465   161.07849331     8.19838666
 H    104  73  71     1.839715228429    96.85139527    39.05499179
 H    104  73  71     1.836002117603   119.18012559   287.95558778
 O    102 101  63     3.370929620106   164.49606017   156.22156582
 H    107 102 101     1.894598073811    85.82029571   333.41446211
 H    107 102 101     1.811281323595   131.64223488    82.17540705
 O     17   6   2     5.093124189167   105.13285527    55.69084558
 H    110  17   6     1.862332052820     3.68740349   234.20997330
 H    110  17   6     1.841985326445   104.35541217   338.62607644
 O     72  71  19     3.455151518574   168.69691253   338.80999108
 H    113  72  71     1.849897639357   120.53550695    19.87947736
 H    113  72  71     1.815631467317   124.95123545   237.08425375
 O     39  38  36     3.482023345908   155.95968024   266.85021088
 H    116  39  38     1.843512357963    95.02528838   356.63685313
 H    116  39  38     1.813640283197   126.88812302   111.99178553
 O     91  89  22     3.383550311250   157.15888591    35.21359973
 H    119  91  89     1.853799295903    91.62981300    31.13903585
 H    119  91  89     1.844368746618   110.02187980   286.08988849
 O    117 116  39     3.479171299929   172.85837865    27.76553194
 H    122 117 116     1.845821241371   112.78188397   277.01115853
 H    122 117 116     1.814425951557   121.06764600   149.58656042
 O    114 113  72     3.361395287953   169.56082803   244.79974262
 H    125 114 113     1.834018198013   108.26484358    32.42444301
 H    125 114 113     1.833247351999   129.42997589   161.68488512
 O    120 119  91     3.408082736786   162.45141528   328.77200288
 H    128 120 119     1.832668356408   116.64276761   176.39780502
 H    128 120 119     1.842614511696   100.43274488    63.56131274
 O    130 128 120     3.435679001554   177.00229327    54.50577678
 H    131 130 128     1.852792280062    98.32125905   153.38164328
 H    131 130 128     1.861003503796    98.60155375    47.72331485
 O     75  74  48     3.137426232121   168.84884332   244.07143150
 H    134  75  74     1.859266988971   100.81067377     1.90481549
 H    134  75  74     1.852097715205   111.14681458   110.76254225
 O     40  38  36     3.319425848858   169.95660890   101.65876202
 H    137  40  38     1.835400710951    99.88373512   260.71186698
 H    137  40  38     1.854001130940   120.44587719    14.35889834
 O     54  53   4     3.157703906804   169.59758742   304.30051992
 H    140  54  53     1.822583462934   103.98330422    76.21331063
 H    140  54  53     1.864001514237    96.28264346   326.96265554
 O     66  65  64     3.584592498540   160.34138879   283.02748767
 H    143  66  65     1.813380759176   138.71658484   149.68597780
 H    143  66  65     1.890911373249   115.42293837   331.16663680
 O     70  68  10     3.472736981050   161.26813237    30.74772303
 H    146  70  68     1.809057547578   131.52653926   135.32837400
 H    146  70  68     1.882531626662    83.49397548    28.93649645
 O     61  59   6     3.464024184263   165.39442017   357.43497491
 H    149  61  59     1.840927050424    89.15286984   292.89622731
 H    149  61  59     1.838519385093    98.92369378    36.86380391
 O     58  56  25     3.358135818795   157.92390986    97.34114073
 H    152  58  56     1.849585807534   106.41283762   290.07974842
 H    152  58  56     1.855717807507    93.91283297    35.50978033
 O    123 122 117     3.349000274022   172.28973710   106.78491017
 H    155 123 122     1.839454471182   144.91769590   171.05502665
 H    155 123 122     1.859535742718   106.13936109    15.49522976
 O    135 134  75     3.349896947621   162.16267842    59.47914973
 H    158 135 134     1.840759926112    95.25176254   340.14476391
 H    158 135 134     1.851457012208   115.75419577    90.31226199
 O    160 158 135     3.337824759990   173.36149554   181.22654947
 H    161 160 158     1.850964956469   117.11836971    75.52761869
 H    161 160 158     1.836201412202   102.61672033   322.24090431

---------------------
BASIS SET INFORMATION
---------------------
There are 4 groups of distinct atoms

 Group   1 Type H   : 5s1p contracted to 3s1p pattern {311/1}
 Group   2 Type C   : 11s6p2d1f contracted to 5s3p2d1f pattern {62111/411/11/1}
 Group   3 Type N   : 11s6p2d1f contracted to 5s3p2d1f pattern {62111/411/11/1}
 Group   4 Type O   : 11s6p2d1f contracted to 5s3p2d1f pattern {62111/411/11/1}

Atom   0H    basis set group =>   1
Atom   1C    basis set group =>   2
Atom   2H    basis set group =>   1
Atom   3H    basis set group =>   1
Atom   4N    basis set group =>   3
Atom   5H    basis set group =>   1
Atom   6C    basis set group =>   2
Atom   7O    basis set group =>   4
Atom   8C    basis set group =>   2
Atom   9H    basis set group =>   1
Atom  10O    basis set group =>   4
Atom  11H    basis set group =>   1
Atom  12H    basis set group =>   1
Atom  13O    basis set group =>   4
Atom  14H    basis set group =>   1
Atom  15H    basis set group =>   1
Atom  16O    basis set group =>   4
Atom  17H    basis set group =>   1
Atom  18H    basis set group =>   1
Atom  19O    basis set group =>   4
Atom  20H    basis set group =>   1
Atom  21H    basis set group =>   1
Atom  22O    basis set group =>   4
Atom  23H    basis set group =>   1
Atom  24H    basis set group =>   1
Atom  25O    basis set group =>   4
Atom  26H    basis set group =>   1
Atom  27H    basis set group =>   1
Atom  28O    basis set group =>   4
Atom  29H    basis set group =>   1
Atom  30H    basis set group =>   1
Atom  31O    basis set group =>   4
Atom  32H    basis set group =>   1
Atom  33H    basis set group =>   1
Atom  34O    basis set group =>   4
Atom  35H    basis set group =>   1
Atom  36H    basis set group =>   1
Atom  37O    basis set group =>   4
Atom  38H    basis set group =>   1
Atom  39H    basis set group =>   1
Atom  40O    basis set group =>   4
Atom  41H    basis set group =>   1
Atom  42H    basis set group =>   1
Atom  43O    basis set group =>   4
Atom  44H    basis set group =>   1
Atom  45H    basis set group =>   1
Atom  46O    basis set group =>   4
Atom  47H    basis set group =>   1
Atom  48H    basis set group =>   1
Atom  49O    basis set group =>   4
Atom  50H    basis set group =>   1
Atom  51H    basis set group =>   1
Atom  52O    basis set group =>   4
Atom  53H    basis set group =>   1
Atom  54H    basis set group =>   1
Atom  55O    basis set group =>   4
Atom  56H    basis set group =>   1
Atom  57H    basis set group =>   1
Atom  58O    basis set group =>   4
Atom  59H    basis set group =>   1
Atom  60H    basis set group =>   1
Atom  61O    basis set group =>   4
Atom  62H    basis set group =>   1
Atom  63H    basis set group =>   1
Atom  64O    basis set group =>   4
Atom  65H    basis set group =>   1
Atom  66H    basis set group =>   1
Atom  67O    basis set group =>   4
Atom  68H    basis set group =>   1
Atom  69H    basis set group =>   1
Atom  70O    basis set group =>   4
Atom  71H    basis set group =>   1
Atom  72H    basis set group =>   1
Atom  73O    basis set group =>   4
Atom  74H    basis set group =>   1
Atom  75H    basis set group =>   1
Atom  76O    basis set group =>   4
Atom  77H    basis set group =>   1
Atom  78H    basis set group =>   1
Atom  79O    basis set group =>   4
Atom  80H    basis set group =>   1
Atom  81H    basis set group =>   1
Atom  82O    basis set group =>   4
Atom  83H    basis set group =>   1
Atom  84H    basis set group =>   1
Atom  85O    basis set group =>   4
Atom  86H    basis set group =>   1
Atom  87H    basis set group =>   1
Atom  88O    basis set group =>   4
Atom  89H    basis set group =>   1
Atom  90H    basis set group =>   1
Atom  91O    basis set group =>   4
Atom  92H    basis set group =>   1
Atom  93H    basis set group =>   1
Atom  94O    basis set group =>   4
Atom  95H    basis set group =>   1
Atom  96H    basis set group =>   1
Atom  97O    basis set group =>   4
Atom  98H    basis set group =>   1
Atom  99H    basis set group =>   1
Atom 100O    basis set group =>   4
Atom 101H    basis set group =>   1
Atom 102H    basis set group =>   1
Atom 103O    basis set group =>   4
Atom 104H    basis set group =>   1
Atom 105H    basis set group =>   1
Atom 106O    basis set group =>   4
Atom 107H    basis set group =>   1
Atom 108H    basis set group =>   1
Atom 109O    basis set group =>   4
Atom 110H    basis set group =>   1
Atom 111H    basis set group =>   1
Atom 112O    basis set group =>   4
Atom 113H    basis set group =>   1
Atom 114H    basis set group =>   1
Atom 115O    basis set group =>   4
Atom 116H    basis set group =>   1
Atom 117H    basis set group =>   1
Atom 118O    basis set group =>   4
Atom 119H    basis set group =>   1
Atom 120H    basis set group =>   1
Atom 121O    basis set group =>   4
Atom 122H    basis set group =>   1
Atom 123H    basis set group =>   1
Atom 124O    basis set group =>   4
Atom 125H    basis set group =>   1
Atom 126H    basis set group =>   1
Atom 127O    basis set group =>   4
Atom 128H    basis set group =>   1
Atom 129H    basis set group =>   1
Atom 130O    basis set group =>   4
Atom 131H    basis set group =>   1
Atom 132H    basis set group =>   1
Atom 133O    basis set group =>   4
Atom 134H    basis set group =>   1
Atom 135H    basis set group =>   1
Atom 136O    basis set group =>   4
Atom 137H    basis set group =>   1
Atom 138H    basis set group =>   1
Atom 139O    basis set group =>   4
Atom 140H    basis set group =>   1
Atom 141H    basis set group =>   1
Atom 142O    basis set group =>   4
Atom 143H    basis set group =>   1
Atom 144H    basis set group =>   1
Atom 145O    basis set group =>   4
Atom 146H    basis set group =>   1
Atom 147H    basis set group =>   1
Atom 148O    basis set group =>   4
Atom 149H    basis set group =>   1
Atom 150H    basis set group =>   1
Atom 151O    basis set group =>   4
Atom 152H    basis set group =>   1
Atom 153H    basis set group =>   1
Atom 154O    basis set group =>   4
Atom 155H    basis set group =>   1
Atom 156H    basis set group =>   1
Atom 157O    basis set group =>   4
Atom 158H    basis set group =>   1
Atom 159H    basis set group =>   1
Atom 160O    basis set group =>   4
Atom 161H    basis set group =>   1
Atom 162H    basis set group =>   1
---------------------------------
AUXILIARY/J BASIS SET INFORMATION
---------------------------------
There are 4 groups of distinct atoms

 Group   1 Type H   : 5s2p1d contracted to 3s1p1d pattern {311/2/1}
 Group   2 Type C   : 12s5p4d2f1g contracted to 6s4p3d1f1g pattern {711111/2111/211/2/1}
 Group   3 Type N   : 12s5p4d2f1g contracted to 6s4p3d1f1g pattern {711111/2111/211/2/1}
 Group   4 Type O   : 12s5p4d2f1g contracted to 6s4p3d1f1g pattern {711111/2111/211/2/1}

Atom   0H    basis set group =>   1
Atom   1C    basis set group =>   2
Atom   2H    basis set group =>   1
Atom   3H    basis set group =>   1
Atom   4N    basis set group =>   3
Atom   5H    basis set group =>   1
Atom   6C    basis set group =>   2
Atom   7O    basis set group =>   4
Atom   8C    basis set group =>   2
Atom   9H    basis set group =>   1
Atom  10O    basis set group =>   4
Atom  11H    basis set group =>   1
Atom  12H    basis set group =>   1
Atom  13O    basis set group =>   4
Atom  14H    basis set group =>   1
Atom  15H    basis set group =>   1
Atom  16O    basis set group =>   4
Atom  17H    basis set group =>   1
Atom  18H    basis set group =>   1
Atom  19O    basis set group =>   4
Atom  20H    basis set group =>   1
Atom  21H    basis set group =>   1
Atom  22O    basis set group =>   4
Atom  23H    basis set group =>   1
Atom  24H    basis set group =>   1
Atom  25O    basis set group =>   4
Atom  26H    basis set group =>   1
Atom  27H    basis set group =>   1
Atom  28O    basis set group =>   4
Atom  29H    basis set group =>   1
Atom  30H    basis set group =>   1
Atom  31O    basis set group =>   4
Atom  32H    basis set group =>   1
Atom  33H    basis set group =>   1
Atom  34O    basis set group =>   4
Atom  35H    basis set group =>   1
Atom  36H    basis set group =>   1
Atom  37O    basis set group =>   4
Atom  38H    basis set group =>   1
Atom  39H    basis set group =>   1
Atom  40O    basis set group =>   4
Atom  41H    basis set group =>   1
Atom  42H    basis set group =>   1
Atom  43O    basis set group =>   4
Atom  44H    basis set group =>   1
Atom  45H    basis set group =>   1
Atom  46O    basis set group =>   4
Atom  47H    basis set group =>   1
Atom  48H    basis set group =>   1
Atom  49O    basis set group =>   4
Atom  50H    basis set group =>   1
Atom  51H    basis set group =>   1
Atom  52O    basis set group =>   4
Atom  53H    basis set group =>   1
Atom  54H    basis set group =>   1
Atom  55O    basis set group =>   4
Atom  56H    basis set group =>   1
Atom  57H    basis set group =>   1
Atom  58O    basis set group =>   4
Atom  59H    basis set group =>   1
Atom  60H    basis set group =>   1
Atom  61O    basis set group =>   4
Atom  62H    basis set group =>   1
Atom  63H    basis set group =>   1
Atom  64O    basis set group =>   4
Atom  65H    basis set group =>   1
Atom  66H    basis set group =>   1
Atom  67O    basis set group =>   4
Atom  68H    basis set group =>   1
Atom  69H    basis set group =>   1
Atom  70O    basis set group =>   4
Atom  71H    basis set group =>   1
Atom  72H    basis set group =>   1
Atom  73O    basis set group =>   4
Atom  74H    basis set group =>   1
Atom  75H    basis set group =>   1
Atom  76O    basis set group =>   4
Atom  77H    basis set group =>   1
Atom  78H    basis set group =>   1
Atom  79O    basis set group =>   4
Atom  80H    basis set group =>   1
Atom  81H    basis set group =>   1
Atom  82O    basis set group =>   4
Atom  83H    basis set group =>   1
Atom  84H    basis set group =>   1
Atom  85O    basis set group =>   4
Atom  86H    basis set group =>   1
Atom  87H    basis set group =>   1
Atom  88O    basis set group =>   4
Atom  89H    basis set group =>   1
Atom  90H    basis set group =>   1
Atom  91O    basis set group =>   4
Atom  92H    basis set group =>   1
Atom  93H    basis set group =>   1
Atom  94O    basis set group =>   4
Atom  95H    basis set group =>   1
Atom  96H    basis set group =>   1
Atom  97O    basis set group =>   4
Atom  98H    basis set group =>   1
Atom  99H    basis set group =>   1
Atom 100O    basis set group =>   4
Atom 101H    basis set group =>   1
Atom 102H    basis set group =>   1
Atom 103O    basis set group =>   4
Atom 104H    basis set group =>   1
Atom 105H    basis set group =>   1
Atom 106O    basis set group =>   4
Atom 107H    basis set group =>   1
Atom 108H    basis set group =>   1
Atom 109O    basis set group =>   4
Atom 110H    basis set group =>   1
Atom 111H    basis set group =>   1
Atom 112O    basis set group =>   4
Atom 113H    basis set group =>   1
Atom 114H    basis set group =>   1
Atom 115O    basis set group =>   4
Atom 116H    basis set group =>   1
Atom 117H    basis set group =>   1
Atom 118O    basis set group =>   4
Atom 119H    basis set group =>   1
Atom 120H    basis set group =>   1
Atom 121O    basis set group =>   4
Atom 122H    basis set group =>   1
Atom 123H    basis set group =>   1
Atom 124O    basis set group =>   4
Atom 125H    basis set group =>   1
Atom 126H    basis set group =>   1
Atom 127O    basis set group =>   4
Atom 128H    basis set group =>   1
Atom 129H    basis set group =>   1
Atom 130O    basis set group =>   4
Atom 131H    basis set group =>   1
Atom 132H    basis set group =>   1
Atom 133O    basis set group =>   4
Atom 134H    basis set group =>   1
Atom 135H    basis set group =>   1
Atom 136O    basis set group =>   4
Atom 137H    basis set group =>   1
Atom 138H    basis set group =>   1
Atom 139O    basis set group =>   4
Atom 140H    basis set group =>   1
Atom 141H    basis set group =>   1
Atom 142O    basis set group =>   4
Atom 143H    basis set group =>   1
Atom 144H    basis set group =>   1
Atom 145O    basis set group =>   4
Atom 146H    basis set group =>   1
Atom 147H    basis set group =>   1
Atom 148O    basis set group =>   4
Atom 149H    basis set group =>   1
Atom 150H    basis set group =>   1
Atom 151O    basis set group =>   4
Atom 152H    basis set group =>   1
Atom 153H    basis set group =>   1
Atom 154O    basis set group =>   4
Atom 155H    basis set group =>   1
Atom 156H    basis set group =>   1
Atom 157O    basis set group =>   4
Atom 158H    basis set group =>   1
Atom 159H    basis set group =>   1
Atom 160O    basis set group =>   4
[...]
117 H      0.6397     1.0000     0.3603     0.8879     0.8879    -0.0000
118 O      8.7342     8.0000    -0.7342     1.7819     1.7819    -0.0000
119 H      0.6523     1.0000     0.3477     0.9452     0.9452     0.0000
120 H      0.6414     1.0000     0.3586     0.9255     0.9255    -0.0000
121 O      8.7223     8.0000    -0.7223     1.8131     1.8131    -0.0000
122 H      0.6155     1.0000     0.3845     0.8868     0.8868    -0.0000
123 H      0.6284     1.0000     0.3716     0.8827     0.8827    -0.0000
124 O      8.7249     8.0000    -0.7249     1.8009     1.8009    -0.0000
125 H      0.6386     1.0000     0.3614     0.9209     0.9209    -0.0000
126 H      0.6376     1.0000     0.3624     0.9189     0.9189     0.0000
127 O      8.7458     8.0000    -0.7458     1.7944     1.7944    -0.0000
128 H      0.6340     1.0000     0.3660     0.9288     0.9288    -0.0000
129 H      0.6219     1.0000     0.3781     0.8888     0.8888    -0.0000
130 O      8.7865     8.0000    -0.7865     1.7509     1.7509    -0.0000
131 H      0.6312     1.0000     0.3688     0.9070     0.9070    -0.0000
132 H      0.6112     1.0000     0.3888     0.9073     0.9073    -0.0000
133 O      8.7347     8.0000    -0.7347     1.7921     1.7921    -0.0000
134 H      0.6357     1.0000     0.3643     0.9211     0.9211     0.0000
135 H      0.6324     1.0000     0.3676     0.9234     0.9234     0.0000
136 O      8.7408     8.0000    -0.7408     1.7911     1.7911    -0.0000
137 H      0.6326     1.0000     0.3674     0.9177     0.9177    -0.0000
138 H      0.6249     1.0000     0.3751     0.9117     0.9117    -0.0000
139 O      8.7148     8.0000    -0.7148     1.8383     1.8383    -0.0000
140 H      0.6459     1.0000     0.3541     0.9039     0.9039    -0.0000
141 H      0.6079     1.0000     0.3921     0.8952     0.8952    -0.0000
142 O      8.7557     8.0000    -0.7557     1.7766     1.7766    -0.0000
143 H      0.6266     1.0000     0.3734     0.8804     0.8804    -0.0000
144 H      0.6161     1.0000     0.3839     0.9070     0.9070    -0.0000
145 O      8.7313     8.0000    -0.7313     1.7960     1.7960    -0.0000
146 H      0.6343     1.0000     0.3657     0.8893     0.8893    -0.0000
147 H      0.6219     1.0000     0.3781     0.9036     0.9036    -0.0000
148 O      8.7229     8.0000    -0.7229     1.8103     1.8103    -0.0000
149 H      0.6333     1.0000     0.3667     0.9023     0.9023    -0.0000
150 H      0.6363     1.0000     0.3637     0.9189     0.9189    -0.0000
151 O      8.7473     8.0000    -0.7473     1.7835     1.7835     0.0000
152 H      0.6346     1.0000     0.3654     0.9242     0.9242     0.0000
153 H      0.6360     1.0000     0.3640     0.9164     0.9164    -0.0000
154 O      8.7604     8.0000    -0.7604     1.7623     1.7623    -0.0000
155 H      0.6289     1.0000     0.3711     0.9194     0.9194    -0.0000
156 H      0.6188     1.0000     0.3812     0.9057     0.9057    -0.0000
157 O      8.7242     8.0000    -0.7242     1.8262     1.8262    -0.0000
158 H      0.6245     1.0000     0.3755     0.8828     0.8828    -0.0000
159 H      0.6185     1.0000     0.3815     0.9063     0.9063    -0.0000
160 O      8.7289     8.0000    -0.7289     1.8055     1.8055    -0.0000
161 H      0.6277     1.0000     0.3723     0.8697     0.8697     0.0000
162 H      0.6341     1.0000     0.3659     0.9387     0.9387    -0.0000

  Mayer bond orders larger than 0.100000
B(  0-H ,  1-C ) :   0.9776 B(  1-C ,  3-H ) :   0.9642 B(  1-C ,  4-N ) :   0.9084 
B(  1-C ,  6-C ) :   0.9512 B(  2-H ,  4-N ) :   0.8659 B(  4-N ,  9-H ) :   0.8689 
B(  4-N , 11-H ) :   0.8248 B(  5-H ,  6-C ) :   0.9446 B(  6-C ,  8-C ) :   0.9857 
B(  6-C , 12-H ) :   0.9410 B(  7-O ,  8-C ) :   1.5253 B(  7-O , 15-H ) :   0.1091 
B(  7-O ,102-H ) :   0.1008 B(  8-C , 10-O ) :   1.3889 B( 10-O , 84-H ) :   0.1234 
B( 13-O , 14-H ) :   0.7571 B( 13-O , 15-H ) :   0.7901 B( 13-O ,107-H ) :   0.1019 
B( 14-H , 28-O ) :   0.1448 B( 16-O , 17-H ) :   0.8030 B( 16-O , 18-H ) :   0.7919 
B( 16-O ,110-H ) :   0.1206 B( 18-H , 70-O ) :   0.1333 B( 19-O , 20-H ) :   0.8192 
B( 19-O , 21-H ) :   0.8008 B( 21-H , 88-O ) :   0.1090 B( 22-O , 23-H ) :   0.8492 
B( 22-O , 24-H ) :   0.8118 B( 24-H , 55-O ) :   0.1001 B( 25-O , 26-H ) :   0.8146 
B( 25-O , 27-H ) :   0.7542 B( 25-O ,147-H ) :   0.1407 B( 27-H , 85-O ) :   0.1704 
B( 28-O , 29-H ) :   0.8079 B( 28-O , 30-H ) :   0.7962 B( 31-O , 32-H ) :   0.7907 
B( 31-O , 33-H ) :   0.8187 B( 34-O , 35-H ) :   0.8208 B( 34-O , 36-H ) :   0.8179 
B( 34-O , 86-H ) :   0.1070 B( 37-O , 38-H ) :   0.8124 B( 37-O , 39-H ) :   0.7859 
B( 37-O , 99-H ) :   0.1289 B( 40-O , 41-H ) :   0.8637 B( 40-O , 42-H ) :   0.8377 
B( 43-O , 44-H ) :   0.8444 B( 43-O , 45-H ) :   0.8266 B( 43-O ,132-H ) :   0.1207 
B( 46-O , 47-H ) :   0.8102 B( 46-O , 48-H ) :   0.8697 B( 46-O , 95-H ) :   0.1075 
B( 49-O , 50-H ) :   0.8394 B( 49-O , 51-H ) :   0.8379 B( 52-O , 53-H ) :   0.7700 
B( 52-O , 54-H ) :   0.8528 B( 52-O , 92-H ) :   0.1386 B( 53-H ,139-O ) :   0.1132 
B( 55-O , 56-H ) :   0.7929 B( 55-O , 57-H ) :   0.7975 B( 57-H ,151-O ) :   0.1198 
B( 58-O , 59-H ) :   0.8170 B( 58-O , 60-H ) :   0.8075 B( 58-O ,138-H ) :   0.1058 
B( 60-H ,148-O ) :   0.1223 B( 61-O , 62-H ) :   0.8029 B( 61-O , 63-H ) :   0.8255 
B( 64-O , 65-H ) :   0.8390 B( 64-O , 66-H ) :   0.7808 B( 67-O , 68-H ) :   0.8140 
B( 67-O , 69-H ) :   0.8154 B( 70-O , 71-H ) :   0.8297 B( 70-O , 72-H ) :   0.8285 
B( 73-O , 74-H ) :   0.7552 B( 73-O , 75-H ) :   0.8665 B( 73-O , 93-H ) :   0.1110 
B( 74-H ,133-O ) :   0.1545 B( 76-O , 77-H ) :   0.8534 B( 76-O , 78-H ) :   0.8223 
B( 79-O , 80-H ) :   0.8586 B( 79-O , 81-H ) :   0.8171 B( 82-O , 83-H ) :   0.7853 
B( 82-O , 84-H ) :   0.7377 B( 85-O , 86-H ) :   0.8121 B( 85-O , 87-H ) :   0.8296 
B( 88-O , 89-H ) :   0.8356 B( 88-O , 90-H ) :   0.7968 B( 90-H ,118-O ) :   0.1159 
B( 91-O , 92-H ) :   0.7726 B( 91-O , 93-H ) :   0.7903 B( 94-O , 95-H ) :   0.8051 
B( 94-O , 96-H ) :   0.8281 B( 94-O ,141-H ) :   0.1061 B( 97-O , 98-H ) :   0.8311 
B( 97-O , 99-H ) :   0.7695 B(100-O ,101-H ) :   0.8065 B(100-O ,102-H ) :   0.7935 
B(103-O ,104-H ) :   0.8356 B(103-O ,105-H ) :   0.8417 B(106-O ,107-H ) :   0.7693 
B(106-O ,108-H ) :   0.8668 B(109-O ,110-H ) :   0.7945 B(109-O ,111-H ) :   0.8286 
B(109-O ,144-H ) :   0.1657 B(112-O ,113-H ) :   0.8092 B(112-O ,114-H ) :   0.8788 
B(115-O ,116-H ) :   0.8238 B(115-O ,117-H ) :   0.8757 B(118-O ,119-H ) :   0.8257 
B(118-O ,120-H ) :   0.8346 B(119-H ,127-O ) :   0.1064 B(121-O ,122-H ) :   0.8010 
B(121-O ,123-H ) :   0.8657 B(124-O ,125-H ) :   0.8378 B(124-O ,126-H ) :   0.8441 
B(127-O ,128-H ) :   0.8264 B(127-O ,129-H ) :   0.8039 B(130-O ,131-H ) :   0.7893 
B(130-O ,132-H ) :   0.7741 B(133-O ,134-H ) :   0.8223 B(133-O ,135-H ) :   0.8160 
B(136-O ,137-H ) :   0.8342 B(136-O ,138-H ) :   0.7908 B(139-O ,140-H ) :   0.8629 
B(139-O ,141-H ) :   0.7844 B(142-O ,143-H ) :   0.8642 B(142-O ,144-H ) :   0.7294 
B(145-O ,146-H ) :   0.8697 B(145-O ,147-H ) :   0.7576 B(145-O ,162-H ) :   0.1091 
B(148-O ,149-H ) :   0.8455 B(148-O ,150-H ) :   0.8384 B(151-O ,152-H ) :   0.8229 
B(151-O ,153-H ) :   0.8336 B(154-O ,155-H ) :   0.8122 B(154-O ,156-H ) :   0.7911 
B(157-O ,158-H ) :   0.8328 B(157-O ,159-H ) :   0.7957 B(160-O ,161-H ) :   0.8247 
B(160-O ,162-H ) :   0.8135 

-------
TIMINGS
-------

Total SCF time: 0 days 0 hours 4 min 41 sec 

Total time                  ....     281.369 sec
Sum of individual times     ....     280.823 sec  ( 99.8%)

SCF preparation             ....       6.967 sec  (  2.5%)
Fock matrix formation       ....     240.034 sec  ( 85.3%)
  Startup                   ....       1.419 sec  (  0.6% of F)
  Split-RI-J                ....      27.755 sec  ( 11.6% of F)
  Chain of spheres X        ....     140.933 sec  ( 58.7% of F)
  XC integration            ....      18.559 sec  (  7.7% of F)
    Basis function eval.    ....       3.547 sec  ( 19.1% of XC)
    Density eval.           ....       5.379 sec  ( 29.0% of XC)
    XC-Functional eval.     ....       0.193 sec  (  1.0% of XC)
    XC-Potential eval.      ....       3.385 sec  ( 18.2% of XC)
  CPCM terms                ....      45.748 sec  ( 19.1% of F)
Diagonalization             ....       0.000 sec  (  0.0%)
Density matrix formation    ....       5.741 sec  (  2.0%)
Total Energy calculation    ....       2.323 sec  (  0.8%)
Population analysis         ....       1.111 sec  (  0.4%)
Orbital Transformation      ....       3.045 sec  (  1.1%)
Orbital Orthonormalization  ....       0.000 sec  (  0.0%)
DIIS solution               ....      12.966 sec  (  4.6%)
SOSCF solution              ....       8.635 sec  (  3.1%)
Finished LeanSCF after 283.2 sec

Maximum memory used throughout the entire LEANSCF-calculation: 717.7 MB


-------------------------------------------------------------------------------
                          DFT DISPERSION CORRECTION                            
                                                                               
                                DFTD4 V3.4.0                                   
-------------------------------------------------------------------------------
The B3LYP functional is recognized
Active option DFTDOPT                   ...         5   

-------------------------   ----------------
Dispersion correction           -0.238731083
-------------------------   ----------------


-------------------------   --------------------
FINAL SINGLE POINT ENERGY     -4146.167682507093
-------------------------   --------------------

--------------------------------------------------------------------------
WARNING: There was an error initializing an OpenFabrics device.

  Local host:   ga01
  Local device: mlx5_0
--------------------------------------------------------------------------


           ************************************************************
           *        Program running with 28 parallel MPI-processes    *
           *              working on a common directory               *
           ************************************************************

------------------------------------------------------------------------------
                              ORCA PROPERTY CALCULATIONS
------------------------------------------------------------------------------

GBWName                                 ... input.gbw
Number of atoms                         ...    163
Number of basis functions               ...   2378
Max core memory                         ...   5000 MB

Electric properties:
Dipole moment                           ... YES
Quadrupole moment                       ...  NO
Static polarizability (Dipole/Dipole)   ...  NO
Static polarizability (Dipole/Quad.)    ...  NO
Static polarizability (Quad./Quad.)     ...  NO
Static polarizability (Velocity)        ...  NO

Atomic electric properties:
Dipole moment                           ...  NO
Quadrupole moment                       ...  NO
Static polarizability                   ...  NO

Choice of electric origin               ... Center of mass
Position of electric origin             ...     0.218685    -0.232192     0.114235

General magnetic properties:
Magnetizability                         ...  NO

EPR properties:
g-Tensor (aka g-matrix)                 ...  NO
Zero-Field splitting spin-orbit         ...  NO
Zero-field splitting spin-spin          ...  NO
Hyperfine couplings                     ...  NO (   0 nuclei)
Quadrupole couplings                    ...  NO (   0 nuclei)
Contact density                         ...  NO (   0 nuclei)

NMR properties:
Chemical shifts                         ...  NO (   0 nuclei)
Spin-rotation constants                 ...  NO (   0 nuclei)
Spin-spin couplings                     ...  NO (   0 nuclei,    0 pairs)

Choice of magnetic origin               ... GIAO
Position of magnetic origin             ...     0.000000     0.000000     0.000000

Properties with geometric perturbations:
SCF Hessian                             ...  NO
IR spectrum                             ...  NO
VCD spectrum                            ...  NO
X-ray spectroscopy properties:
SCF XES/XAS/RIXS spectra                ...  NO


-------------
DIPOLE MOMENT
-------------

Method             : SCF
Type of density    : Electron Density
Multiplicity       :   1
Irrep              :   0
Energy             : -4145.9289514236561445 Eh
Relativity type    : 
Basis              : AO
                                X                 Y                 Z
Electronic contribution:     -1.938657193       3.514069523       2.866229414
Nuclear contribution   :     -3.925371143      -4.733430597      -7.612032690
                        -----------------------------------------
Total Dipole Moment    :     -5.864028336      -1.219361074      -4.745803276
                        -----------------------------------------
Magnitude (a.u.)       :      7.641748392
Magnitude (Debye)      :     19.423780779



--------------------
Rotational spectrum 
--------------------
 
Rotational constants in cm-1:             0.001202             0.000944             0.000815 
Rotational constants in MHz :            36.022352            28.290060            24.433132 

Dipole components along the rotational axes: 
x,y,z [a.u.] :    -4.781417    -2.092223     5.581843 
x,y,z [Debye]:   -12.153396    -5.318007    14.187918 

 

Dipole moment calculation done in   0.3 sec 

Maximum memory used throughout the entire PROP-calculation: 426.5 MB
[ga01:769281] 27 more processes have sent help message help-mpi-btl-openib.txt / error in device init
[ga01:769281] Set MCA parameter "orte_base_help_aggregate" to 0 to see all help / error messages
--------------------------------------------------------------------------
WARNING: There was an error initializing an OpenFabrics device.

  Local host:   ga01
  Local device: mlx5_0
--------------------------------------------------------------------------
[ga01:769399] 27 more processes have sent help message help-mpi-btl-openib.txt / error in device init
[ga01:769399] Set MCA parameter "orte_base_help_aggregate" to 0 to see all help / error messages

--------------------------------
SUGGESTED CITATIONS FOR THIS RUN
--------------------------------

Below you find a list of papers that are relevant to this ORCA run
We neither can nor want to force you to cite these papers, but we appreciate if you do
You receive ORCA, which is the product of decades of hard work by many enthusiastic individuals, for free
The only thing we kindly ask in return is that you cite our papers,
We deeply appreciate it, if you show your appreciation for ORCA by not just citing the generic ORCA reference.

Please note that relegating all ORCA citations to the supporting information does *not* help us.
SI sections are not indexed - citations you put there will not count into any citation statistics
But we need these citations in order to attract the funding resources that allow us to do what we are doing

Therefore, if you are a happy ORCA user, please consider citing a few of the papers listed below in the main body of your paper

In addition to the list printed below, the program has created the file input.bibtex that contains the list in bibtex format
You can import this file easily into all common literature databanks and citation aid programs


List of essential papers. We consider these as the minimum necessary citations

  1. Neese,F.
     Software update: the ORCA program system, version 5.0
     WIRES Comput. Molec. Sci., 2022 12(1)e1606
     doi.org/10.1002/wcms.1606

List of papers to cite with high priority. The work reported in these papers was absolutely
necessary for this run to complete.
Our perspective: the developers of density functionals and basis sets usually get cited in chemistry papers
Good! But without the algorithms to do something with them, the functionals or basis sets would not do anything.
Hence, in our opinion, the algorithm design and method developments papers are equally worthy of getting cited

  1. Neese,F.
     An improvement of the resolution of the identity approximation for the formation of the Coulomb matrix
     J. Comp. Chem., 2003 24(14)1740-1747
     doi.org/10.1002/jcc.10318
  2. Neese,F.; Wennmohs,F.; Hansen,A.; Becker,U.
     Efficient, approximate and parallel Hartree-Fock and hybrid DFT calculations. A 'chain-of-spheres' algorithm for the Hartree-Fock exchange
     Chem. Phys., 2009 356(1-3)98-109
     doi.org/10.1016/j.chemphys.2008.10.036
  3. Garcia-Rates,M.; Neese,F.
     Effect of the Solute Cavity on the Solvation Energy and its Derivatives within the Framework of the Gaussian Charge Scheme
     J. Comput. Chem., 2020 41 922-939
     doi.org/10.1002/jcc.26139
  4. Helmich-Paris,B.; de Souza,B.; Neese,F.; Izsák,R.
     An improved chain of spheres for exchange algorithm
     J. Chem. Phys., 2021 155 104109
     doi.org/doi: 10.1063/5.0058766.
  5. Neese,F.
     The SHARK Integral Generation and Digestion System
     J. Comp. Chem., 2022  1-16
     doi.org/10.1002/jcc.26942
  6. Caldeweyher,E.; Bannwarth,C.; Grimme,S.
     Extension of the D3 dispersion coefficient model
     J. Chem. Phys., 2017 147 034112
     doi.org/10.1063/1.4993215
  7. Caldeweyher,E.; Ehlert,S.; Hansen,A.; Neugebauer,H.; Spicher,S.; Bannwarth,C.; Grimme,S.
     A generally applicable atomic-charge dependent London dispersion correction
     J. Chem. Phys., 2019 150 154122
     doi.org/10.1063/1.5090222
  8. Caldeweyher,E.; Mewes,J.; Ehlert,S.; Grimme,S.
     Extension and evaluation of the D4 London-dispersion model for periodic systems
     Phys. Chem. Chem. Phys., 2020 22(16)8499-8512
     doi.org/10.1039/D0CP00502A
  9. Wittmann,L.; Gordiy,I.; Friede,M.; Helmich-Paris,B.; Grimme,S.; Hansen,A.; Bursch,M.
     Extension of the D3 and D4 London Dispersion Corrections to the full Actinides Series
     Phys. Chem. Chem. Phys., 2024 26(32)21379-21394
     doi.org/https://doi.org/10.1039/D4CP01514B 

List of suggested additional citations. These are papers that are important in the 'surrounding' of 
of this run, or papers that preceded the highly important papers. If you like your results we are grateful for a citation.

  1. Izsak,R.; Neese,F.
     An overlap fitted chain of spheres exchange method
     J. Chem. Phys., 2011 135 144105
     doi.org/10.1063/1.3646921
  2. Izsak,R.; Hansen,A.; Neese,F.
     The resolution of identity and chain of spheres approximations for the LPNO-CCSD singles Fock term
     Molec. Phys., 2012 110 2413-2417
     doi.org/10.1080/00268976.2012.687466
  3. Neese,F.
     The ORCA program system
     WIRES Comput. Molec. Sci., 2012 2(1)73-78
     doi.org/10.1002/wcms.81
  4. Izsak,R.; Neese,F.; Klopper,W.
     Robust fitting techniques in the chain of spheres approximation to the Fock exchange: The role of the complementary space
     J. Chem. Phys., 2013 139 
     doi.org/10.1063/1.4819264
  5. Neese,F.
     Software update: the ORCA program system, version 4.0
     WIRES Comput. Molec. Sci., 2018 8(1)1-6
     doi.org/10.1002/wcms.1327
  6. Neese,F.; Wennmohs,F.; Becker,U.; Riplinger,C.
     The ORCA quantum chemistry program package
     J. Chem. Phys., 2020 152 Art. No. L224108
     doi.org/10.1063/5.0004608

List of optional additional citations

  1. Neese,F.
     Approximate second-order SCF convergence for spin unrestricted wavefunctions
     Chem. Phys. Lett., 2000 325(1-3)93-98
     doi.org/10.1016/s0009-2614(00)00662-x

Timings for individual modules:

Sum of individual times          ...      308.190 sec (=   5.136 min)
Startup calculation              ...       14.696 sec (=   0.245 min)   4.8 %
SCF iterations                   ...      291.290 sec (=   4.855 min)  94.5 %
Property calculations            ...        2.205 sec (=   0.037 min)   0.7 %
                             ****ORCA TERMINATED NORMALLY****
TOTAL RUN TIME: 0 days 0 hours 5 minutes 9 seconds 669 msec
