
                                 *****************
                                 * O   R   C   A *
                                 *****************

                                            #,                                       
                                            ###                                      
                                            ####                                     
                                            #####                                    
                                            ######                                   
                                           ########,                                 
                                     ,,################,,,,,                         
                               ,,#################################,,                 
                          ,,##########################################,,             
                       ,#########################################, ''#####,          
                    ,#############################################,,   '####,        
                  ,##################################################,,,,####,       
                ,###########''''           ''''###############################       
              ,#####''   ,,,,##########,,,,          '''####'''          '####       
            ,##' ,,,,###########################,,,                        '##       
           ' ,,###''''                  '''############,,,                           
         ,,##''                                '''############,,,,        ,,,,,,###''
      ,#''                                            '''#######################'''  
     '                                                          ''''####''''         
             ,#######,   #######,   ,#######,      ##                                
            ,#'     '#,  ##    ##  ,#'     '#,    #''#        ,####,   ,####,        
            ##       ##  ##   ,#'  ##            #'  '#       #'       #'  '#        
            ##       ##  #######   ##           ,######,      #####,   #    #        
            '#,     ,#'  ##    ##  '#,     ,#' ,#      #,     #,   #   #,  ,#        
             '#######'   ##     ##  '#######'  #'      '#     '####' # '####'        



                #########################################################
                #                        -***-                          #
                #          Department of theory and spectroscopy        #
                #                                                       #
                #                      Frank Neese                      #
                #                                                       #
                #     Directorship, Architecture, Infrastructure        #
                #                    SHARK, DRIVERS                     #
                #        Core code/Algorithms in most modules           #
                #                                                       #
                #        Max Planck Institute fuer Kohlenforschung      #
                #                Kaiser Wilhelm Platz 1                 #
                #                 D-45470 Muelheim/Ruhr                 #
                #                      Germany                          #
                #                                                       #
                #                  All rights reserved                  #
                #                        -***-                          #
                #########################################################


                         Program Version 6.0.1  -  RELEASE   -


 With contributions from (in alphabetic order):
[Max-Planck-Institut fuer Kohlenforschung]                               
  Daniel Aravena         : Magnetic Suceptibility                        
  Michael Atanasov       : Ab Initio Ligand Field Theory (pilot matlab implementation)
  Alexander A. Auer      : GIAO ZORA, VPT2 properties, NMR spectrum      
  Ute Becker             : All parallelization in ORCA, NUMFREQ, NUMCALC 
  Giovanni Bistoni       : ED, misc. LED, open-shell LED, HFLD           
  Martin Brehm           : Molecular dynamics                            
  Dmytro Bykov           : pre 5.0 version of the SCF Hessian            
  Marcos Casanova-Páez   : Triplet and SCS-CIS(D). UHF-(DLPNO)-IP/EA/STEOM-CCSD. UHF-CVS-IP/STEOM-CCSD   
  Vijay G. Chilkuri      : MRCI spin determinant printing, contributions to CSF-ICE 
  Pauline Colinet        : FMM embedding                                 
  Dipayan Datta          : RHF DLPNO-CCSD density                        
  Achintya Kumar Dutta   : EOM-CC, STEOM-CC                              
  Nicolas Foglia         : Exact transition moments, OPA infrastructure, MCD improvements    
  Dmitry Ganyushin       : Spin-Orbit,Spin-Spin,Magnetic field MRCI      
  Miquel Garcia-Rates    : C-PCM and meta-GGA Hessian, CCSD/C-PCM, Gaussian charge scheme 
  Tiago L. C. Gouveia    : GS-ROHF, GS-ROCIS                             
  Yang Guo               : DLPNO-NEVPT2, F12-NEVPT2, CIM, IAO-localization        
  Andreas Hansen         : Spin unrestricted coupled pair/coupled cluster methods 
  Ingolf Harden          : AUTO-CI MPn and infrastructure                
  Benjamin Helmich-Paris : MC-RPA, TRAH-(SCF,CASSCF), AVAS, COSX integrals, SCF dyn. polar. 
  Lee Huntington         : MR-EOM, pCC                                   
  Robert Izsak           : Overlap fitted RIJCOSX, COSX-SCS-MP3, EOM     
  Riya Kayal             : Wick's Theorem for AUTO-CI, AUTO-CI UHF-CCSDT 
  Emily Kempfer          : AUTO-CI, RHF CISDT and CCSDT                  
  Christian Kollmar      : KDIIS, OOCD, Brueckner-CCSD(T), CCSD density, CASPT2, CASPT2-K, improved NEVPT2 
  Axel Koslowski         : Symmetry handling                             
  Simone Kossmann        : meta-GGA functionals, TD-DFT gradient, OOMP2, (MP2 Hessian; deprecated post 5.0) 
  Lucas Lang             : DCDCAS                                        
  Marvin Lechner         : AUTO-CI (C++ implementation), FIC-MRCC        
  Spencer Leger          : CASSCF response                               
  Dagmar Lenk            : GEPOL surface, SMD, ORCA-2-JSON               
  Dimitrios Liakos       : Extrapolation schemes; Compound Job, initial MDCI parallelization 
  Dimitrios Manganas     : Further ROCIS development; embedding schemes. LFT, Crystal Embedding 
  Dimitrios Pantazis     : SARC Basis sets                               
  Anastasios Papadopoulos: AUTO-CI, single reference methods and gradients 
  Taras Petrenko         : pre 6.0 DFT Hessian and TD-DFT gradient, (ASA, deprecated), ECA, 1-Electron XAS/XES, NRVS 
  Peter Pinski           : DLPNO-MP2, DLPNO-MP2 Gradient                 
  Christoph Reimann      : Effective Core Potentials                     
  Marius Retegan         : Local ZFS, SOC                                
  Christoph Riplinger    : Optimizer, TS searches, QM/MM, DLPNO-CCSD(T), (RO)-DLPNO pert. Triples 
  Michael Roemelt        : Original ROCIS implementation                 
  Masaaki Saitow         : Open-shell DLPNO-CCSD energy and density      
  Barbara Sandhoefer     : DKH picture change effects                    
  Kantharuban Sivalingam : CASSCF convergence/infrastructure, NEVPT2 and variants, FIC-MRCI 
  Bernardo de Souza      : ESD, SOC TD-DFT                               
  Georgi L. Stoychev     : AutoAux, RI-MP2 NMR, DLPNO-MP2 response, X2C  
  Van Anh Tran           : RI-MP2 g-tensors                              
  Willem Van den Heuvel  : Paramagnetic NMR                              
  Zikuan Wang            : NOTCH, Electric field optimization            
  Frank Wennmohs         : Technical directorship and infrastructure     
  Hang Xu                : AUTO-CI-Response properties                   
                                                                         
[FACCTs GmbH]                                                            
  Markus Bursch, Miquel Garcia-Rates, Christoph Riplinger, Bernardo de Souza, Georgi L. Stoychev 
                                                                 
  APM, Basis sets (HGBS, AHGBS, def-TZVP (Ac-Lr), def2-XVPD (La-Lu)), CI-OPT, improved COSX, DLPNO-Multilevel,           
  DOCKER, DRACO, updates on ESD, GOAT, IRC, LR-CPCM, MBIS, meta-GGA TD-DFT gradient, ML-optimized integration grids, 
  MM, NACMEs, nearIR, NEB, NEB-TS, NL-DFT gradient (VV10), 2- and 3-layer-ONIOM, interface openCOSMO-RS, QMMM,   
  Crystal-QMMM, SF, symmetry and pop. for TD-DFT, r2SCAN hybrids, SOLVATOR                                   
                                                                         
[Other institutions]                                                     
  V. Asgeirsson          : NEB                                           
  Christoph Bannwarth    : sTDA-DFT, sTD-DFT, PBEh-3c, B97-3c, D3        
  Sebastian Ehlert       : rSCAN, r2SCAN, r2SCAN-3c, D4, dhf basis sets  
  Marvin Friede          : D4 for Fr, Ra, Ac-Lr                          
  Lars Goerigk           : TD-DFT with DH, B97 family of functionals     
  Stefan Grimme          : VdW corrections, initial TS optimization, DFT functionals, gCP, sTDA/sTD-DF 
  Waldemar Hujo          : DFT-NL                                        
  H. Jonsson             : NEB                                           
  Holger Kruse           : gCP                                           
  Marcel Mueller         : wB97X-3c, vDZP basis set                      
  Hagen Neugebauer       : wr2SCAN                                       
  Tobias Risthaus        : range-separated hybrid DFT                    
  Lukas Wittmann         : regularized MP2, r2SCAN double-hybrids, wr2SCAN        
                                                                         
We gratefully acknowledge several colleagues who have allowed us to      
interface, adapt or use parts of their codes:                            
  Ed Valeev, F. Pavosevic, A. Kumar             : LibInt (2-el integral package), F12 methods 
  Garnet Chan, S. Sharma, J. Yang, R. Olivares  : DMRG                   
  Ulf Ekstrom                                   : XCFun DFT Library      
  Mihaly Kallay                                 : mrcc  (arbitrary order and MRCC methods)
  Frank Weinhold                                : gennbo (NPA and NBO analysis)           
  Simon Mueller                                 : openCOSMO-RS                            
  Christopher J. Cramer and Donald G. Truhlar   : smd solvation model                     
  S Lehtola, MJT Oliveira, MAL Marques          : LibXC Library                           
  Liviu Ungur et al                             : ANISO software                          


 Your calculation uses the libint2 library for the computation of 2-el integrals
 For citations please refer to: http://libint.valeyev.net

 Your ORCA version has been built with support for libXC version: 6.2.2
 For citations please refer to: https://libxc.gitlab.io

 This ORCA versions uses:
   CBLAS   interface :  Fast vector & matrix operations
   LAPACKE interface :  Fast linear algebra routines
   SCALAPACK package :  Parallel linear algebra routines
   Shared memory     :  Shared parallel matrices
   BLAS/LAPACK       :  OpenBLAS 0.3.27  USE64BITINT DYNAMIC_ARCH NO_AFFINITY SkylakeX SINGLE_THREADED
        Core in use  :  SkylakeX
   Copyright (c) 2011-2014, The OpenBLAS Project


NOTE: MaxCore=5000 MB was set to SCF,MP2,MDCI,CIPSI,MRCI and CIS
      => If you want to overwrite this, your respective input block should be placed after the MaxCore statement
Your calculation utilizes the atom-pairwise dispersion correction
based on EEQ partial charges (D4)


Warning: RI is on but no J-basis has been assigned. Assigning Def2/J (nothing to worry about!)
================================================================================

----- Orbital basis set information -----
Your calculation utilizes the basis: def2-TZVP
   F. Weigend and R. Ahlrichs, Phys. Chem. Chem. Phys. 7, 3297 (2005).

----- AuxJ basis set information -----
Your calculation utilizes the auxiliary basis: def2/J
   F. Weigend, Phys. Chem. Chem. Phys. 8, 1057 (2006).

================================================================================
                                        WARNINGS
                       Please study these warnings very carefully!
================================================================================


WARNING: Geometry Optimization
  ===> : Switching off AutoStart
         For restart on a previous wavefunction, please use MOREAD

================================================================================
                                       INPUT FILE
================================================================================
NAME = 02_Alanine_zwitterion.inp
|  1> ! Opt B3LYP D4 def2-TZVP TightSCF TightOpt CPCM(water)
|  2> 
|  3> %maxcore 5000
|  4> 
|  5> %pal
|  6> nprocs 6
|  7> end
|  8> 
|  9> * xyz 0 1
| 10> C          0.02700        0.52600       -2.26240
| 11> C         -0.42610       -0.42710       -1.18820
| 12> O          0.20800       -0.47900       -0.00160
| 13> O         -1.40340       -1.13440       -1.37470
| 14> C          1.43300        0.21890       -2.80790
| 15> N          2.48500        0.38250       -1.80260
| 16> H         -0.01090        1.56540       -1.87150
| 17> H         -0.68120        0.45840       -3.11770
| 18> H          1.63240        0.92570       -3.64400
| 19> H          1.46230       -0.81390       -3.22080
| 20> H          2.44520        1.34260       -1.38970
| 21> H          2.39920       -0.33750       -1.05220
| 22> H          3.41450        0.25380       -2.26390
| 23> *
| 24> 
| 25>                          ****END OF INPUT****
================================================================================

                       *****************************
                       * Geometry Optimization Run *
                       *****************************

Geometry optimization settings:
Update method            Update   .... BFGS
Choice of coordinates    CoordSys .... (2022) Redundant Internals
Initial Hessian          InHess   .... Almloef's Model
Max. no of cycles        MaxIter  .... 50

Convergence Tolerances:
Energy Change            TolE     ....  1.0000e-06 Eh
Max. Gradient            TolMAXG  ....  1.0000e-04 Eh/bohr
RMS Gradient             TolRMSG  ....  3.0000e-05 Eh/bohr
Max. Displacement        TolMAXD  ....  1.0000e-03 bohr
RMS Displacement         TolRMSD  ....  6.0000e-04 bohr
Strict Convergence                .... False

------------------------------------------------------------------------------
                        ORCA OPTIMIZATION COORDINATE SETUP
------------------------------------------------------------------------------

The optimization will be done in redundant internal coordinates (2022)
Making redundant internal coordinates   ...  (2022 redundants) done
Evaluating the initial hessian          ...  (Almloef) done
Evaluating the coordinates              ...  done
Calculating the B-matrix                .... done
Calculating the G-matrix                .... done
Diagonalizing the G-matrix              .... done
The first mode is                       ....   18
The number of degrees of freedom        ....   33

    -----------------------------------------------------------------
                    Redundant Internal Coordinates


    -----------------------------------------------------------------
         Definition                    Initial Value    Approx d2E/dq
    -----------------------------------------------------------------
      1. B(C   1,C   0)                  1.5059         0.408222   
      2. B(O   2,C   1)                  1.3464         0.656802   
      3. B(O   3,C   1)                  1.2207         1.042178   
      4. B(C   4,C   0)                  1.5391         0.361341   
      5. B(N   5,C   4)                  1.4643         0.425968   
      6. B(H   6,C   0)                  1.1111         0.333215   
      7. B(H   7,C   0)                  1.1125         0.331533   
      8. B(H   8,C   4)                  1.1128         0.331131   
      9. B(H   9,C   4)                  1.1127         0.331333   
     10. B(H  10,N   5)                  1.0459         0.379274   
     11. B(H  11,O   2)                  2.4342         0.002312   
     12. B(H  11,N   5)                  1.0435         0.382623   
     13. B(H  12,N   5)                  1.0456         0.379627   
     14. A(C   4,C   0,H   6)          110.0299         0.318486   
     15. A(C   1,C   0,C   4)          113.6671         0.366813   
     16. A(H   6,C   0,H   7)          107.7943         0.283650   
     17. A(C   1,C   0,H   7)          108.5678         0.324641   
     18. A(C   4,C   0,H   7)          107.2732         0.318223   
     19. A(C   1,C   0,H   6)          109.3204         0.324911   
     20. A(O   2,C   1,O   3)          119.2982         0.475762   
     21. A(C   0,C   1,O   2)          120.7553         0.404430   
     22. A(C   0,C   1,O   3)          119.9095         0.439175   
     23. A(N   5,C   4,H   9)          109.8502         0.324931   
     24. A(C   0,C   4,H   9)          109.9256         0.318192   
     25. A(N   5,C   4,H   8)          108.4291         0.324899   
     26. A(C   0,C   4,H   8)          107.6533         0.318161   
     27. A(H   8,C   4,H   9)          107.8195         0.283347   
     28. A(C   0,C   4,N   5)          112.9979         0.367194   
     29. A(H  11,N   5,H  12)          107.7837         0.291292   
     30. A(H  10,N   5,H  12)          108.7226         0.290890   
     31. A(C   4,N   5,H  12)          108.7849         0.329475   
     32. A(H  10,N   5,H  11)          110.2656         0.291250   
     33. A(C   4,N   5,H  11)          110.9500         0.329903   
     34. A(C   4,N   5,H  10)          110.2591         0.329424   
     35. D(O   3,C   1,C   0,C   4)   -117.0827         0.012346   
     36. D(O   2,C   1,C   0,C   4)     65.1441         0.012346   
     37. D(O   2,C   1,C   0,H   6)    -58.2188         0.012346   
     38. D(O   3,C   1,C   0,H   6)    119.5544         0.012346   
     39. D(O   2,C   1,C   0,H   7)   -175.5664         0.012346   
     40. D(N   5,C   4,C   0,H   6)     58.2289         0.010470   
     41. D(N   5,C   4,C   0,C   1)    -64.7458         0.010470   
     42. D(H   8,C   4,C   0,H   6)    -61.4718         0.010470   
     43. D(H   8,C   4,C   0,C   1)    175.5535         0.010470   
     44. D(H   8,C   4,C   0,H   7)     55.5288         0.010470   
     45. D(N   5,C   4,C   0,H   7)    175.2295         0.010470   
     46. D(H  10,N   5,C   4,H   9)   -178.3264         0.016575   
     47. D(H  10,N   5,C   4,H   8)     64.0776         0.016575   
     48. D(H  11,N   5,C   4,C   0)     67.2808         0.016575   
     49. D(H  10,N   5,C   4,C   0)    -55.1761         0.016575   
     50. D(H  11,N   5,C   4,H   9)    -55.8696         0.016575   
     51. D(H  11,N   5,C   4,H   8)   -173.4656         0.016575   
    -----------------------------------------------------------------

Number of atoms                         .... 13
Number of degrees of freedom            .... 51


         *************************************************************
         *                GEOMETRY OPTIMIZATION CYCLE   1            *
         *************************************************************
---------------------------------
CARTESIAN COORDINATES (ANGSTROEM)
---------------------------------
  C      0.027000    0.526000   -2.262400
  C     -0.426100   -0.427100   -1.188200
  O      0.208000   -0.479000   -0.001600
  O     -1.403400   -1.134400   -1.374700
  C      1.433000    0.218900   -2.807900
  N      2.485000    0.382500   -1.802600
  H     -0.010900    1.565400   -1.871500
  H     -0.681200    0.458400   -3.117700
  H      1.632400    0.925700   -3.644000
  H      1.462300   -0.813900   -3.220800
  H      2.445200    1.342600   -1.389700
  H      2.399200   -0.337500   -1.052200
  H      3.414500    0.253800   -2.263900

----------------------------
CARTESIAN COORDINATES (A.U.)
----------------------------
  NO LB      ZA    FRAG     MASS         X           Y           Z
   0 C     6.0000    0    12.011    0.051023    0.993996   -4.275316
   1 C     6.0000    0    12.011   -0.805212   -0.807102   -2.245373
   2 O     8.0000    0    15.999    0.393063   -0.905179   -0.003024
   3 O     8.0000    0    15.999   -2.652042   -2.143705   -2.597807
   4 C     6.0000    0    12.011    2.707978    0.413661   -5.306162
   5 N     7.0000    0    14.007    4.695969    0.722820   -3.406420
   6 H     1.0000    0     1.008   -0.020598    2.958177   -3.536622
   7 H     1.0000    0     1.008   -1.287281    0.866250   -5.891599
   8 H     1.0000    0     1.008    3.084789    1.749319   -6.886162
   9 H     1.0000    0     1.008    2.763347   -1.538048   -6.086430
  10 H     1.0000    0     1.008    4.620758    2.537146   -2.626152
  11 H     1.0000    0     1.008    4.533831   -0.637783   -1.988370
  12 H     1.0000    0     1.008    6.452470    0.479612   -4.278151

--------------------------------
INTERNAL COORDINATES (ANGSTROEM)
--------------------------------
 C      0   0   0     0.000000000000     0.00000000     0.00000000
 C      1   0   0     1.505856852427     0.00000000     0.00000000
 O      2   1   0     1.346401121509   120.75528218     0.00000000
 O      2   1   3     1.220725534262   119.90952476   177.77319762
 C      1   2   3     1.539063565939   113.66705835    65.14413958
 N      5   1   2     1.464273557092   112.99789207   295.25418674
 H      1   2   3     1.111121766504   109.32036972   301.78121868
 H      1   2   3     1.112499478652   108.56777566   184.43356819
 H      5   1   2     1.112829641050   107.65325040   175.55349211
 H      5   1   2     1.112663803671   109.92559172    58.36275689
 H      6   5   1     1.045878797949   110.25914176   304.82390768
 H      6   5   1     1.043485409577   110.95003721    67.28077208
 H      6   5   1     1.045624994919   108.78493538   185.68374638

---------------------------
INTERNAL COORDINATES (A.U.)
---------------------------
 C      0   0   0     0.000000000000     0.00000000     0.00000000
 C      1   0   0     2.845657047975     0.00000000     0.00000000
 O      2   1   0     2.544329386056   120.75528218     0.00000000
 O      2   1   3     2.306836944440   119.90952476   177.77319762
 C      1   2   3     2.908408642320   113.66705835    65.14413958
 N      5   1   2     2.767076008047   112.99789207   295.25418674
 H      1   2   3     2.099715840132   109.32036972   301.78121868
 H      1   2   3     2.102319338782   108.56777566   184.43356819
 H      5   1   2     2.102943255295   107.65325040   175.55349211
 H      5   1   2     2.102629868066   109.92559172    58.36275689
 H      6   5   1     1.976424497399   110.25914176   304.82390768
 H      6   5   1     1.971901648843   110.95003721    67.28077208
 H      6   5   1     1.975944879180   108.78493538   185.68374638

---------------------
BASIS SET INFORMATION
---------------------
There are 4 groups of distinct atoms

 Group   1 Type C   : 11s6p2d1f contracted to 5s3p2d1f pattern {62111/411/11/1}
 Group   2 Type O   : 11s6p2d1f contracted to 5s3p2d1f pattern {62111/411/11/1}
 Group   3 Type N   : 11s6p2d1f contracted to 5s3p2d1f pattern {62111/411/11/1}
 Group   4 Type H   : 5s1p contracted to 3s1p pattern {311/1}

Atom   0C    basis set group =>   1
Atom   1C    basis set group =>   1
Atom   2O    basis set group =>   2
Atom   3O    basis set group =>   2
Atom   4C    basis set group =>   1
Atom   5N    basis set group =>   3
Atom   6H    basis set group =>   4
Atom   7H    basis set group =>   4
Atom   8H    basis set group =>   4
Atom   9H    basis set group =>   4
Atom  10H    basis set group =>   4
Atom  11H    basis set group =>   4
Atom  12H    basis set group =>   4
---------------------------------
AUXILIARY/J BASIS SET INFORMATION
---------------------------------
There are 4 groups of distinct atoms

 Group   1 Type C   : 12s5p4d2f1g contracted to 6s4p3d1f1g pattern {711111/2111/211/2/1}
 Group   2 Type O   : 12s5p4d2f1g contracted to 6s4p3d1f1g pattern {711111/2111/211/2/1}
 Group   3 Type N   : 12s5p4d2f1g contracted to 6s4p3d1f1g pattern {711111/2111/211/2/1}
 Group   4 Type H   : 5s2p1d contracted to 3s1p1d pattern {311/2/1}

Atom   0C    basis set group =>   1
Atom   1C    basis set group =>   1
Atom   2O    basis set group =>   2
Atom   3O    basis set group =>   2
Atom   4C    basis set group =>   1
Atom   5N    basis set group =>   3
Atom   6H    basis set group =>   4
Atom   7H    basis set group =>   4
Atom   8H    basis set group =>   4
Atom   9H    basis set group =>   4
Atom  10H    basis set group =>   4
Atom  11H    basis set group =>   4
Atom  12H    basis set group =>   4
--------------------------------------------------------------------------
WARNING: There was an error initializing an OpenFabrics device.

  Local host:   ga00
  Local device: mlx5_0
--------------------------------------------------------------------------


           ************************************************************
           *        Program running with 6 parallel MPI-processes     *
           *              working on a common directory               *
           ************************************************************
------------------------------------------------------------------------------
                             ORCA STARTUP CALCULATIONS
                           -- RI-GTO INTEGRALS CHOSEN --
------------------------------------------------------------------------------
------------------------------------------------------------------------------
                   ___                                                        
                  /   \      - P O W E R E D   B Y -                         
                 /     \                                                     
                 |  |  |   _    _      __       _____    __    __             
                 |  |  |  | |  | |    /  \     |  _  \  |  |  /  |          
                  \  \/   | |  | |   /    \    | | | |  |  | /  /          
                 / \  \   | |__| |  /  /\  \   | |_| |  |  |/  /          
                |  |  |   |  __  | /  /__\  \  |    /   |      \           
                |  |  |   | |  | | |   __   |  |    \   |  |\   \          
                \     /   | |  | | |  |  |  |  | |\  \  |  | \   \       
                 \___/    |_|  |_| |__|  |__|  |_| \__\ |__|  \__/        
                                                                              
                      - O R C A' S   B I G   F R I E N D -                    
                                      &                                       
                       - I N T E G R A L  F E E D E R -                       
                                                                              
 v1 FN, 2020, v2 2021, v3 2022-2024                                           
------------------------------------------------------------------------------


----------------------
SHARK INTEGRAL PACKAGE
----------------------

Number of atoms                             ...     13
Number of basis functions                   ...    228
Number of shells                            ...     94
Maximum angular momentum                    ...      3
Integral batch strategy                     ... SHARK/LIBINT Hybrid
RI-J (if used) integral strategy            ... SPLIT-RIJ (Revised 2003 algorithm where possible)
Printlevel                                  ...      1
Contraction scheme used                     ... SEGMENTED contraction
Prescreening option                         ... SCHWARTZ
   Thresh                                   ... 2.500e-11
   Tcut                                     ... 2.500e-12
   Tpresel                                  ... 2.500e-12 
Coulomb Range Separation                    ... NOT USED
Exchange Range Separation                   ... NOT USED
Multipole approximations                    ... NOT USED
Finite Nucleus Model                        ... NOT USED
CABS basis                                  ... NOT available
Auxiliary Coulomb fitting basis             ... AVAILABLE
   # of basis functions in Aux-J            ...    371
   # of shells in Aux-J                     ...    125
   Maximum angular momentum in Aux-J        ...      4
Auxiliary J/K fitting basis                 ... NOT available
Auxiliary Correlation fitting basis         ... NOT available
Auxiliary 'external' fitting basis          ... NOT available

Checking pre-screening integrals            ... done (  0.0 sec) Dimension = 94
Check shell pair data                       ... done (  0.0 sec)
Shell pair information
Shell pair cut-off parameter TPreSel        ...   2.5e-12
Total number of shell pairs                 ...      4465
Shell pairs after pre-screening             ...      4207
Total number of primitive shell pairs       ...     13356
Primitive shell pairs kept                  ...      9760
          la=0 lb=0:   1214 shell pairs
          la=1 lb=0:   1214 shell pairs
          la=1 lb=1:    320 shell pairs
          la=2 lb=0:    571 shell pairs
          la=2 lb=1:    291 shell pairs
          la=2 lb=2:     77 shell pairs
          la=3 lb=0:    285 shell pairs
          la=3 lb=1:    145 shell pairs
          la=3 lb=2:     70 shell pairs
          la=3 lb=3:     20 shell pairs

Calculating one electron integrals          ... done (  0.0 sec)
Calculating RI/J V-Matrix + Cholesky decomp.... done (  0.0 sec)
Calculating Nuclear repulsion               ... done (  0.0 sec) ENN=    243.323527259968 Eh

Diagonalization of the overlap matrix:
Smallest eigenvalue                        ... 3.006e-04
Time for diagonalization                   ...    0.004 sec
Threshold for overlap eigenvalues          ... 1.000e-07
Number of eigenvalues below threshold      ... 0
Time for construction of square roots      ...    0.002 sec
Total time needed                          ...    0.006 sec

-------------------
DFT GRID GENERATION
-------------------

General Integration Accuracy     IntAcc      ... 4.388
Radial Grid Type                 RadialGrid  ... OptM3 with GC (2021)
Angular Grid (max. ang.)         AngularGrid ... 4 (Lebedev-302)
Angular grid pruning method      GridPruning ... 4 (adaptive)
Weight generation scheme         WeightScheme... mBecke (2022)
Basis function cutoff            BFCut       ... 1.0000e-11
Integration weight cutoff        WCut        ... 1.0000e-14
Partially contracted basis set               ... off
Rotationally invariant grid construction     ... off
Angular grids for H and He will be reduced by one unit

Total number of grid points                  ...    58888
Total number of batches                      ...      925
Average number of points per batch           ...       63
Average number of grid points per atom       ...     4530

--------------------
COSX GRID GENERATION
--------------------

GRIDX 1
-------
General Integration Accuracy     IntAcc      ... 3.816
Radial Grid Type                 RadialGrid  ... OptM3 with GC (2021)
Angular Grid (max. ang.)         AngularGrid ... 1 (Lebedev-50)
Angular grid pruning method      GridPruning ... 4 (adaptive)
Weight generation scheme         WeightScheme... mBecke (2022)
Basis function cutoff            BFCut       ... 1.0000e-11
Integration weight cutoff        WCut        ... 1.0000e-14
Partially contracted basis set               ... on
Rotationally invariant grid construction     ... off
Angular grids for H and He will be reduced by one unit

Total number of grid points                  ...     7534
Total number of batches                      ...       67
Average number of points per batch           ...      112
Average number of grid points per atom       ...      580
UseSFitting                                  ... on

GRIDX 2
-------
General Integration Accuracy     IntAcc      ... 4.020
Radial Grid Type                 RadialGrid  ... OptM3 with GC (2021)
Angular Grid (max. ang.)         AngularGrid ... 2 (Lebedev-110)
Angular grid pruning method      GridPruning ... 4 (adaptive)
Weight generation scheme         WeightScheme... mBecke (2022)
Basis function cutoff            BFCut       ... 1.0000e-11
Integration weight cutoff        WCut        ... 1.0000e-14
Partially contracted basis set               ... on
Rotationally invariant grid construction     ... off
Angular grids for H and He will be reduced by one unit

Total number of grid points                  ...    16302
Total number of batches                      ...      134
Average number of points per batch           ...      121
Average number of grid points per atom       ...     1254
UseSFitting                                  ... on

GRIDX 3
-------
General Integration Accuracy     IntAcc      ... 4.338
Radial Grid Type                 RadialGrid  ... OptM3 with GC (2021)
Angular Grid (max. ang.)         AngularGrid ... 3 (Lebedev-194)
Angular grid pruning method      GridPruning ... 4 (adaptive)
Weight generation scheme         WeightScheme... mBecke (2022)
Basis function cutoff            BFCut       ... 1.0000e-11
Integration weight cutoff        WCut        ... 1.0000e-14
Partially contracted basis set               ... on
Rotationally invariant grid construction     ... off
Angular grids for H and He will be reduced by one unit

Total number of grid points                  ...    35787
Total number of batches                      ...      287
Average number of points per batch           ...      124
Average number of grid points per atom       ...     2753
UseSFitting                                  ... on
Initializing property integral containers    ... done (  0.0 sec)

SHARK setup successfully completed in   0.5 seconds

Maximum memory used throughout the entire STARTUP-calculation: 21.2 MB
[ga00:432040] 5 more processes have sent help message help-mpi-btl-openib.txt / error in device init
[ga00:432040] Set MCA parameter "orte_base_help_aggregate" to 0 to see all help / error messages
--------------------------------------------------------------------------
WARNING: There was an error initializing an OpenFabrics device.

  Local host:   ga00
  Local device: mlx5_0
--------------------------------------------------------------------------


           ************************************************************
           *        Program running with 6 parallel MPI-processes     *
           *              working on a common directory               *
           ************************************************************
-------------------------------------------------------------------------------
                                 ORCA GUESS
                   Start orbitals & Density for SCF / CASSCF
-------------------------------------------------------------------------------

------------
SCF SETTINGS
------------
Hamiltonian:
 Density Functional     Method          .... DFT(GTOs)
 Exchange Functional    Exchange        .... B88
   X-Alpha parameter    XAlpha          ....  0.666667
   Becke's b parameter  XBeta           ....  0.004200
 Correlation Functional Correlation     .... LYP
 LDA part of GGA corr.  LDAOpt          .... VWN-5
 Gradients option       PostSCFGGA      .... off
 Hybrid DFT is turned on
   Fraction HF Exchange ScalHFX         ....  0.200000
   Scaling of DF-GGA-X  ScalDFX         ....  0.720000
   Scaling of DF-GGA-C  ScalDFC         ....  0.810000
   Scaling of DF-LDA-C  ScalLDAC        ....  1.000000
   Perturbative correction              ....  0.000000
   NL short-range parameter             ....  4.800000
 RI-approximation to the Coulomb term is turned on
   Number of AuxJ basis functions       .... 371
   RIJ-COSX (HFX calculated with COS-X)).... on


General Settings:
 Integral files         IntName         .... 02_Alanine_zwitterion
 Hartree-Fock type      HFTyp           .... RHF
 Total Charge           Charge          ....    0
 Multiplicity           Mult            ....    1
 Number of Electrons    NEL             ....   48
 Basis Dimension        Dim             ....  228
 Nuclear Repulsion      ENuc            ....    243.3235272600 Eh

Convergence Acceleration:
 AO-DIIS                CNVDIIS         .... on
   Start iteration      DIISMaxIt       ....    12
   Startup error        DIISStart       ....  0.200000
   # of expansion vecs  DIISMaxEq       ....     5
   Bias factor          DIISBfac        ....   1.050
   Max. coefficient     DIISMaxC        ....  10.000
 MO-DIIS                CNVKDIIS        .... off
 Trust-Rad. Augm. Hess. CNVTRAH         .... auto
   Auto Start mean grad. ratio tolernc. ....  1.125000
   Auto Start start iteration           ....    50
   Auto Start num. interpolation iter.  ....    10
   Max. Number of Micro iterations      ....    24
   Max. Number of Macro iterations      .... Maxiter - #DIIS iter
   Number of Davidson start vectors     ....     2
   Converg. threshold    (grad. norm)   ....   1.000e-05
   Grad. Scal. Fac. for Micro threshold ....   0.100
   Minimum threshold for Micro iter.    ....   1.000e-02
   NR start threshold (gradient norm)   ....   1.000e-04
   Initial trust radius                 ....   0.400
   Minimum AH scaling param. (alpha)    ....   1.000
   Maximum AH scaling param. (alpha)    .... 1000.000
   Quad. conv. algorithm                .... NR
   White noise on init. David. guess    .... on
   Maximum white noise                  ....   0.010
   Pseudo random numbers                .... off
   Inactive MOs                         .... canonical
   Orbital update algorithm             .... Taylor
   Preconditioner                       .... Diag
   Full preconditioner red. dimension   ....   250
 SOSCF                  CNVSOSCF        .... on
   Start iteration      SOSCFMaxIt      ....   150
   Startup grad/error   SOSCFStart      ....  0.003300
   Hessian update       SOSCFHessUp     .... L-BFGS
 Level Shifting         CNVShift        .... on
   Level shift para.    LevelShift      ....    0.2500
   Turn off err/grad.   ShiftErr        ....    0.0010
 Zerner damping         CNVZerner       .... off
 Static damping         CNVDamp         .... on
   Fraction old density DampFac         ....    0.7000
   Max. Damping (<1)    DampMax         ....    0.9800
   Min. Damping (>=0)   DampMin         ....    0.0000
   Turn off err/grad.   DampErr         ....    0.1000

SCF Procedure:
 Maximum # iterations   MaxIter         ....   125
 SCF integral mode      SCFMode         .... Direct
   Integral package                     .... SHARK and LIBINT hybrid scheme
 Reset frequency        DirectResetFreq ....    20
 Integral Threshold     Thresh          ....  2.500e-11 Eh
 Primitive CutOff       TCut            ....  2.500e-12 Eh

Convergence Tolerance:
 Convergence Check Mode ConvCheckMode   .... Total+1el-Energy
 Convergence forced     ConvForced      .... 0
 Energy Change          TolE            ....  1.000e-08 Eh
 1-El. energy change                    ....  1.000e-05 Eh
 Orbital Gradient       TolG            ....  1.000e-05
 Orbital Rotation angle TolX            ....  1.000e-05
 DIIS Error             TolErr          ....  5.000e-07

------------------------------
INITIAL GUESS: MODEL POTENTIAL
------------------------------
Loading Hartree-Fock densities                     ... done
Calculating cut-offs                               ... done
Initializing the effective Hamiltonian             ... done
Setting up the integral package (SHARK)            ... done
Starting the Coulomb interaction                   ... done (   0.0 sec)
Making the grid                                    ... done (   0.1 sec)
Mapping shells                                     ... done
Starting the XC term evaluation                    ... done (   0.0 sec)
  promolecular density results
     # of electrons  =     47.996700885
     EX              =    -40.436619164
     EC              =     -1.631791736
     EX+EC           =    -42.068410900
Transforming the Hamiltonian                       ... done (   0.0 sec)
Diagonalizing the Hamiltonian                      ... done (   0.0 sec)
Back transforming the eigenvectors                 ... done (   0.0 sec)
Now organizing SCF variables                       ... done
                      ------------------
                      INITIAL GUESS DONE (   0.1 sec)
                      ------------------
             **** ENERGY FILE WAS UPDATED (02_Alanine_zwitterion.en.tmp) ****
Finished Guess after   0.5 sec
Maximum memory used throughout the entire GUESS-calculation: 13.9 MB
[ga00:432109] 5 more processes have sent help message help-mpi-btl-openib.txt / error in device init
[ga00:432109] Set MCA parameter "orte_base_help_aggregate" to 0 to see all help / error messages
--------------------------------------------------------------------------
WARNING: There was an error initializing an OpenFabrics device.

  Local host:   ga00
  Local device: mlx5_0
--------------------------------------------------------------------------


           ************************************************************
           *        Program running with 6 parallel MPI-processes     *
           *              working on a common directory               *
           ************************************************************

-------------------------------------------------------------------------------------------
                                      ORCA LEAN-SCF
                              memory conserving SCF solver
-------------------------------------------------------------------------------------------

--------------------
CPCM SOLVATION MODEL
--------------------
CPCM parameters:
  Epsilon                                         ...      80.1510
  Refrac                                          ...       1.3328
  Rsolv                                           ...       1.3000
  Surface type                                    ... GAUSSIAN VDW
  Discretization scheme                           ... Constant charge density
    Threshold for H atoms                         ...       5.0000 (charges/Ang^2)
    Threshold for non-H atoms                     ...       5.0000 (charges/Ang^2)
  Epsilon function type                           ...         CPCM
Solvent:                                          ... WATER
Radii:
  Scheme                                          ... Element-dependent radii
  Radius for C  used is    3.8550 Bohr (=   2.0400 Ang.)
  Radius for O  used is    3.4469 Bohr (=   1.8240 Ang.)
  Radius for N  used is    3.5149 Bohr (=   1.8600 Ang.)
  Radius for H  used is    2.4944 Bohr (=   1.3200 Ang.)
Calculating surface                               ...        done! (  0.0s)
Cavity surface points                             ...         1145
Cavity Volume                                     ...     767.7786
Cavity Surface-area                               ...     473.2376
Calculating surface distance matrix               ...        done! (  0.0s)
Performing Cholesky decomposition & store         ...        done! (  0.0s)
Overall time for CPCM initialization              ...                 0.0s

----------------------------------------D-I-I-S--------------------------------------------
Iteration    Energy (Eh)           Delta-E    RMSDP     MaxDP     DIISErr   Damp  Time(sec)
-------------------------------------------------------------------------------------------
               ***  Starting incremental Fock matrix formation  ***
    1    -323.4218887062484100     0.00e+00  3.94e-03  3.01e-01  3.62e-01  0.700   0.9
    2    -323.5638393994598800    -1.42e-01  3.54e-03  3.11e-01  1.39e-01  0.700   0.6
                               ***Turning on AO-DIIS***
    3    -323.6110321570157566    -4.72e-02  1.23e-03  9.62e-02  3.30e-02  0.700   0.5
    4    -323.6412786183886965    -3.02e-02  1.09e-03  5.11e-02  1.37e-02  0.000   0.5
    5    -323.7107619347016225    -6.95e-02  9.12e-04  8.85e-02  8.16e-03  0.000   0.5
                              *** Initializing SOSCF ***
---------------------------------------S-O-S-C-F--------------------------------------
Iteration    Energy (Eh)           Delta-E    RMSDP     MaxDP     MaxGrad    Time(sec)
--------------------------------------------------------------------------------------
    6    -323.7111569852871753    -3.95e-04  3.34e-04  3.24e-02  2.39e-03     0.5
               *** Restarting incremental Fock matrix formation ***
    7    -323.7111833694442566    -2.64e-05  2.02e-04  1.86e-02  3.29e-04     0.9
[ga00:432171] 5 more processes have sent help message help-mpi-btl-openib.txt / error in device init
[ga00:432171] Set MCA parameter "orte_base_help_aggregate" to 0 to see all help / error messages
    8    -323.7111780402508430     5.33e-06  5.48e-05  3.80e-03  8.85e-04     0.7
    9    -323.7111896070612147    -1.16e-05  4.67e-05  4.48e-03  9.91e-05     0.7
   10    -323.7111894926946434     1.14e-07  9.98e-06  8.76e-04  7.87e-05     0.7
   11    -323.7111899242639765    -4.32e-07  8.58e-06  8.11e-04  1.90e-05     0.6
   12    -323.7111899154435832     8.82e-09  4.22e-06  3.97e-04  2.45e-05     0.6
                 **** Energy Check signals convergence ****

               *****************************************************
               *                     SUCCESS                       *
               *           SCF CONVERGED AFTER  12 CYCLES          *
               *****************************************************

Recomputing exchange energy using gridx3       ... done (    1.184 sec)
Old exchange energy                            :     -8.208640405 Eh
New exchange energy                            :     -8.208616532 Eh
Exchange energy change after final integration :      0.000023874 Eh
Total energy after final integration           :   -323.711166042 Eh
             **** ENERGY FILE WAS UPDATED (02_Alanine_zwitterion.en.tmp) ****

----------------
TOTAL SCF ENERGY
----------------

Total Energy       :       -323.71116604174688 Eh           -8808.62865 eV

Components:
Nuclear Repulsion  :        243.32352725996762 Eh            6621.16979 eV
Electronic Energy  :       -566.94016275502474 Eh          -15427.22613 eV
One Electron Energy:       -923.77221178406944 Eh          -25137.11983 eV
Two Electron Energy:        356.83204902904470 Eh            9709.89370 eV
CPCM Dielectric    :         -0.09455442038637 Eh              -2.57296 eV

Virial components:
Potential Energy   :       -645.73575187441884 Eh          -17571.36312 eV
Kinetic Energy     :        322.02458583267202 Eh            8762.73447 eV
Virial Ratio       :          2.00523742684029

DFT components:
N(Alpha)           :       24.000011514084 electrons
N(Beta)            :       24.000011514084 electrons
N(Total)           :       48.000023028167 electrons
E(X)               :      -32.666141077167 Eh       
E(C)               :       -1.930601512789 Eh       
E(XC)              :      -34.596742589956 Eh       

CPCM Solvation Model Properties:
Surface-charge          :         -0.01894424870345
Corrected charge        :         -0.00000000000000
Outlying charge corr.   :          0.00002978846242 Eh               0.00081 eV
Free-energy (cav+disp)  :  This term is not implemented in the current solvation scheme

---------------
SCF CONVERGENCE
---------------

  Last Energy change         ...   -8.8204e-09  Tolerance :   1.0000e-08
  Last MAX-Density change    ...    3.9736e-04  Tolerance :   1.0000e-07
  Last RMS-Density change    ...    4.2199e-06  Tolerance :   5.0000e-09
  Last DIIS Error            ...    2.3933e-03  Tolerance :   5.0000e-07
  Last Orbital Gradient      ...    2.4525e-05  Tolerance :   1.0000e-05
  Last Orbital Rotation      ...    2.2834e-05  Tolerance :   1.0000e-05


----------------
ORBITAL ENERGIES
----------------

  NO   OCC          E(Eh)            E(eV) 
   0   2.0000     -19.064186      -518.7629 
   1   2.0000     -19.048330      -518.3314 
   2   2.0000     -14.428997      -392.6330 
   3   2.0000     -10.250151      -278.9208 
   4   2.0000     -10.232107      -278.4298 
   5   2.0000     -10.178618      -276.9743 
   6   2.0000      -1.021152       -27.7870 
   7   2.0000      -0.992648       -27.0113 
   8   2.0000      -0.900083       -24.4925 
   9   2.0000      -0.772083       -21.0095 
  10   2.0000      -0.657697       -17.8969 
  11   2.0000      -0.577610       -15.7176 
  12   2.0000      -0.564986       -15.3741 
  13   2.0000      -0.516370       -14.0512 
  14   2.0000      -0.484219       -13.1763 
  15   2.0000      -0.437523       -11.9056 
  16   2.0000      -0.420208       -11.4344 
  17   2.0000      -0.409696       -11.1484 
  18   2.0000      -0.388616       -10.5748 
  19   2.0000      -0.365935        -9.9576 
  20   2.0000      -0.351443        -9.5633 
  21   2.0000      -0.246092        -6.6965 
  22   2.0000      -0.242573        -6.6008 
  23   2.0000      -0.219731        -5.9792 
  24   0.0000       0.012479         0.3396 
  25   0.0000       0.041048         1.1170 
  26   0.0000       0.065035         1.7697 
  27   0.0000       0.071059         1.9336 
  28   0.0000       0.074620         2.0305 
  29   0.0000       0.105783         2.8785 
  30   0.0000       0.116255         3.1635 
  31   0.0000       0.120568         3.2808 
  32   0.0000       0.141848         3.8599 
  33   0.0000       0.157989         4.2991 
  34   0.0000       0.180113         4.9011 
*Only the first 10 virtual orbitals were printed.

                    ********************************
                    * MULLIKEN POPULATION ANALYSIS *
                    ********************************

-----------------------
MULLIKEN ATOMIC CHARGES
-----------------------
   0 C :   -0.174183
   1 C :    0.208298
   2 O :   -0.686523
   3 O :   -0.485421
   4 C :   -0.151915
   5 N :   -0.258026
   6 H :    0.127717
   7 H :    0.106891
   8 H :    0.164458
   9 H :    0.165247
  10 H :    0.331186
  11 H :    0.316123
  12 H :    0.336149
Sum of atomic charges:    0.0000000

--------------------------------
MULLIKEN REDUCED ORBITAL CHARGES
--------------------------------
  0 C s       :     3.196919  s :     3.196919
      pz      :     0.969707  p :     2.896112
      px      :     0.928624
      py      :     0.997781
      dz2     :     0.013930  d :     0.075469
      dxz     :     0.019861
      dyz     :     0.013240
      dx2y2   :     0.014788
      dxy     :     0.013649
      f0      :     0.000469  f :     0.005683
      f+1     :     0.000966
      f-1     :     0.000546
      f+2     :     0.001506
      f-2     :     0.000610
      f+3     :     0.000667
      f-3     :     0.000920

  1 C s       :     3.053809  s :     3.053809
      pz      :     0.859446  p :     2.504550
      px      :     0.796218
      py      :     0.848886
      dz2     :     0.046962  d :     0.209076
      dxz     :     0.044839
      dyz     :     0.036382
      dx2y2   :     0.049249
      dxy     :     0.031643
      f0      :     0.005276  f :     0.024267
      f+1     :     0.002865
      f-1     :     0.003714
      f+2     :     0.002088
      f-2     :     0.004471
      f+3     :     0.003482
      f-3     :     0.002371

  2 O s       :     3.817863  s :     3.817863
      pz      :     1.445329  p :     4.844307
      px      :     1.655511
      py      :     1.743467
      dz2     :     0.008364  d :     0.023000
      dxz     :     0.007594
      dyz     :     0.004305
      dx2y2   :     0.001309
      dxy     :     0.001428
      f0      :     0.000346  f :     0.001354
      f+1     :     0.000443
      f-1     :     0.000177
      f+2     :     0.000177
      f-2     :     0.000158
      f+3     :     0.000022
      f-3     :     0.000031

  3 O s       :     3.752841  s :     3.752841
      pz      :     1.770273  p :     4.703006
      px      :     1.427040
      py      :     1.505693
      dz2     :     0.003106  d :     0.027774
      dxz     :     0.005317
      dyz     :     0.003002
      dx2y2   :     0.009162
      dxy     :     0.007186
      f0      :     0.000220  f :     0.001800
      f+1     :     0.000229
      f-1     :     0.000137
      f+2     :     0.000079
      f-2     :     0.000300
      f+3     :     0.000502
      f-3     :     0.000332

  4 C s       :     3.257243  s :     3.257243
      pz      :     0.885575  p :     2.783933
      px      :     0.817361
      py      :     1.080997
      dz2     :     0.015914  d :     0.102497
      dxz     :     0.026535
      dyz     :     0.019933
      dx2y2   :     0.023049
      dxy     :     0.017066
      f0      :     0.000636  f :     0.008243
      f+1     :     0.002104
      f-1     :     0.000401
      f+2     :     0.002140
      f-2     :     0.001242
      f+3     :     0.000709
      f-3     :     0.001011

  5 N s       :     3.446301  s :     3.446301
      pz      :     1.242814  p :     3.763581
      px      :     1.246054
      py      :     1.274712
      dz2     :     0.009254  d :     0.045847
      dxz     :     0.007030
      dyz     :     0.013465
      dx2y2   :     0.012059
      dxy     :     0.004040
      f0      :     0.000250  f :     0.002297
      f+1     :     0.000284
      f-1     :     0.000178
      f+2     :     0.000969
      f-2     :     0.000262
      f+3     :     0.000113
      f-3     :     0.000241

  6 H s       :     0.851281  s :     0.851281
      pz      :     0.004941  p :     0.021002
      px      :     0.003909
      py      :     0.012152

  7 H s       :     0.871637  s :     0.871637
      pz      :     0.009484  p :     0.021472
      px      :     0.008033
      py      :     0.003956

  8 H s       :     0.814611  s :     0.814611
      pz      :     0.009787  p :     0.020931
      px      :     0.003676
      py      :     0.007468

  9 H s       :     0.814016  s :     0.814016
      pz      :     0.005180  p :     0.020737
      px      :     0.003335
      py      :     0.012221

 10 H s       :     0.637084  s :     0.637084
      pz      :     0.007976  p :     0.031730
      px      :     0.005570
      py      :     0.018185

 11 H s       :     0.650644  s :     0.650644
      pz      :     0.014332  p :     0.033233
      px      :     0.006246
      py      :     0.012655

 12 H s       :     0.632500  s :     0.632500
      pz      :     0.008133  p :     0.031351
      px      :     0.017484
      py      :     0.005735



                     *******************************
                     * LOEWDIN POPULATION ANALYSIS *
                     *******************************

----------------------
LOEWDIN ATOMIC CHARGES
----------------------
   0 C :   -0.244855
   1 C :   -0.643277
   2 O :   -0.282473
   3 O :   -0.060227
   4 C :   -0.260092
   5 N :    0.175290
   6 H :    0.154244
   7 H :    0.156283
   8 H :    0.154444
   9 H :    0.154776
  10 H :    0.237078
  11 H :    0.221038
  12 H :    0.237771

-------------------------------
LOEWDIN REDUCED ORBITAL CHARGES
-------------------------------
  0 C s       :     2.797123  s :     2.797123
      pz      :     1.025793  p :     3.057745
      px      :     1.002313
      py      :     1.029639
      dz2     :     0.056318  d :     0.353485
      dxz     :     0.099599
      dyz     :     0.062126
      dx2y2   :     0.084392
      dxy     :     0.051051
      f0      :     0.004521  f :     0.036502
      f+1     :     0.005961
      f-1     :     0.004155
      f+2     :     0.005640
      f-2     :     0.004791
      f+3     :     0.004568
      f-3     :     0.006865

  1 C s       :     2.785535  s :     2.785535
      pz      :     0.945587  p :     2.733509
      px      :     0.904423
      py      :     0.883499
      dz2     :     0.206102  d :     0.968636
      dxz     :     0.240309
      dyz     :     0.192801
      dx2y2   :     0.176238
      dxy     :     0.153187
      f0      :     0.034893  f :     0.155596
      f+1     :     0.019913
      f-1     :     0.022969
      f+2     :     0.013807
      f-2     :     0.025782
      f+3     :     0.022337
      f-3     :     0.015895

  2 O s       :     3.499078  s :     3.499078
      pz      :     1.478286  p :     4.731255
      px      :     1.604241
      py      :     1.648727
      dz2     :     0.017786  d :     0.048362
      dxz     :     0.016576
      dyz     :     0.008167
      dx2y2   :     0.003169
      dxy     :     0.002665
      f0      :     0.000895  f :     0.003778
      f+1     :     0.001350
      f-1     :     0.000456
      f+2     :     0.000559
      f-2     :     0.000402
      f+3     :     0.000060
      f-3     :     0.000057

  3 O s       :     3.407520  s :     3.407520
      pz      :     1.633463  p :     4.581321
      px      :     1.473170
      py      :     1.474688
      dz2     :     0.008548  d :     0.065370
      dxz     :     0.013738
      dyz     :     0.006938
      dx2y2   :     0.014530
      dxy     :     0.021616
      f0      :     0.000695  f :     0.006016
      f+1     :     0.000794
      f-1     :     0.000460
      f+2     :     0.000264
      f-2     :     0.001133
      f+3     :     0.001210
      f-3     :     0.001461

  4 C s       :     2.803127  s :     2.803127
      pz      :     0.957373  p :     2.971282
      px      :     0.948502
      py      :     1.065407
      dz2     :     0.064804  d :     0.434675
      dxz     :     0.117266
      dyz     :     0.083479
      dx2y2   :     0.107211
      dxy     :     0.061914
      f0      :     0.006261  f :     0.051007
      f+1     :     0.012803
      f-1     :     0.003066
      f+2     :     0.007616
      f-2     :     0.008323
      f+3     :     0.005263
      f-3     :     0.007676

  5 N s       :     2.985659  s :     2.985659
      pz      :     1.233731  p :     3.670333
      px      :     1.219477
      py      :     1.217125
      dz2     :     0.028225  d :     0.158602
      dxz     :     0.031563
      dyz     :     0.044072
      dx2y2   :     0.041940
      dxy     :     0.012801
      f0      :     0.002056  f :     0.010115
      f+1     :     0.001750
      f-1     :     0.000843
      f+2     :     0.001362
      f-2     :     0.001618
      f+3     :     0.000873
      f-3     :     0.001613

  6 H s       :     0.788437  s :     0.788437
      pz      :     0.014583  p :     0.057319
      px      :     0.011742
      py      :     0.030993

  7 H s       :     0.787811  s :     0.787811
      pz      :     0.024434  p :     0.055906
      px      :     0.020033
      py      :     0.011439

  8 H s       :     0.788133  s :     0.788133
      pz      :     0.024796  p :     0.057424
      px      :     0.010485
      py      :     0.022142

  9 H s       :     0.787627  s :     0.787627
      pz      :     0.013880  p :     0.057598
      px      :     0.009836
      py      :     0.033881

 10 H s       :     0.668766  s :     0.668766
      pz      :     0.022672  p :     0.094155
      px      :     0.015693
      py      :     0.055790

 11 H s       :     0.679367  s :     0.679367
      pz      :     0.041977  p :     0.099595
      px      :     0.017786
      py      :     0.039831

 12 H s       :     0.668015  s :     0.668015
      pz      :     0.026155  p :     0.094213
      px      :     0.051450
      py      :     0.016609



                      *****************************
                      * MAYER POPULATION ANALYSIS *
                      *****************************

  NA   - Mulliken gross atomic population
  ZA   - Total nuclear charge
  QA   - Mulliken gross atomic charge
  VA   - Mayer's total valence
  BVA  - Mayer's bonded valence
  FA   - Mayer's free valence

  ATOM       NA         ZA         QA         VA         BVA        FA
  0 C      6.1742     6.0000    -0.1742     3.6063     3.6063    -0.0000
  1 C      5.7917     6.0000     0.2083     4.5752     4.5752     0.0000
  2 O      8.6865     8.0000    -0.6865     1.6969     1.6969     0.0000
  3 O      8.4854     8.0000    -0.4854     1.9185     1.9185     0.0000
  4 C      6.1519     6.0000    -0.1519     3.8290     3.8290     0.0000
  5 N      7.2580     7.0000    -0.2580     3.5105     3.5105     0.0000
  6 H      0.8723     1.0000     0.1277     0.9787     0.9787    -0.0000
  7 H      0.8931     1.0000     0.1069     1.0026     1.0026    -0.0000
  8 H      0.8355     1.0000     0.1645     0.9565     0.9565     0.0000
  9 H      0.8348     1.0000     0.1652     0.9591     0.9591     0.0000
 10 H      0.6688     1.0000     0.3312     0.8949     0.8949    -0.0000
 11 H      0.6839     1.0000     0.3161     0.9335     0.9335     0.0000
 12 H      0.6639     1.0000     0.3361     0.8821     0.8821     0.0000

  Mayer bond orders larger than 0.100000
B(  0-C ,  1-C ) :   0.9090 B(  0-C ,  4-C ) :   0.9689 B(  0-C ,  6-H ) :   0.9402 
B(  0-C ,  7-H ) :   0.9466 B(  1-C ,  2-O ) :   1.6900 B(  1-C ,  3-O ) :   1.9343 
B(  4-C ,  5-N ) :   0.9131 B(  4-C ,  8-H ) :   0.9551 B(  4-C ,  9-H ) :   0.9558 
B(  5-N , 10-H ) :   0.8672 B(  5-N , 11-H ) :   0.8521 B(  5-N , 12-H ) :   0.8672 


-------
TIMINGS
-------

Total SCF time: 0 days 0 hours 0 min 9 sec 

Total time                  ....       9.169 sec
Sum of individual times     ....       9.153 sec  ( 99.8%)

SCF preparation             ....       0.327 sec  (  3.6%)
Fock matrix formation       ....       8.614 sec  ( 94.0%)
  Startup                   ....       0.007 sec  (  0.1% of F)
  Split-RI-J                ....       0.568 sec  (  6.6% of F)
  Chain of spheres X        ....       5.858 sec  ( 68.0% of F)
  XC integration            ....       1.348 sec  ( 15.6% of F)
    XC Preparation          ....       0.000 sec  (  0.0% of XC)
    Basis function eval.    ....       0.388 sec  ( 28.8% of XC)
    Density eval.           ....       0.293 sec  ( 21.8% of XC)
    XC-Functional eval.     ....       0.072 sec  (  5.4% of XC)
    XC-Potential eval.      ....       0.530 sec  ( 39.3% of XC)
  CPCM terms                ....       0.805 sec  (  9.3% of F)
Diagonalization             ....       0.000 sec  (  0.0%)
Density matrix formation    ....       0.020 sec  (  0.2%)
Total Energy calculation    ....       0.016 sec  (  0.2%)
Population analysis         ....       0.011 sec  (  0.1%)
Orbital Transformation      ....       0.021 sec  (  0.2%)
Orbital Orthonormalization  ....       0.000 sec  (  0.0%)
DIIS solution               ....       0.092 sec  (  1.0%)
SOSCF solution              ....       0.052 sec  (  0.6%)
Finished LeanSCF after   9.2 sec

Maximum memory used throughout the entire LEANSCF-calculation: 21.8 MB


-------------------------------------------------------------------------------
                          DFT DISPERSION CORRECTION                            
                                                                               
                                DFTD4 V3.4.0                                   
-------------------------------------------------------------------------------
The B3LYP functional is recognized
Active option DFTDOPT                   ...         5   

-------------------------   ----------------
Dispersion correction           -0.014163652
-------------------------   ----------------


-------------------------   --------------------
FINAL SINGLE POINT ENERGY      -323.725329693461
-------------------------   --------------------

--------------------------------------------------------------------------
WARNING: There was an error initializing an OpenFabrics device.

  Local host:   ga00
  Local device: mlx5_0
--------------------------------------------------------------------------


           ************************************************************
           *        Program running with 6 parallel MPI-processes     *
           *              working on a common directory               *
           ************************************************************
------------------------------------------------------------------------------
                         ORCA SCF GRADIENT CALCULATION
------------------------------------------------------------------------------

Nuc. rep. gradient        (SHARK) ... done (  0.0 sec)
HCore & Overlap gradient  (SHARK) ... done (  0.0 sec)
Split-RIJ-J gradient      (SHARK) ... done (  0.2 sec)
COSX-gradient                     ... done (  4.1 sec)
XC gradient                       ... [ga00:432377] 5 more processes have sent help message help-mpi-btl-openib.txt / error in device init
[ga00:432377] Set MCA parameter "orte_base_help_aggregate" to 0 to see all help / error messages
done (  0.5 sec)
CPCM gradient                     ... done (  0.3 sec)
Dispersion correction             ... done (  0.0 sec)

-------------------
DISPERSION GRADIENT
-------------------

   1   C   :   -0.000195605    0.000140994   -0.000155479
   2   C   :   -0.000382446   -0.000147150    0.000174680
   3   O   :   -0.000230929   -0.000175655    0.000564491
   4   O   :   -0.000428866   -0.000238001    0.000106515
   5   C   :    0.000226002    0.000093921   -0.000358882
   6   N   :    0.000574162    0.000115610   -0.000138835
   7   H   :   -0.000072726    0.000120582   -0.000010530
   8   H   :   -0.000115622    0.000021170   -0.000088383
   9   H   :    0.000063764    0.000032699   -0.000083621
  10   H   :    0.000092383   -0.000030087   -0.000099866
  11   H   :    0.000128934    0.000141382    0.000050421
  12   H   :    0.000116512   -0.000065852    0.000090425
  13   H   :    0.000224437   -0.000009612   -0.000050935

Difference to translation invariance:
           :   -0.0000000000   -0.0000000000    0.0000000000

Difference to rotation invariance:
           :   -0.0000000000    0.0000000000   -0.0000000000

Norm of the Dispersion gradient    ...    0.0012953390
RMS gradient                       ...    0.0002074202
MAX gradient                       ...    0.0005741622

------------------
CARTESIAN GRADIENT
------------------

   1   C   :   -0.003340778   -0.010426494    0.009118643
   2   C   :   -0.028400459    0.007664899   -0.080788891
   3   O   :    0.005957741   -0.016404474    0.059740352
   4   O   :    0.028051843    0.015292706    0.020408534
   5   C   :    0.025123247   -0.001065141    0.028542554
   6   N   :   -0.023464605   -0.000299712   -0.007407025
   7   H   :   -0.001944671    0.009526988    0.003850574
   8   H   :   -0.009713313   -0.001435668   -0.010406762
   9   H   :   -0.001735933    0.009766091   -0.011714637
  10   H   :   -0.003668621   -0.012654877   -0.008108527
  11   H   :   -0.003543199    0.019131060    0.003288299
  12   H   :    0.002863760   -0.014659264    0.005360945
  13   H   :    0.013814987   -0.004436114   -0.011884059

Difference to translation invariance:
           :   -0.0000000000   -0.0000000000    0.0000000000

Difference to rotation invariance:
           :   -0.0003086599   -0.0002972209    0.0003671129

Norm of the Cartesian gradient     ...    0.1293852713
RMS gradient                       ...    0.0207182246
MAX gradient                       ...    0.0807888910

-------
TIMINGS
-------

Total SCF gradient time     ....        5.244 sec

Densities                   ....       0.001 sec  (  0.0%)
One electron gradient       ....       0.036 sec  (  0.7%)
RI-J Coulomb gradient       ....       0.244 sec  (  4.7%)
COSX gradient               ....       4.104 sec  ( 78.3%)
XC gradient                 ....       0.544 sec  ( 10.4%)
CPCM gradient               ....       0.291 sec  (  5.5%)
   A-Matrix (El+Nuc)        ....       0.038 sec  (  0.7%)
   Potential                ....       0.253 sec  (  4.8%)

Maximum memory used throughout the entire SCFGRAD-calculation: 32.5 MB
------------------------------------------------------------------------------
                         ORCA GEOMETRY RELAXATION STEP
------------------------------------------------------------------------------

Reading the OPT-File                    .... done
Getting information on internals        .... done
Copying old internal coords+grads       .... done
Making the new internal coordinates     .... (2022 redundants) done
Validating the new internal coordinates .... (2022 redundants) done
Calculating the B-matrix                .... done
Calculating the G,G- and P matrices     .... done
Transforming gradient to internals      .... done
Projecting the internal gradient        .... done
Number of atoms                         ....  13
Number of internal coordinates          ....  51
Current Energy                          ....  -323.725329693 Eh
Current gradient norm                   ....     0.129385271 Eh/bohr
Maximum allowed component of the step   ....  0.300
Current trust radius                    ....  0.300
Evaluating the initial hessian          ....  (Almloef) done
Projecting the Hessian                  .... done
Forming the augmented Hessian           .... done
Diagonalizing the augmented Hessian     .... done
Last element of RFO vector              ....  0.950628637
Lowest eigenvalues of augmented Hessian:
 -0.017624851  0.007286937  0.011086717  0.012728453  0.015368043
Length of the computed step             ....  0.326447962
Warning: the length of the step is outside the trust region - taking restricted step instead
The input lambda is                     ....     0.005177
   iter:   5  x=   -0.001637  g=  468.822900 f(x)=     1.232289
   iter:  10  x=   -0.020857  g=    4.768118 f(x)=     0.005835
The output lambda is                    ....    -0.020945 (14 iterations)
The final length of the internal step   ....  0.300000000
Converting the step to Cartesian space:
 Initial RMS(Int)=    0.0420084025
Transforming coordinates:
 Iter   0:  RMS(Cart)=    0.0439964864 RMS(Int)=    0.0413454686
 Iter   5:  RMS(Cart)=    0.0000000456 RMS(Int)=    0.0000000371
done
Storing new coordinates                 .... done

                                .--------------------.
          ----------------------|Geometry convergence|-------------------------
          Item                value                   Tolerance       Converged
          ---------------------------------------------------------------------
          RMS gradient        0.0128438862            0.0000300000      NO
          MAX gradient        0.0563299388            0.0001000000      NO
          RMS step            0.0420084025            0.0006000000      NO
          MAX step            0.1941626072            0.0010000000      NO
          ........................................................
          Max(Bonds)      0.1027      Max(Angles)    3.87
          Max(Dihed)        3.89      Max(Improp)    0.00
          ---------------------------------------------------------------------

The optimization has not yet converged - more geometry cycles are needed


    ---------------------------------------------------------------------------
                         Redundant Internal Coordinates
                            (Angstroem and degrees)

        Definition                    Value    dE/dq     Step     New-Value
    ----------------------------------------------------------------------------
     1. B(C   1,C   0)                1.5059 -0.009869  0.0112    1.5170   
     2. B(O   2,C   1)                1.3464  0.056330 -0.0439    1.3025   
     3. B(O   3,C   1)                1.2207 -0.034438  0.0171    1.2379   
     4. B(C   4,C   0)                1.5391  0.004514 -0.0080    1.5311   
     5. B(N   5,C   4)                1.4643 -0.016847  0.0194    1.4837   
     6. B(H   6,C   0)                1.1111  0.010345 -0.0155    1.0957   
     7. B(H   7,C   0)                1.1125  0.014264 -0.0214    1.0911   
     8. B(H   8,C   4)                1.1128  0.014697 -0.0221    1.0907   
     9. B(H   9,C   4)                1.1127  0.014655 -0.0220    1.0906   
    10. B(H  10,N   5)                1.0459  0.018981 -0.0251    1.0208   
    11. B(H  11,O   2)                2.4342  0.005812 -0.1027    2.3314   
    12. B(H  11,N   5)                1.0435  0.016205 -0.0205    1.0230   
    13. B(H  12,N   5)                1.0456  0.018076 -0.0239    1.0217   
    14. A(C   4,C   0,H   6)          110.03  0.002985   -0.59    109.44   
    15. A(C   1,C   0,C   4)          113.67 -0.005172    0.28    113.94   
    16. A(H   6,C   0,H   7)          107.79 -0.000324   -0.07    107.73   
    17. A(C   1,C   0,H   7)          108.57  0.001164    0.21    108.78   
    18. A(C   4,C   0,H   7)          107.27  0.001135    0.13    107.40   
    19. A(C   1,C   0,H   6)          109.32  0.000406    0.04    109.36   
    20. A(O   2,C   1,O   3)          119.30 -0.030697    3.87    123.17   
    21. A(C   0,C   1,O   2)          120.76  0.025071   -3.32    117.43   
    22. A(C   0,C   1,O   3)          119.91  0.005535   -0.33    119.57   
    23. A(N   5,C   4,H   9)          109.85  0.007441   -1.30    108.55   
    24. A(C   0,C   4,H   9)          109.93 -0.002538    0.42    110.34   
    25. A(N   5,C   4,H   8)          108.43  0.004174   -0.63    107.80   
    26. A(C   0,C   4,H   8)          107.65 -0.004237    1.30    108.95   
    27. A(H   8,C   4,H   9)          107.82 -0.003234    0.45    108.27   
    28. A(C   0,C   4,N   5)          113.00 -0.001868   -0.17    112.83   
    29. A(H  11,N   5,H  12)          107.78  0.002113   -0.05    107.73   
    30. A(H  10,N   5,H  12)          108.72  0.005500   -0.67    108.05   
    31. A(C   4,N   5,H  12)          108.78 -0.005693    1.23    110.02   
    32. A(H  10,N   5,H  11)          110.27  0.005994   -1.48    108.79   
    33. A(C   4,N   5,H  11)          110.95 -0.003737    0.35    111.30   
    34. A(C   4,N   5,H  10)          110.26 -0.003999    0.62    110.88   
    35. D(O   3,C   1,C   0,C   4)   -117.08 -0.001444    2.59   -114.50   
    36. D(O   2,C   1,C   0,C   4)     65.14  0.001977   -3.89     61.26   
    37. D(O   2,C   1,C   0,H   6)    -58.22  0.001448   -3.34    -61.56   
    38. D(O   3,C   1,C   0,H   6)    119.55 -0.001972    3.13    122.68   
    39. D(O   2,C   1,C   0,H   7)   -175.57  0.000948   -3.40   -178.97   
    40. D(N   5,C   4,C   0,H   6)     58.23  0.000350   -0.83     57.40   
    41. D(N   5,C   4,C   0,C   1)    -64.75  0.001271   -0.63    -65.38   
    42. D(H   8,C   4,C   0,H   6)    -61.47 -0.000871   -0.81    -62.29   
    43. D(H   8,C   4,C   0,C   1)    175.55  0.000051   -0.61    174.94   
    44. D(H   8,C   4,C   0,H   7)     55.53  0.000983   -1.13     54.39   
    45. D(N   5,C   4,C   0,H   7)    175.23  0.002204   -1.15    174.08   
    46. D(H  10,N   5,C   4,H   9)   -178.33 -0.000416   -0.03   -178.36   
    47. D(H  10,N   5,C   4,H   8)     64.08 -0.003153    0.52     64.60   
    48. D(H  11,N   5,C   4,C   0)     67.28  0.002803   -1.79     65.49   
    49. D(H  10,N   5,C   4,C   0)    -55.18  0.000495   -0.58    -55.75   
    50. D(H  11,N   5,C   4,H   9)    -55.87  0.001891   -1.25    -57.12   
    51. D(H  11,N   5,C   4,H   8)   -173.47 -0.000845   -0.69   -174.16   
    ----------------------------------------------------------------------------

Geometry step timings:
Preparation and reading OPT file:      0.000 s ( 0.544 %)
Internal coordinates            :      0.000 s ( 0.094 %)
B/P matrices and projection     :      0.000 s ( 1.402 %)
Hessian update/contruction      :      0.000 s ( 0.421 %)
Making the step                 :      0.000 s ( 1.868 %)
Converting the step to Cartesian:      0.000 s ( 0.200 %)
Storing new data                :      0.000 s ( 0.082 %)
Checking convergence            :      0.000 s ( 0.008 %)
Final printing                  :      0.023 s (95.348 %)
Total time                      :      0.024 s
--------------------------------------------------------------------------
WARNING: There was an error initializing an OpenFabrics device.

  Local host:   ga00
  Local device: mlx5_0
--------------------------------------------------------------------------
[ga00:432505] 5 more processes have sent help message help-mpi-btl-openib.txt / error in device init
[ga00:432505] Set MCA parameter "orte_base_help_aggregate" to 0 to see all help / error messages

Time for energy+gradient        :     16.556 s
Time for complete geometry iter :     16.923 s

         *************************************************************
         *                GEOMETRY OPTIMIZATION CYCLE   2            *
         *************************************************************
---------------------------------
CARTESIAN COORDINATES (ANGSTROEM)
---------------------------------
  C      0.020329    0.532550   -2.260209
  C     -0.442608   -0.424003   -1.177695
  O      0.268884   -0.483061   -0.088332
  O     -1.413924   -1.161171   -1.390874
  C      1.413288    0.217724   -2.811884
  N      2.484268    0.387931   -1.799379
  H      0.004942    1.556647   -1.871018
  H     -0.680311    0.483990   -3.095201
  H      1.627413    0.893546   -3.640815
  H      1.450162   -0.805698   -3.187071
  H      2.464564    1.328698   -1.403698
  H      2.388656   -0.290968   -1.040088
  H      3.399338    0.245215   -2.230938

----------------------------
CARTESIAN COORDINATES (A.U.)
----------------------------
  NO LB      ZA    FRAG     MASS         X           Y           Z
   0 C     6.0000    0    12.011    0.038416    1.006374   -4.271176
   1 C     6.0000    0    12.011   -0.836408   -0.801250   -2.225520
   2 O     8.0000    0    15.999    0.508118   -0.912854   -0.166923
   3 O     8.0000    0    15.999   -2.671929   -2.194295   -2.628370
   4 C     6.0000    0    12.011    2.670727    0.411438   -5.313690
   5 N     7.0000    0    14.007    4.694586    0.733084   -3.400334
   6 H     1.0000    0     1.008    0.009340    2.941637   -3.535711
   7 H     1.0000    0     1.008   -1.285602    0.914608   -5.849083
   8 H     1.0000    0     1.008    3.075364    1.688558   -6.880142
   9 H     1.0000    0     1.008    2.740409   -1.522548   -6.022691
  10 H     1.0000    0     1.008    4.657351    2.510876   -2.652605
  11 H     1.0000    0     1.008    4.513906   -0.549850   -1.965482
  12 H     1.0000    0     1.008    6.423817    0.463390   -4.215862

--------------------------------
INTERNAL COORDINATES (ANGSTROEM)
--------------------------------
 C      0   0   0     0.000000000000     0.00000000     0.00000000
 C      1   0   0     1.516951616821     0.00000000     0.00000000
 O      2   1   0     1.302467196723   117.30577031     0.00000000
 O      2   1   3     1.237867409474   119.47768257   184.25565632
 C      1   2   3     1.530945974037   113.90026877    61.24396442
 N      5   1   2     1.483621867784   112.78606178   294.62946136
 H      1   2   3     1.095665070387   109.36713201   298.43542530
 H      1   2   3     1.091085307230   108.78900011   181.02055119
 H      5   1   2     1.090739344125   108.96902678   174.94778874
 H      5   1   2     1.090649601921   110.34603499    56.20752958
 H      6   5   1     1.020781212831   110.87527367   304.24592901
 H      6   5   1     1.023019515188   111.27975375    65.47689695
 H      6   5   1     1.021745583478   110.01255990   184.79322366

---------------------------
INTERNAL COORDINATES (A.U.)
---------------------------
 C      0   0   0     0.000000000000     0.00000000     0.00000000
 C      1   0   0     2.866623114201     0.00000000     0.00000000
 O      2   1   0     2.461306300222   117.30577031     0.00000000
 O      2   1   3     2.339230394012   119.47768257   184.25565632
 C      1   2   3     2.893068616760   113.90026877    61.24396442
[...]
      pz      :     0.018132  p :     0.050409
      px      :     0.018071
      py      :     0.014206

 12 H s       :     0.653381  s :     0.653381
      pz      :     0.007293  p :     0.033757
      px      :     0.018313
      py      :     0.008150



                     *******************************
                     * LOEWDIN POPULATION ANALYSIS *
                     *******************************

----------------------
LOEWDIN ATOMIC CHARGES
----------------------
   0 C :   -0.247237
   1 C :   -0.648472
   2 O :   -0.119261
   3 O :   -0.094822
   4 C :   -0.243199
   5 N :    0.152385
   6 H :    0.153308
   7 H :    0.150167
   8 H :    0.140984
   9 H :    0.145871
  10 H :    0.210453
  11 H :    0.190869
  12 H :    0.208954

-------------------------------
LOEWDIN REDUCED ORBITAL CHARGES
-------------------------------
  0 C s       :     2.792743  s :     2.792743
      pz      :     1.025478  p :     3.069282
      px      :     1.009268
      py      :     1.034536
      dz2     :     0.052271  d :     0.349413
      dxz     :     0.102391
      dyz     :     0.060591
      dx2y2   :     0.082515
      dxy     :     0.051645
      f0      :     0.004287  f :     0.035799
      f+1     :     0.005961
      f-1     :     0.003976
      f+2     :     0.005503
      f-2     :     0.005049
      f+3     :     0.004170
      f-3     :     0.006852

  1 C s       :     2.778684  s :     2.778684
      pz      :     0.905875  p :     2.711101
      px      :     0.974879
      py      :     0.830346
      dz2     :     0.163392  d :     1.001533
      dxz     :     0.277750
      dyz     :     0.097642
      dx2y2   :     0.225414
      dxy     :     0.237335
      f0      :     0.020284  f :     0.157153
      f+1     :     0.030594
      f-1     :     0.008184
      f+2     :     0.023915
      f-2     :     0.023178
      f+3     :     0.030068
      f-3     :     0.020931

  2 O s       :     3.430143  s :     3.430143
      pz      :     1.556332  p :     4.623699
      px      :     1.519793
      py      :     1.547574
      dz2     :     0.009859  d :     0.060425
      dxz     :     0.018952
      dyz     :     0.008252
      dx2y2   :     0.011974
      dxy     :     0.011387
      f0      :     0.000496  f :     0.004994
      f+1     :     0.001042
      f-1     :     0.000229
      f+2     :     0.001047
      f-2     :     0.000948
      f+3     :     0.000603
      f-3     :     0.000630

  3 O s       :     3.424386  s :     3.424386
      pz      :     1.597211  p :     4.604570
      px      :     1.505436
      py      :     1.501924
      dz2     :     0.007546  d :     0.060452
      dxz     :     0.015751
      dyz     :     0.001372
      dx2y2   :     0.020170
      dxy     :     0.015614
      f0      :     0.000595  f :     0.005414
      f+1     :     0.000959
      f-1     :     0.000114
      f+2     :     0.000783
      f-2     :     0.000259
      f+3     :     0.001393
      f-3     :     0.001312

  4 C s       :     2.800304  s :     2.800304
      pz      :     0.939098  p :     2.967563
      px      :     0.960654
      py      :     1.067812
      dz2     :     0.065573  d :     0.425290
      dxz     :     0.117865
      dyz     :     0.084889
      dx2y2   :     0.094690
      dxy     :     0.062274
      f0      :     0.007388  f :     0.050042
      f+1     :     0.013293
      f-1     :     0.002741
      f+2     :     0.007227
      f-2     :     0.007518
      f+3     :     0.004403
      f-3     :     0.007472

  5 N s       :     2.989065  s :     2.989065
      pz      :     1.263937  p :     3.698671
      px      :     1.203360
      py      :     1.231374
      dz2     :     0.032225  d :     0.150045
      dxz     :     0.030011
      dyz     :     0.032881
      dx2y2   :     0.035107
      dxy     :     0.019822
      f0      :     0.001710  f :     0.009833
      f+1     :     0.001502
      f-1     :     0.001212
      f+2     :     0.001095
      f-2     :     0.002086
      f+3     :     0.000673
      f-3     :     0.001556

  6 H s       :     0.786274  s :     0.786274
      pz      :     0.015622  p :     0.060418
      px      :     0.012917
      py      :     0.031880

  7 H s       :     0.789783  s :     0.789783
      pz      :     0.024541  p :     0.060050
      px      :     0.021717
      py      :     0.013793

  8 H s       :     0.797960  s :     0.797960
      pz      :     0.024088  p :     0.061056
      px      :     0.012301
      py      :     0.024667

  9 H s       :     0.793524  s :     0.793524
      pz      :     0.014724  p :     0.060605
      px      :     0.011550
      py      :     0.034330

 10 H s       :     0.687046  s :     0.687046
      pz      :     0.024030  p :     0.102501
      px      :     0.018492
      py      :     0.059978

 11 H s       :     0.655895  s :     0.655895
      pz      :     0.056336  p :     0.153236
      px      :     0.052932
      py      :     0.043968

 12 H s       :     0.687924  s :     0.687924
      pz      :     0.023487  p :     0.103122
      px      :     0.054819
      py      :     0.024816



                      *****************************
                      * MAYER POPULATION ANALYSIS *
                      *****************************

  NA   - Mulliken gross atomic population
  ZA   - Total nuclear charge
  QA   - Mulliken gross atomic charge
  VA   - Mayer's total valence
  BVA  - Mayer's bonded valence
  FA   - Mayer's free valence

  ATOM       NA         ZA         QA         VA         BVA        FA
  0 C      6.2510     6.0000    -0.2510     3.7124     3.7124     0.0000
  1 C      5.7291     6.0000     0.2709     4.4887     4.4887     0.0000
  2 O      8.5685     8.0000    -0.5685     1.7979     1.7979    -0.0000
  3 O      8.5300     8.0000    -0.5300     1.9114     1.9114    -0.0000
  4 C      6.1237     6.0000    -0.1237     3.8153     3.8153    -0.0000
  5 N      7.2819     7.0000    -0.2819     3.4086     3.4086    -0.0000
  6 H      0.8729     1.0000     0.1271     0.9745     0.9745     0.0000
  7 H      0.8808     1.0000     0.1192     0.9943     0.9943     0.0000
  8 H      0.8461     1.0000     0.1539     0.9631     0.9631    -0.0000
  9 H      0.8467     1.0000     0.1533     0.9629     0.9629    -0.0000
 10 H      0.6925     1.0000     0.3075     0.9070     0.9070     0.0000
 11 H      0.6896     1.0000     0.3104     0.9708     0.9708    -0.0000
 12 H      0.6871     1.0000     0.3129     0.9012     0.9012    -0.0000

  Mayer bond orders larger than 0.100000
B(  0-C ,  1-C ) :   0.9534 B(  0-C ,  4-C ) :   0.9548 B(  0-C ,  6-H ) :   0.9395 
B(  0-C ,  7-H ) :   0.9568 B(  1-C ,  2-O ) :   1.6103 B(  1-C ,  3-O ) :   1.8888 
B(  2-O , 11-H ) :   0.1951 B(  4-C ,  5-N ) :   0.8981 B(  4-C ,  8-H ) :   0.9621 
B(  4-C ,  9-H ) :   0.9638 B(  5-N , 10-H ) :   0.8865 B(  5-N , 11-H ) :   0.7600 
B(  5-N , 12-H ) :   0.8847 

-------
TIMINGS
-------

Total SCF time: 0 days 0 hours 0 min 4 sec 

Total time                  ....       4.497 sec
Sum of individual times     ....       4.480 sec  ( 99.6%)

SCF preparation             ....       0.322 sec  (  7.2%)
Fock matrix formation       ....       4.039 sec  ( 89.8%)
  Startup                   ....       0.003 sec  (  0.1% of F)
  Split-RI-J                ....       0.187 sec  (  4.6% of F)
  Chain of spheres X        ....       3.110 sec  ( 77.0% of F)
  XC integration            ....       0.456 sec  ( 11.3% of F)
    Basis function eval.    ....       0.131 sec  ( 28.7% of XC)
    Density eval.           ....       0.105 sec  ( 23.1% of XC)
    XC-Functional eval.     ....       0.023 sec  (  5.0% of XC)
    XC-Potential eval.      ....       0.165 sec  ( 36.2% of XC)
  CPCM terms                ....       0.273 sec  (  6.8% of F)
Diagonalization             ....       0.000 sec  (  0.0%)
Density matrix formation    ....       0.006 sec  (  0.1%)
Total Energy calculation    ....       0.006 sec  (  0.1%)
Population analysis         ....       0.052 sec  (  1.1%)
Orbital Transformation      ....       0.010 sec  (  0.2%)
Orbital Orthonormalization  ....       0.000 sec  (  0.0%)
DIIS solution               ....       0.013 sec  (  0.3%)
SOSCF solution              ....       0.032 sec  (  0.7%)
Finished LeanSCF after   4.6 sec

Maximum memory used throughout the entire LEANSCF-calculation: 24.6 MB
[ga00:444798] 5 more processes have sent help message help-mpi-btl-openib.txt / error in device init
[ga00:444798] Set MCA parameter "orte_base_help_aggregate" to 0 to see all help / error messages


-------------------------------------------------------------------------------
                          DFT DISPERSION CORRECTION                            
                                                                               
                                DFTD4 V3.4.0                                   
-------------------------------------------------------------------------------
The B3LYP functional is recognized
Active option DFTDOPT                   ...         5   

-------------------------   ----------------
Dispersion correction           -0.014542002
-------------------------   ----------------


-------------------------   --------------------
FINAL SINGLE POINT ENERGY      -323.747191993048
-------------------------   --------------------

                                *** OPTIMIZATION RUN DONE ***

--------------------------------------------------------------------------
WARNING: There was an error initializing an OpenFabrics device.

  Local host:   ga00
  Local device: mlx5_0
--------------------------------------------------------------------------


           ************************************************************
           *        Program running with 6 parallel MPI-processes     *
           *              working on a common directory               *
           ************************************************************

------------------------------------------------------------------------------
                              ORCA PROPERTY CALCULATIONS
------------------------------------------------------------------------------

GBWName                                 ... 02_Alanine_zwitterion.gbw
Number of atoms                         ...     13
Number of basis functions               ...    228
Max core memory                         ...   5000 MB

Electric properties:
Dipole moment                           ... YES
Quadrupole moment                       ...  NO
Static polarizability (Dipole/Dipole)   ...  NO
Static polarizability (Dipole/Quad.)    ...  NO
Static polarizability (Quad./Quad.)     ...  NO
Static polarizability (Velocity)        ...  NO

Atomic electric properties:
Dipole moment                           ...  NO
Quadrupole moment                       ...  NO
Static polarizability                   ...  NO

Choice of electric origin               ... Center of mass
Position of electric origin             ...     0.925266    -0.285608    -2.973390

General magnetic properties:
Magnetizability                         ...  NO

EPR properties:
g-Tensor (aka g-matrix)                 ...  NO
Zero-Field splitting spin-orbit         ...  NO
Zero-field splitting spin-spin          ...  NO
Hyperfine couplings                     ...  NO (   0 nuclei)
Quadrupole couplings                    ...  NO (   0 nuclei)
Contact density                         ...  NO (   0 nuclei)

NMR properties:
Chemical shifts                         ...  NO (   0 nuclei)
Spin-rotation constants                 ...  NO (   0 nuclei)
Spin-spin couplings                     ...  NO (   0 nuclei,    0 pairs)

Choice of magnetic origin               ... GIAO
Position of magnetic origin             ...     0.000000     0.000000     0.000000

Properties with geometric perturbations:
SCF Hessian                             ...  NO
IR spectrum                             ...  NO
VCD spectrum                            ...  NO
X-ray spectroscopy properties:
SCF XES/XAS/RIXS spectra                ...  NO


-------------
DIPOLE MOMENT
-------------

Method             : SCF
Type of density    : Electron Density
Multiplicity       :   1
Irrep              :   0
Energy             :  -323.7326499914873921 Eh
Relativity type    : 
Basis              : AO
                                X                 Y                 Z
Electronic contribution:     -1.823218761      -1.737820487       2.677625666
Nuclear contribution   :      6.451700534       4.182608464      -5.092807329
                        -----------------------------------------
Total Dipole Moment    :      4.628481774       2.444787978      -2.415181663
                        -----------------------------------------
Magnitude (a.u.)       :      5.764801319
Magnitude (Debye)      :     14.652960463



--------------------
Rotational spectrum 
--------------------
 
Rotational constants in cm-1:             0.242058             0.085141             0.067025 
Rotational constants in MHz :          7256.716133          2552.457750          2009.361482 

Dipole components along the rotational axes: 
x,y,z [a.u.] :    -5.712056    -0.648431    -0.429980 
x,y,z [Debye]:   -14.518894    -1.648182    -1.092922 

 

Dipole moment calculation done in   0.0 sec 

Maximum memory used throughout the entire PROP-calculation: 13.7 MB
[ga00:444887] 5 more processes have sent help message help-mpi-btl-openib.txt / error in device init
[ga00:444887] Set MCA parameter "orte_base_help_aggregate" to 0 to see all help / error messages
--------------------------------------------------------------------------
WARNING: There was an error initializing an OpenFabrics device.

  Local host:   ga00
  Local device: mlx5_0
--------------------------------------------------------------------------
[ga00:444942] 5 more processes have sent help message help-mpi-btl-openib.txt / error in device init
[ga00:444942] Set MCA parameter "orte_base_help_aggregate" to 0 to see all help / error messages

--------------------------------
SUGGESTED CITATIONS FOR THIS RUN
--------------------------------

Below you find a list of papers that are relevant to this ORCA run
We neither can nor want to force you to cite these papers, but we appreciate if you do
You receive ORCA, which is the product of decades of hard work by many enthusiastic individuals, for free
The only thing we kindly ask in return is that you cite our papers,
We deeply appreciate it, if you show your appreciation for ORCA by not just citing the generic ORCA reference.

Please note that relegating all ORCA citations to the supporting information does *not* help us.
SI sections are not indexed - citations you put there will not count into any citation statistics
But we need these citations in order to attract the funding resources that allow us to do what we are doing

Therefore, if you are a happy ORCA user, please consider citing a few of the papers listed below in the main body of your paper

In addition to the list printed below, the program has created the file 02_Alanine_zwitterion.bibtex that contains the list in bibtex format
You can import this file easily into all common literature databanks and citation aid programs


List of essential papers. We consider these as the minimum necessary citations

  1. Neese,F.
     Software update: the ORCA program system, version 5.0
     WIRES Comput. Molec. Sci., 2022 12(1)e1606
     doi.org/10.1002/wcms.1606

List of papers to cite with high priority. The work reported in these papers was absolutely
necessary for this run to complete.
Our perspective: the developers of density functionals and basis sets usually get cited in chemistry papers
Good! But without the algorithms to do something with them, the functionals or basis sets would not do anything.
Hence, in our opinion, the algorithm design and method developments papers are equally worthy of getting cited

  1. Neese,F.
     An improvement of the resolution of the identity approximation for the formation of the Coulomb matrix
     J. Comp. Chem., 2003 24(14)1740-1747
     doi.org/10.1002/jcc.10318
  2. Neese,F.; Wennmohs,F.; Hansen,A.; Becker,U.
     Efficient, approximate and parallel Hartree-Fock and hybrid DFT calculations. A 'chain-of-spheres' algorithm for the Hartree-Fock exchange
     Chem. Phys., 2009 356(1-3)98-109
     doi.org/10.1016/j.chemphys.2008.10.036
  3. Garcia-Rates,M.; Neese,F.
     Effect of the Solute Cavity on the Solvation Energy and its Derivatives within the Framework of the Gaussian Charge Scheme
     J. Comput. Chem., 2020 41 922-939
     doi.org/10.1002/jcc.26139
  4. Helmich-Paris,B.; de Souza,B.; Neese,F.; Izsák,R.
     An improved chain of spheres for exchange algorithm
     J. Chem. Phys., 2021 155 104109
     doi.org/doi: 10.1063/5.0058766.
  5. Neese,F.
     The SHARK Integral Generation and Digestion System
     J. Comp. Chem., 2022  1-16
     doi.org/10.1002/jcc.26942
  6. Caldeweyher,E.; Bannwarth,C.; Grimme,S.
     Extension of the D3 dispersion coefficient model
     J. Chem. Phys., 2017 147 034112
     doi.org/10.1063/1.4993215
  7. Caldeweyher,E.; Ehlert,S.; Hansen,A.; Neugebauer,H.; Spicher,S.; Bannwarth,C.; Grimme,S.
     A generally applicable atomic-charge dependent London dispersion correction
     J. Chem. Phys., 2019 150 154122
     doi.org/10.1063/1.5090222
  8. Caldeweyher,E.; Mewes,J.; Ehlert,S.; Grimme,S.
     Extension and evaluation of the D4 London-dispersion model for periodic systems
     Phys. Chem. Chem. Phys., 2020 22(16)8499-8512
     doi.org/10.1039/D0CP00502A
  9. Wittmann,L.; Gordiy,I.; Friede,M.; Helmich-Paris,B.; Grimme,S.; Hansen,A.; Bursch,M.
     Extension of the D3 and D4 London Dispersion Corrections to the full Actinides Series
     Phys. Chem. Chem. Phys., 2024 26(32)21379-21394
     doi.org/https://doi.org/10.1039/D4CP01514B 

List of suggested additional citations. These are papers that are important in the 'surrounding' of 
of this run, or papers that preceded the highly important papers. If you like your results we are grateful for a citation.

  1. Izsak,R.; Neese,F.
     An overlap fitted chain of spheres exchange method
     J. Chem. Phys., 2011 135 144105
     doi.org/10.1063/1.3646921
  2. Izsak,R.; Hansen,A.; Neese,F.
     The resolution of identity and chain of spheres approximations for the LPNO-CCSD singles Fock term
     Molec. Phys., 2012 110 2413-2417
     doi.org/10.1080/00268976.2012.687466
  3. Neese,F.
     The ORCA program system
     WIRES Comput. Molec. Sci., 2012 2(1)73-78
     doi.org/10.1002/wcms.81
  4. Izsak,R.; Neese,F.; Klopper,W.
     Robust fitting techniques in the chain of spheres approximation to the Fock exchange: The role of the complementary space
     J. Chem. Phys., 2013 139 
     doi.org/10.1063/1.4819264
  5. Neese,F.
     Software update: the ORCA program system, version 4.0
     WIRES Comput. Molec. Sci., 2018 8(1)1-6
     doi.org/10.1002/wcms.1327
  6. Neese,F.; Wennmohs,F.; Becker,U.; Riplinger,C.
     The ORCA quantum chemistry program package
     J. Chem. Phys., 2020 152 Art. No. L224108
     doi.org/10.1063/5.0004608

List of optional additional citations

  1. Neese,F.
     Approximate second-order SCF convergence for spin unrestricted wavefunctions
     Chem. Phys. Lett., 2000 325(1-3)93-98
     doi.org/10.1016/s0009-2614(00)00662-x

Timings for individual modules:

Sum of individual times          ...      306.098 sec (=   5.102 min)
Startup calculation              ...       18.738 sec (=   0.312 min)   6.1 %
SCF iterations                   ...      168.532 sec (=   2.809 min)  55.1 %
Property calculations            ...        0.423 sec (=   0.007 min)   0.1 %
SCF Gradient evaluation          ...      118.314 sec (=   1.972 min)  38.7 %
Geometry relaxation              ...        0.091 sec (=   0.002 min)   0.0 %
                             ****ORCA TERMINATED NORMALLY****
TOTAL RUN TIME: 0 days 0 hours 5 minutes 14 seconds 531 msec
