34
 energy: -56.704770088945 gnorm: 0.001658239024 xtb: 6.7.1 (edcfbbe)
C           -0.46779813403196       -1.22227841451598       -0.68316155010286
C           -1.74191968789950       -1.22103581538788        0.21563092337397
O           -2.29117097662310       -2.32944319948941        0.39415783369047
O           -2.10038817852438       -0.13207557393434        0.70899881695585
C           -0.24082871820258        0.11918119815823       -1.35660063876592
N            1.12378756284962        0.23122790247852       -1.90662971688596
H            0.35164937689153       -1.46454792078162       -0.00240041012906
H           -0.58250895189033       -2.03648160843818       -1.39643380331641
H           -0.95470605771507        0.23729714574843       -2.16997270316417
H           -0.42686923974235        0.89924621767797       -0.61620950904380
H            1.27522150007605       -0.50006165273392       -2.64924441232123
H            1.81952665143395        0.11410809132009       -1.17020852258670
H            1.26487542692806        1.15374398605027       -2.37991401779172
O            1.46162619154249       -1.36820057936764       -4.07390588952457
H            1.59646693793222       -2.32825343847085       -4.05596540535030
H            0.55822727653932       -1.20498389091049       -4.40168202517216
O           -1.08440864066257       -0.47742513023412       -4.59746100578415
H           -1.03262969023789        0.49844743173738       -4.66232955790458
H           -1.95362178323540       -0.73389022841045       -4.91237038651627
O            1.68913777369521        2.38676028896759       -3.50189267139865
H            2.15192118342482        3.19301789103676       -3.26187780753636
H            2.31086005666275        1.83720796641242       -4.03503556023670
O           -1.70592676718098        4.64771882182690       -3.65778445702117
H           -1.51508598892037        3.75644841516843       -4.00671307047267
H           -2.05450354936607        4.51787494454013       -2.77178066736762
O           -0.72148235125160        2.25304059509049       -4.76525214619443
H           -0.56553096354827        2.53056952398688       -5.67318523291820
H            0.14306872331389        2.33355901143463       -4.30515613159490
O            2.04684998923186       -4.10660756925930       -3.95670813312613
H            2.93641635620921       -4.40266706554830       -4.17425520229287
H            1.68033777770998       -4.73511639180042       -3.32801535230426
O            3.19322400012559        0.62386920873033       -4.85387821252336
H            2.66866779633964       -0.16648565943192       -4.61493604582627
H            3.31298909806033        0.59249049829072       -5.80605532888336
