34
 energy: -56.545046162017 gnorm: 0.187226983056 xtb: 6.7.1 (edcfbbe)
C            0.00071700000000       -0.52255800000000        0.67804400000000
C            0.00015500000000        0.09392700000000        2.05036800000000
O           -0.00019500000000       -0.63013100000000        3.03226200000000
O           -0.00079700000000        1.43155900000000        2.21643300000000
C            0.00098900000000        0.52531100000000       -0.44326000000000
N           -0.00030100000000       -0.11659100000000       -1.75665200000000
H            0.90259300000000       -1.16292800000000        0.57888800000000
H           -0.90264000000000       -1.16023800000000        0.57901700000000
H           -0.90200200000000        1.16741300000000       -0.35103700000000
H            0.90366600000000        1.16894900000000       -0.35172000000000
H           -0.85706900000000       -0.70553200000000       -1.86752300000000
H            0.85322800000000       -0.71006900000000       -1.86779500000000
H            0.00165600000000        0.62088700000000       -2.49702600000000
O           -0.27673900000000       -1.11015900000000       -4.69575100000000
H            0.03078700000000       -1.89217500000000       -4.17183300000000
H           -0.87224200000000       -0.61613600000000       -4.07774500000000
O           -2.05976900000000       -0.42526700000000       -5.92716300000000
H           -1.63481400000000        0.46473600000000       -5.83816600000000
H           -2.74704000000000       -0.44442300000000       -5.21449000000000
O            2.57519000000000        1.44817500000000       -4.59499500000000
H            2.51902800000000        2.42015300000000       -4.41412300000000
H            3.47304800000000        1.18667900000000       -4.26929000000000
O           -0.84395500000000        3.13628300000000       -4.34546600000000
H           -1.34040400000000        2.42907900000000       -4.82921400000000
H           -0.50089600000000        2.68678500000000       -3.53252400000000
O            0.37493900000000        1.36141700000000       -5.70227700000000
H            0.73922300000000        2.28217100000000       -5.71326300000000
H            0.40578000000000        1.09375700000000       -4.74937600000000
O            2.28324200000000       -3.02715500000000       -5.03000200000000
H            1.53036100000000       -2.68415200000000       -5.57418000000000
H            2.00327500000000       -2.87138300000000       -4.09300300000000
O            2.48673800000000       -0.70851200000000       -5.45131800000000
H            2.43398900000000       -0.74534800000000       -4.46315200000000
H            1.56573300000000       -0.48826900000000       -5.74089600000000
34
 energy: -56.584502992698 gnorm: 0.101338798594 xtb: 6.7.1 (edcfbbe)
C            0.00001927794622       -0.50740248888950        0.66822344461127
C           -0.00010457718523        0.10514559398027        2.06141225390528
O           -0.00028102895855       -0.64290000904322        3.04797842669261
O           -0.00105119625367        1.39421962536263        2.17183472820889
C            0.00065443790580        0.53619987586398       -0.44381041559606
N           -0.00017904810589       -0.11583876853424       -1.76477085147872
H            0.88768752282915       -1.15183429690438        0.59685247754015
H           -0.88897422977612       -1.14994117106117        0.59723616690305
H           -0.88634780482308        1.17092526831968       -0.33696392781809
H            0.88725468617175        1.17158064686875       -0.33806111962665
H           -0.84434727076103       -0.70429764749582       -1.86543075255319
H            0.84066311425924       -0.70632256000513       -1.86870722668434
H            0.00753781965256        0.60399173201293       -2.50411614001597
O           -0.20262699980578       -1.11831638261776       -4.62928397347333
H            0.02628286110142       -1.92826846791700       -4.14320085305805
H           -0.87089479480986       -0.66454947867631       -4.07911512094882
O           -2.14282753946230       -0.38863582529921       -5.98159068706437
H           -1.63529826331046        0.44238509339618       -5.87018801545731
H           -2.76652499896887       -0.41992140086234       -5.23367336059706
O            2.59104887017719        1.49989112392970       -4.50329252093696
H            2.57221451117280        2.46468015158858       -4.39376762742620
H            3.49928230404839        1.22223979054981       -4.28468468741960
O           -0.89037904644511        3.16769282966017       -4.30149090508850
H           -1.33146022733273        2.46717395264211       -4.82027270131889
H           -0.52097328297718        2.71321323603266       -3.52490199370358
O            0.31408280149846        1.36361124562238       -5.72171259174003
H            0.72826050174697        2.24477718748745       -5.74759944559348
H            0.44527092228271        1.07583971458210       -4.79386882039677
O            2.24014685926592       -3.15433688964416       -5.01407869970731
H            1.56063090714828       -2.70518616554360       -5.56510265500833
H            2.01247672523445       -2.89452945074741       -4.09880766618430
O            2.48801326014584       -0.69563342990884       -5.48153653566085
H            2.44543885700084       -0.73839688155470       -4.51029869576552
H            1.58077806938785       -0.46100075319452       -5.75143750753881
34
 energy: -56.604430235227 gnorm: 0.052119632721 xtb: 6.7.1 (edcfbbe)
C           -0.00070098192169       -0.50451204673872        0.65909337316773
C           -0.00095849703875        0.12697274609934        2.07263330510843
O           -0.00048332315560       -0.66111194626383        3.04596847894550
O           -0.00114411141819        1.36121201614414        2.14294526943795
C            0.00076628792057        0.54410070679933       -0.43642616234551
N            0.00115840069312       -0.11234609341201       -1.76754498056288
H            0.87996558559417       -1.14670718201495        0.61198588637319
H           -0.88265830114686       -1.14519884610072        0.61219041877735
H           -0.87731565952665        1.17257622015153       -0.32478578295172
H            0.87809127466931        1.17286944937383       -0.32523241920246
H           -0.83294498112279       -0.70120700628538       -1.85527532558623
H            0.83210467177535       -0.70203718184115       -1.86156723973661
H            0.01630765546783        0.59131784085178       -2.50930015081357
O           -0.13459539550819       -1.11197234668188       -4.55498765209566
H           -0.01118596225759       -1.97756335315383       -4.12972235090994
H           -0.90112210597856       -0.71557934947290       -4.09138934840320
O           -2.17105481993295       -0.38792899442054       -5.98588032531006
H           -1.62968781146334        0.41151920347503       -5.92377564800137
H           -2.80056735298195       -0.38308583820798       -5.26610478628553
O            2.59921760130376        1.55849005750474       -4.40005518293151
H            2.62541842368321        2.51897961888595       -4.36633657915810
H            3.51532003403831        1.25719656725086       -4.29401770109700
O           -0.92610073795504        3.20498182020942       -4.26163708945643
H           -1.32153397135789        2.51667627243539       -4.81548564117938
H           -0.55118636211850        2.75389445298172       -3.50361435680548
O            0.25292172101958        1.36129108494675       -5.73536435612164
H            0.71040685002186        2.20707528800164       -5.79420306015231
H            0.50251927313849        1.05088181810748       -4.83759461423300
O            2.22181799997093       -3.21478807026933       -5.00191424510043
H            1.58797869181663       -2.74107160623360       -5.56093826812012
H            2.01961440382340       -2.94074286562002       -4.10501016036344
O            2.48626853054800       -0.71108426094686       -5.52220751623399
H            2.45938043746010       -0.72901268060839       -4.56259441007682
H            1.59945653193984       -0.42783049494679       -5.78007937857549
34
 energy: -56.615341650495 gnorm: 0.075576694501 xtb: 6.7.1 (edcfbbe)
C           -0.00128826653357       -0.51774924387257        0.65921109424996
C           -0.00145785477145        0.14079298147806        2.08350016166608
O           -0.00244127027135       -0.66930338020009        3.04344375691583
O           -0.00249214140120        1.36939166429274        2.13173857621727
C            0.00178127705899        0.53909786119884       -0.42610209649299
N            0.00417376152821       -0.10997403425702       -1.76611178367449
H            0.88144336961028       -1.15399301508003        0.62405979395590
H           -0.88576829764906       -1.15179853819181        0.62336718794963
H           -0.87701483283315        1.16782913429385       -0.31444704031836
H            0.87932754757664        1.16842162543841       -0.31244401132459
H           -0.82804461992752       -0.70007064558194       -1.84665120405027
H            0.83301514088633       -0.70248540469926       -1.85327986980647
H            0.02565178771106        0.58577115863156       -2.51500232732140
O           -0.11157804720639       -1.13721248789869       -4.48787164690097
H           -0.03706326748535       -2.02530798893383       -4.10922687544690
H           -0.91091400246669       -0.75697719759050       -4.08987025742180
O           -2.21692884271146       -0.39434947552672       -6.00571143850177
H           -1.59577376976924        0.36165212355896       -5.98090044144398
H           -2.84776611298267       -0.31853248051241       -5.28599322190601
O            2.59365059283329        1.60951827620733       -4.28490078827414
H            2.68307779690846        2.58126551102630       -4.35371895634212
H            3.52556078138480        1.29035909090828       -4.30049561928116
O           -0.99167871770008        3.26536925215796       -4.20545683471533
H           -1.29122324084749        2.56569449437792       -4.82675521553633
H           -0.57036999192479        2.79891501110264       -3.47695810884734
O            0.20885498486361        1.34729986752261       -5.74898317262239
H            0.69704158566589        2.17259438729389       -5.85951156467778
H            0.53910017017591        1.03027244647707       -4.87901377856932
O            2.17528252088056       -3.34912433054511       -4.99174249758581
H            1.63000578930742       -2.74100110482854       -5.56671948245044
H            2.04479021290841       -2.95432825683627       -4.09989901497720
O            2.49317445843168       -0.71742575403228       -5.57153932282503
H            2.48220467739283       -0.71204446659360       -4.61128700646592
H            1.61914082135696       -0.38631208078571       -5.82295499317382
34
 energy: -56.622310267986 gnorm: 0.085263495408 xtb: 6.7.1 (edcfbbe)
C           -0.00217860108597       -0.53662916062414        0.66079513181707
C           -0.00301462412595        0.14711636401073        2.10008942846651
O           -0.00398619592894       -0.68284820084053        3.04434919251814
O           -0.00341554847976        1.38144134950249        2.12271978476353
C            0.00264449581026        0.52823447559418       -0.41496737507882
N            0.00722164519652       -0.10937461128811       -1.76514700162532
H            0.88332737564187       -1.16553716323058        0.63883298180097
H           -0.88989945961577       -1.16258896163890        0.63698352749495
H           -0.87735030867466        1.15870348579890       -0.30087803526824
H            0.88050115941718        1.16019863325138       -0.29617397766957
H           -0.82438911951680       -0.70075252371915       -1.83902277300028
H            0.83454887332648       -0.70629293033033       -1.84564860851273
H            0.03610890656077        0.57749173309170       -2.52377613718528
O           -0.05163541414827       -1.15207089010592       -4.38872505989542
H           -0.06493224925385       -2.08546730425817       -4.09086792191911
H           -0.94070939624886       -0.82275945628009       -4.10564052453741
O           -2.26298241273122       -0.39283569743207       -6.03761631591630
H           -1.58017070993818        0.31695499144479       -6.03778039738449
H           -2.90007757069295       -0.25230994060326       -5.32244360979498
O            2.66516305782193        1.70660281826508       -4.27460610733084
H            2.71763929718976        2.63859457871777       -4.28439282006405
H            3.51662815978619        1.33888257096630       -4.23285583647689
O           -1.03458159692558        3.32002662046765       -4.17554616716378
H           -1.27332357867381        2.62349752356729       -4.82623375538381
H           -0.59578323357509        2.86358499263167       -3.45072965232569
O            0.17428711397308        1.32976782672653       -5.74918765771287
H            0.66606027198118        2.14094717832851       -5.92091014608658
H            0.56037633539625        1.01035269322745       -4.91983228662531
O            2.17364609725863       -3.38975709394051       -4.97949784494626
H            1.65136817447452       -2.83560771700572       -5.56357106693861
H            2.05448370402790       -3.04218073188140       -4.09740466815024
O            2.49402307575900       -0.69521786924067       -5.63805259915839
H            2.50762400300103       -0.67946288956402       -4.67523786393989
H            1.62825227299284       -0.33444969360898       -5.87525183676923
34
 energy: -56.623674335902 gnorm: 0.102156368330 xtb: 6.7.1 (edcfbbe)
C           -0.00164016130586       -0.54082015437744        0.66720895995143
C           -0.00473653344518        0.14379784868238        2.11245654529830
O           -0.00476785204535       -0.68068279158452        3.05152409886587
O           -0.00278724690572        1.38877282488403        2.13083370082422
C            0.00535693833929        0.52129022592120       -0.41032530695145
N            0.01183733674879       -0.11103688415012       -1.76121202294644
H            0.88474354338414       -1.16890823357069        0.65026794892854
H           -0.89101236938482       -1.16454189503733        0.64609692144234
H           -0.87598931021973        1.15306285557384       -0.29459750546283
H            0.88372452855789        1.15520126294626       -0.28638966257899
H           -0.82254947112621       -0.70089270804707       -1.83689260922302
H            0.83904663572777       -0.71207735111495       -1.84098206737943
H            0.04409418096572        0.57191779499567       -2.52601844491991
O           -0.06999324430713       -1.21562258749582       -4.34414203649940
H           -0.03739546079607       -2.10619971528348       -4.06842944203790
H           -0.90382256679530       -0.84426844239565       -4.10441787978948
O           -2.27771814447861       -0.38993885334360       -6.05914989765191
H           -1.61378913041227        0.30434182986931       -6.06289049122975
H           -2.93279128937231       -0.21823642457325       -5.36727843933435
O            2.61893688746721        1.74635245024495       -4.13671312835135
H            2.78209375625477        2.70030442573371       -4.27191566284436
H            3.51934792640056        1.33829334950046       -4.29928201213335
O           -1.02155237443706        3.33819296825647       -4.19279011185189
H           -1.28393189946569        2.65796696287452       -4.79474844975569
H           -0.60964168698074        2.92539917846343       -3.43409323110444
O            0.13392873808518        1.32632352614612       -5.73650079876071
H            0.63174184549093        2.12474632088120       -5.97348040182873
H            0.59231383033123        1.00323746066856       -4.93742679233369
O            2.17867883420071       -3.39909575873088       -4.97236463621844
H            1.67424706432349       -2.89231693264255       -5.56364381672178
H            2.06258008246331       -3.10757319787649       -4.09780211480952
O            2.49255303736816       -0.67700105157676       -5.67852800720409
H            2.51114283835556       -0.65966142376524       -4.71429569274430
H            1.63322473701303       -0.31407188007636       -5.92030551264281
34
 energy: -56.628687434609 gnorm: 0.102771126248 xtb: 6.7.1 (edcfbbe)
C           -0.00063123201374       -0.53617180155856        0.67479942769367
C           -0.00502291382765        0.13181632481679        2.11687531128129
O           -0.00661226563807       -0.67479558713813        3.05882232224025
O           -0.00361085158495        1.37806080897425        2.15207623816651
C            0.00844867339673        0.51829027901082       -0.40944633496162
N            0.01696613660623       -0.11473559046502       -1.75444177191620
H            0.88427847246796       -1.16944520393737        0.65536065316083
H           -0.88966660224190       -1.16334558660220        0.64887186750243
H           -0.87368597455935        1.14907246512537       -0.29347331590543
H            0.88690285655554        1.15146222989742       -0.28189900611360
H           -0.82065572704778       -0.70118888396611       -1.83896796062456
H            0.84439103962609       -0.71732624438508       -1.83829246343714
H            0.04932985471621        0.56955378370877       -2.51922697610024
O           -0.01074691197886       -1.18766434107305       -4.29772482279359
H           -0.07595814411349       -2.15202235674158       -4.08708127938632
H           -0.94285160964922       -0.87502297545043       -4.13242196189067
O           -2.24410779426634       -0.40287538440149       -6.04551320572475
H           -1.63197003770115        0.30380785009302       -6.06988854329697
H           -2.93982946550012       -0.19468273028166       -5.40358135918929
O            2.61605869516643        1.76667464934107       -4.13313612002707
H            2.78329032176026        2.72139684474574       -4.25867414686284
H            3.50032171978377        1.34004126167881       -4.27233996310861
O           -1.04413389595677        3.35982360146113       -4.18636872543577
H           -1.25110481515201        2.65974902188077       -4.80113035772331
H           -0.61138609042065        2.96147010467780       -3.42765686864416
O            0.12404976311503        1.32430677156175       -5.72989329148002
H            0.60127734546957        2.12243532612091       -6.00136602325652
H            0.60552312129801        1.00470489276547       -4.94237977235500
O            2.12476181278690       -3.52308206015193       -4.96582873604999
H            1.72796120857251       -2.81172213105155       -5.58398930537722
H            2.08444230151315       -3.07150217293521       -4.08876450675838
O            2.49010176416876       -0.70251247800830       -5.69506879121872
H            2.50950019479784       -0.65213528287644       -4.73021770427305
H            1.63984304985070       -0.31618040483603       -5.94626050613324
34
 energy: -56.622398767833 gnorm: 0.136870864149 xtb: 6.7.1 (edcfbbe)
C           -0.00105776126562       -0.53513895848341        0.68126937105716
C           -0.00434278295046        0.11864419272179        2.11880410054755
O           -0.01055852170999       -0.68366874437737        3.06463098536012
O           -0.00716937409498        1.35495523573760        2.17104767068064
C            0.00962858686694        0.51743275616718       -0.40467498625250
N            0.01969027584886       -0.11887832598340       -1.74526744782909
H            0.88124600107560       -1.17336133020525        0.65791013167357
H           -0.88871242421445       -1.16577949291701        0.65008414531199
H           -0.87153356452098        1.14644289984665       -0.29020752781838
H            0.88717766977096        1.14808942283640       -0.27652416095081
H           -0.81797431840383       -0.70243516506354       -1.83905407819877
H            0.84492825388929       -0.72139720327806       -1.83421237155239
H            0.05250250358524        0.56675953256388       -2.50710065622837
O           -0.07770990385668       -1.24976804048043       -4.31911239166513
H           -0.05025173687842       -2.15172071254526       -4.08036427336152
H           -0.88910418696657       -0.85749324771847       -4.12343027958889
O           -2.29661128009334       -0.41336444709465       -6.05218116512565
H           -1.57794333207102        0.26310240586019       -6.09434950551949
H           -2.97003909375359       -0.13472119390295       -5.40055651307589
O            2.66680769020528        1.79053945387710       -4.21552778086612
H            2.75563658765042        2.72044656703271       -4.24271323082505
H            3.48433589887744        1.37555661256141       -4.19588753930835
O           -1.12479183016418        3.40654587078553       -4.13826169464199
H           -1.16695935014061        2.64318926856782       -4.85387518708166
H           -0.61210965071037        2.98647923485456       -3.42303640130106
O            0.12839203047797        1.32039027149913       -5.72603236072814
H            0.58335822927742        2.11957957811161       -6.00784542457690
H            0.60635187983442        1.01331053536958       -4.94062133243331
O            2.13357844016160       -3.52520584364083       -4.97234629701495
H            1.71952995724153       -2.83578943597930       -5.58202957407860
H            2.10331569402018       -3.07052341677535       -4.08531406600311
O            2.49154563171682       -0.69824810457205       -5.70690947959576
H            2.50019026622961       -0.64483720055740       -4.74549313274138
H            1.64412751506515       -0.31287797481877       -5.96904554626690
34
 energy: -56.629427115296 gnorm: 0.107613650793 xtb: 6.7.1 (edcfbbe)
C           -0.00213062040982       -0.53632900421327        0.68542186141966
C           -0.00584851953349        0.11887459928977        2.12141151504218
O           -0.01328647819970       -0.69009551254085        3.06925209906639
O           -0.00898180799698        1.35713777144204        2.17495092832061
C            0.00959515388860        0.51858334208605       -0.40007164501002
N            0.02037976627683       -0.11926167734857       -1.74050124727401
H            0.87994975009170       -1.17446922564437        0.66088366658499
H           -0.89009159187339       -1.16613937186038        0.65182695141976
H           -0.87128809900683        1.14827833006132       -0.28883498905190
H            0.88730076592983        1.14908403676353       -0.27366692080943
H           -0.81646155343166       -0.70219078888488       -1.83837742532961
H            0.84370927110271       -0.72275416921793       -1.83075878635481
H            0.05404625547775        0.56570829227737       -2.50236006148706
O           -0.00786202966485       -1.22063033672486       -4.28390106971137
H           -0.07892209252217       -2.17976207639237       -4.08308936469492
H           -0.94217860710905       -0.88621294042042       -4.16913392134883
O           -2.30016335570011       -0.41947573500459       -6.04781032173435
H           -1.55451053992786        0.25933554966227       -6.09992084674940
H           -2.97604652605282       -0.12460390508115       -5.40850550052646
O            2.63598779863685        1.79163266158323       -4.16062826497852
H            2.77983808180038        2.73563334637272       -4.25216439968356
H            3.48329673224417        1.37219262680706       -4.23122444685903
O           -1.06914466744758        3.39717412879162       -4.17127473654377
H           -1.20324937445447        2.66055009497712       -4.81960199569076
H           -0.62285812469219        3.01122333189599       -3.41096509634553
O            0.11601494812313        1.32288225710254       -5.72002451135215
H            0.57719746748232        2.11421381479225       -6.01729896328485
H            0.61412659822743        1.02010248611415       -4.94451663869317
O            2.18479369143379       -3.42345584951361       -4.97841067937215
H            1.69330537113975       -2.92346094061916       -5.56371395044263
H            2.09868507670897       -3.12523952980400       -4.09309195538205
O            2.49333620478664       -0.67420644533458       -5.71829331572193
H            2.49544859307875       -0.64214016108836       -4.75883298176048
H            1.64148646159286       -0.31592400032610       -5.98500098565991
34
 energy: -56.631664227579 gnorm: 0.118870661317 xtb: 6.7.1 (edcfbbe)
C           -0.00146618850268       -0.53948179063013        0.68932025396374
C           -0.01054319263739        0.11444001600884        2.12695286040765
O           -0.01165043418617       -0.69496099701591        3.07327894602160
O           -0.00592210510222        1.36298203740708        2.17742304878233
C            0.01172497306381        0.51665807278618       -0.39621361648601
N            0.02339592660181       -0.11869297317801       -1.73734638391023
H            0.88152425366575       -1.17594547098099        0.66489797812642
H           -0.89024468690632       -1.16720111343436        0.65371926271690
H           -0.86950728200456        1.14858182287591       -0.28559023003086
H            0.89004492064118        1.14888380482910       -0.26857136237993
H           -0.81483140941138       -0.70101217119970       -1.83781493136156
H            0.84630171309685       -0.72502914476133       -1.82719129049667
H            0.05899819178034        0.56583811749492       -2.50092015904633
O           -0.01953599476123       -1.25522303737375       -4.27113160106963
H           -0.06603558136947       -2.19067208396970       -4.08623421573880
H           -0.91066368760153       -0.89475444234733       -4.17222939517774
O           -2.25830070052484       -0.40742515558897       -6.04702119332485
H           -1.64525568074444        0.29762360515161       -6.07919135444119
H           -2.96928138822575       -0.15554426759352       -5.45713463996299
O            2.62163010502542        1.81038939742793       -4.13265503637103
H            2.78559777052862        2.74658126004716       -4.21964237891638
H            3.48130320520817        1.35915835659726       -4.25758209118907
O           -0.99356526522815        3.37461109410972       -4.23022835669293
H           -1.25538876054921        2.69209004222824       -4.76003029952914
H           -0.63716099504665        3.04847780690409       -3.40377270288370
O            0.08736137634515        1.32752251278756       -5.70379772236971
H            0.56613737119656        2.10572711861822       -6.03992725488305
H            0.62824551610682        1.02589221668017       -4.94582988910528
O            2.14682692911284       -3.50926760266287       -4.96120505087181
H            1.75944856287199       -2.84055075623581       -5.58696812146912
H            2.09576443783485       -3.11953395519562       -4.09213717187347
O            2.48629053942124       -0.70174066379390       -5.73405540187240
H            2.49010047181519       -0.63662225209823       -4.77105865308652
H            1.64413108848479       -0.31554440389433       -6.00833984547758
34
 energy: -56.636110158646 gnorm: 0.088646952471 xtb: 6.7.1 (edcfbbe)
C           -0.00245845511559       -0.54037200592756        0.69608602630901
C           -0.01158111406482        0.10433598764921        2.13085242844465
O           -0.01683139315386       -0.69924129570092        3.07902855910620
O           -0.01011484252476        1.35164960607357        2.18945627587946
C            0.01314374715062        0.51463570716100       -0.39090205259417
N            0.02653854452741       -0.11918603594275       -1.73094616152523
H            0.87935051202133       -1.17964239018240        0.66960884274445
H           -0.89109933357352       -1.16935101433496        0.65605327532023
H           -0.86754015266294        1.14675193287887       -0.27958257372455
H            0.89158984478007        1.14567146724553       -0.25989333221967
H           -0.81300153615435       -0.69919178091047       -1.83846335275323
H            0.84836310787293       -0.72719521487055       -1.82242632912342
H            0.06444774960672        0.56747474873666       -2.49268507927974
O            0.00275057547059       -1.25121395608876       -4.25470277554267
H           -0.08147328204866       -2.21476573799580       -4.10365081204195
H           -0.90763206749209       -0.91099439148388       -4.18449332927861
O           -2.24585502587215       -0.42711077006032       -6.02736726327336
H           -1.63191200234612        0.28231966714501       -6.09861158842911
H           -2.99056553063118       -0.11398765157995       -5.47608711923095
O            2.59152399467225        1.81475633634864       -4.08740513950799
H            2.79558206246261        2.76746282522788       -4.23951887701288
H            3.46811693831918        1.37006495246294       -4.26436045099827
O           -1.08260893127126        3.42588351721468       -4.17688797142891
H           -1.15184676084040        2.64942732485787       -4.81172480111144
H           -0.63444513637767        3.09082931918675       -3.39355993924809
O            0.10930032099837        1.31946159908381       -5.71278195528580
H            0.54463257640170        2.10570008122606       -6.05432407505013
H            0.61216608658215        1.03676215699978       -4.95774882759139
O            2.14366234959102       -3.53637299522669       -4.96899005348553
H            1.75151444358158       -2.86459370018111       -5.58110478217719
H            2.13646789356403       -3.10037631223456       -4.08996187158785
O            2.48298855264334       -0.69550264908266       -5.74401725306709
H            2.48106731323567       -0.63031826744963       -4.78183987630275
H            1.64123295064723       -0.31751606024580       -6.02527576493131
34