
                                 *****************
                                 * O   R   C   A *
                                 *****************

                                            #,                                       
                                            ###                                      
                                            ####                                     
                                            #####                                    
                                            ######                                   
                                           ########,                                 
                                     ,,################,,,,,                         
                               ,,#################################,,                 
                          ,,##########################################,,             
                       ,#########################################, ''#####,          
                    ,#############################################,,   '####,        
                  ,##################################################,,,,####,       
                ,###########''''           ''''###############################       
              ,#####''   ,,,,##########,,,,          '''####'''          '####       
            ,##' ,,,,###########################,,,                        '##       
           ' ,,###''''                  '''############,,,                           
         ,,##''                                '''############,,,,        ,,,,,,###''
      ,#''                                            '''#######################'''  
     '                                                          ''''####''''         
             ,#######,   #######,   ,#######,      ##                                
            ,#'     '#,  ##    ##  ,#'     '#,    #''#        ,####,   ,####,        
            ##       ##  ##   ,#'  ##            #'  '#       #'       #'  '#        
            ##       ##  #######   ##           ,######,      #####,   #    #        
            '#,     ,#'  ##    ##  '#,     ,#' ,#      #,     #,   #   #,  ,#        
             '#######'   ##     ##  '#######'  #'      '#     '####' # '####'        



                #########################################################
                #                        -***-                          #
                #          Department of theory and spectroscopy        #
                #                                                       #
                #                      Frank Neese                      #
                #                                                       #
                #     Directorship, Architecture, Infrastructure        #
                #                    SHARK, DRIVERS                     #
                #        Core code/Algorithms in most modules           #
                #                                                       #
                #        Max Planck Institute fuer Kohlenforschung      #
                #                Kaiser Wilhelm Platz 1                 #
                #                 D-45470 Muelheim/Ruhr                 #
                #                      Germany                          #
                #                                                       #
                #                  All rights reserved                  #
                #                        -***-                          #
                #########################################################


                         Program Version 6.0.1  -  RELEASE   -


 With contributions from (in alphabetic order):
[Max-Planck-Institut fuer Kohlenforschung]                               
  Daniel Aravena         : Magnetic Suceptibility                        
  Michael Atanasov       : Ab Initio Ligand Field Theory (pilot matlab implementation)
  Alexander A. Auer      : GIAO ZORA, VPT2 properties, NMR spectrum      
  Ute Becker             : All parallelization in ORCA, NUMFREQ, NUMCALC 
  Giovanni Bistoni       : ED, misc. LED, open-shell LED, HFLD           
  Martin Brehm           : Molecular dynamics                            
  Dmytro Bykov           : pre 5.0 version of the SCF Hessian            
  Marcos Casanova-Páez   : Triplet and SCS-CIS(D). UHF-(DLPNO)-IP/EA/STEOM-CCSD. UHF-CVS-IP/STEOM-CCSD   
  Vijay G. Chilkuri      : MRCI spin determinant printing, contributions to CSF-ICE 
  Pauline Colinet        : FMM embedding                                 
  Dipayan Datta          : RHF DLPNO-CCSD density                        
  Achintya Kumar Dutta   : EOM-CC, STEOM-CC                              
  Nicolas Foglia         : Exact transition moments, OPA infrastructure, MCD improvements    
  Dmitry Ganyushin       : Spin-Orbit,Spin-Spin,Magnetic field MRCI      
  Miquel Garcia-Rates    : C-PCM and meta-GGA Hessian, CCSD/C-PCM, Gaussian charge scheme 
  Tiago L. C. Gouveia    : GS-ROHF, GS-ROCIS                             
  Yang Guo               : DLPNO-NEVPT2, F12-NEVPT2, CIM, IAO-localization        
  Andreas Hansen         : Spin unrestricted coupled pair/coupled cluster methods 
  Ingolf Harden          : AUTO-CI MPn and infrastructure                
  Benjamin Helmich-Paris : MC-RPA, TRAH-(SCF,CASSCF), AVAS, COSX integrals, SCF dyn. polar. 
  Lee Huntington         : MR-EOM, pCC                                   
  Robert Izsak           : Overlap fitted RIJCOSX, COSX-SCS-MP3, EOM     
  Riya Kayal             : Wick's Theorem for AUTO-CI, AUTO-CI UHF-CCSDT 
  Emily Kempfer          : AUTO-CI, RHF CISDT and CCSDT                  
  Christian Kollmar      : KDIIS, OOCD, Brueckner-CCSD(T), CCSD density, CASPT2, CASPT2-K, improved NEVPT2 
  Axel Koslowski         : Symmetry handling                             
  Simone Kossmann        : meta-GGA functionals, TD-DFT gradient, OOMP2, (MP2 Hessian; deprecated post 5.0) 
  Lucas Lang             : DCDCAS                                        
  Marvin Lechner         : AUTO-CI (C++ implementation), FIC-MRCC        
  Spencer Leger          : CASSCF response                               
  Dagmar Lenk            : GEPOL surface, SMD, ORCA-2-JSON               
  Dimitrios Liakos       : Extrapolation schemes; Compound Job, initial MDCI parallelization 
  Dimitrios Manganas     : Further ROCIS development; embedding schemes. LFT, Crystal Embedding 
  Dimitrios Pantazis     : SARC Basis sets                               
  Anastasios Papadopoulos: AUTO-CI, single reference methods and gradients 
  Taras Petrenko         : pre 6.0 DFT Hessian and TD-DFT gradient, (ASA, deprecated), ECA, 1-Electron XAS/XES, NRVS 
  Peter Pinski           : DLPNO-MP2, DLPNO-MP2 Gradient                 
  Christoph Reimann      : Effective Core Potentials                     
  Marius Retegan         : Local ZFS, SOC                                
  Christoph Riplinger    : Optimizer, TS searches, QM/MM, DLPNO-CCSD(T), (RO)-DLPNO pert. Triples 
  Michael Roemelt        : Original ROCIS implementation                 
  Masaaki Saitow         : Open-shell DLPNO-CCSD energy and density      
  Barbara Sandhoefer     : DKH picture change effects                    
  Kantharuban Sivalingam : CASSCF convergence/infrastructure, NEVPT2 and variants, FIC-MRCI 
  Bernardo de Souza      : ESD, SOC TD-DFT                               
  Georgi L. Stoychev     : AutoAux, RI-MP2 NMR, DLPNO-MP2 response, X2C  
  Van Anh Tran           : RI-MP2 g-tensors                              
  Willem Van den Heuvel  : Paramagnetic NMR                              
  Zikuan Wang            : NOTCH, Electric field optimization            
  Frank Wennmohs         : Technical directorship and infrastructure     
  Hang Xu                : AUTO-CI-Response properties                   
                                                                         
[FACCTs GmbH]                                                            
  Markus Bursch, Miquel Garcia-Rates, Christoph Riplinger, Bernardo de Souza, Georgi L. Stoychev 
                                                                 
  APM, Basis sets (HGBS, AHGBS, def-TZVP (Ac-Lr), def2-XVPD (La-Lu)), CI-OPT, improved COSX, DLPNO-Multilevel,           
  DOCKER, DRACO, updates on ESD, GOAT, IRC, LR-CPCM, MBIS, meta-GGA TD-DFT gradient, ML-optimized integration grids, 
  MM, NACMEs, nearIR, NEB, NEB-TS, NL-DFT gradient (VV10), 2- and 3-layer-ONIOM, interface openCOSMO-RS, QMMM,   
  Crystal-QMMM, SF, symmetry and pop. for TD-DFT, r2SCAN hybrids, SOLVATOR                                   
                                                                         
[Other institutions]                                                     
  V. Asgeirsson          : NEB                                           
  Christoph Bannwarth    : sTDA-DFT, sTD-DFT, PBEh-3c, B97-3c, D3        
  Sebastian Ehlert       : rSCAN, r2SCAN, r2SCAN-3c, D4, dhf basis sets  
  Marvin Friede          : D4 for Fr, Ra, Ac-Lr                          
  Lars Goerigk           : TD-DFT with DH, B97 family of functionals     
  Stefan Grimme          : VdW corrections, initial TS optimization, DFT functionals, gCP, sTDA/sTD-DF 
  Waldemar Hujo          : DFT-NL                                        
  H. Jonsson             : NEB                                           
  Holger Kruse           : gCP                                           
  Marcel Mueller         : wB97X-3c, vDZP basis set                      
  Hagen Neugebauer       : wr2SCAN                                       
  Tobias Risthaus        : range-separated hybrid DFT                    
  Lukas Wittmann         : regularized MP2, r2SCAN double-hybrids, wr2SCAN        
                                                                         
We gratefully acknowledge several colleagues who have allowed us to      
interface, adapt or use parts of their codes:                            
  Ed Valeev, F. Pavosevic, A. Kumar             : LibInt (2-el integral package), F12 methods 
  Garnet Chan, S. Sharma, J. Yang, R. Olivares  : DMRG                   
  Ulf Ekstrom                                   : XCFun DFT Library      
  Mihaly Kallay                                 : mrcc  (arbitrary order and MRCC methods)
  Frank Weinhold                                : gennbo (NPA and NBO analysis)           
  Simon Mueller                                 : openCOSMO-RS                            
  Christopher J. Cramer and Donald G. Truhlar   : smd solvation model                     
  S Lehtola, MJT Oliveira, MAL Marques          : LibXC Library                           
  Liviu Ungur et al                             : ANISO software                          


 Your calculation uses the libint2 library for the computation of 2-el integrals
 For citations please refer to: http://libint.valeyev.net

 Your ORCA version has been built with support for libXC version: 6.2.2
 For citations please refer to: https://libxc.gitlab.io

 This ORCA versions uses:
   CBLAS   interface :  Fast vector & matrix operations
   LAPACKE interface :  Fast linear algebra routines
   SCALAPACK package :  Parallel linear algebra routines
   Shared memory     :  Shared parallel matrices
   BLAS/LAPACK       :  OpenBLAS 0.3.27  USE64BITINT DYNAMIC_ARCH NO_AFFINITY SkylakeX SINGLE_THREADED
        Core in use  :  SkylakeX
   Copyright (c) 2011-2014, The OpenBLAS Project


NOTE: MaxCore=5000 MB was set to SCF,MP2,MDCI,CIPSI,MRCI and CIS
      => If you want to overwrite this, your respective input block should be placed after the MaxCore statement
Your calculation utilizes the atom-pairwise dispersion correction
based on EEQ partial charges (D4)


Warning: RI is on but no J-basis has been assigned. Assigning Def2/J (nothing to worry about!)
================================================================================

----- Orbital basis set information -----
Your calculation utilizes the basis: def2-TZVP
   F. Weigend and R. Ahlrichs, Phys. Chem. Chem. Phys. 7, 3297 (2005).

----- AuxJ basis set information -----
Your calculation utilizes the auxiliary basis: def2/J
   F. Weigend, Phys. Chem. Chem. Phys. 8, 1057 (2006).

================================================================================
                                        WARNINGS
                       Please study these warnings very carefully!
================================================================================


WARNING: Geometry Optimization
  ===> : Switching off AutoStart
         For restart on a previous wavefunction, please use MOREAD

================================================================================
                                       INPUT FILE
================================================================================
NAME = 08_Aminobutyric-acid_zwitterion.inp
|  1> ! Opt B3LYP D4 def2-TZVP TightSCF TightOpt CPCM(water)
|  2> 
|  3> %maxcore 5000
|  4> 
|  5> %pal
|  6> nprocs 6
|  7> end
|  8> 
|  9> * xyz 0 1
| 10> N         -0.01980        0.94960        0.70020
| 11> C          0.69240        1.62210       -0.38420
| 12> C         -0.15880        1.84920       -1.65360
| 13> C         -0.59780        0.57090       -2.39470
| 14> C         -1.76540       -0.16740       -1.79010
| 15> O         -2.43210        0.31420       -0.72360
| 16> O         -2.15410       -1.19760       -2.31640
| 17> H          0.60340        0.91500        1.53910
| 18> H         -0.88300        1.48300        0.95180
| 19> H          1.02670        2.61930       -0.02060
| 20> H          1.60260        1.03810       -0.64640
| 21> H          0.50680        2.40380       -2.35110
| 22> H         -1.03450        2.50190       -1.44700
| 23> H          0.27880       -0.10500       -2.49550
| 24> H         -0.92250        0.86210       -3.41730
| 25> H         -0.24600       -0.03440        0.43460
| 26> *
| 27> 
| 28>                          ****END OF INPUT****
================================================================================

                       *****************************
                       * Geometry Optimization Run *
                       *****************************

Geometry optimization settings:
Update method            Update   .... BFGS
Choice of coordinates    CoordSys .... (2022) Redundant Internals
Initial Hessian          InHess   .... Almloef's Model
Max. no of cycles        MaxIter  .... 50

Convergence Tolerances:
Energy Change            TolE     ....  1.0000e-06 Eh
Max. Gradient            TolMAXG  ....  1.0000e-04 Eh/bohr
RMS Gradient             TolRMSG  ....  3.0000e-05 Eh/bohr
Max. Displacement        TolMAXD  ....  1.0000e-03 bohr
RMS Displacement         TolRMSD  ....  6.0000e-04 bohr
Strict Convergence                .... False

------------------------------------------------------------------------------
                        ORCA OPTIMIZATION COORDINATE SETUP
------------------------------------------------------------------------------

The optimization will be done in redundant internal coordinates (2022)
Making redundant internal coordinates   ...  (2022 redundants) done
Evaluating the initial hessian          ...  (Almloef) done
Evaluating the coordinates              ...  done
Calculating the B-matrix                .... done
Calculating the G-matrix                .... done
Diagonalizing the G-matrix              .... done
Small eigenvalue found = 1.942e-02
The first mode is                       ....   23
The number of degrees of freedom        ....   42

    -----------------------------------------------------------------
                    Redundant Internal Coordinates


    -----------------------------------------------------------------
         Definition                    Initial Value    Approx d2E/dq
    -----------------------------------------------------------------
      1. B(C   1,N   0)                  1.4613         0.430641   
      2. B(C   2,C   1)                  1.5452         0.353350   
      3. B(C   3,C   2)                  1.5414         0.358216   
      4. B(C   4,C   3)                  1.5080         0.405093   
      5. B(O   5,C   4)                  1.3468         0.655859   
      6. B(O   6,C   4)                  1.2204         1.043402   
      7. B(H   7,N   0)                  1.0456         0.379629   
      8. B(H   8,N   0)                  1.0454         0.379894   
      9. B(H   9,C   1)                  1.1128         0.331142   
     10. B(H  10,C   1)                  1.1128         0.331197   
     11. B(H  11,C   2)                  1.1123         0.331831   
     12. B(H  12,C   2)                  1.1116         0.332687   
     13. B(H  13,C   3)                  1.1115         0.332754   
     14. B(H  14,C   3)                  1.1117         0.332474   
     15. B(H  15,N   0)                  1.0440         0.381880   
     16. A(H   8,N   0,H  15)          111.2980         0.291235   
     17. A(H   7,N   0,H   8)          108.4160         0.290965   
     18. A(C   1,N   0,H   8)          110.2553         0.330108   
     19. A(C   1,N   0,H  15)          110.5216         0.330392   
     20. A(C   1,N   0,H   7)          108.6699         0.330070   
     21. A(H   7,N   0,H  15)          107.5809         0.291203   
     22. A(H   9,C   1,H  10)          107.5510         0.283331   
     23. A(C   2,C   1,H  10)          109.5213         0.317014   
     24. A(N   0,C   1,H  10)          109.3890         0.325493   
     25. A(C   2,C   1,H   9)          107.5905         0.317005   
     26. A(N   0,C   1,C   2)          114.1293         0.366473   
     27. A(N   0,C   1,H   9)          108.4416         0.325484   
     28. A(C   1,C   2,H  11)          104.9997         0.317112   
     29. A(C   3,C   2,H  12)          110.6067         0.317953   
     30. A(C   1,C   2,H  12)          111.5679         0.317246   
     31. A(C   3,C   2,H  11)          106.4057         0.317820   
     32. A(C   1,C   2,C   3)          115.4670         0.357355   
     33. A(H  11,C   2,H  12)          107.1704         0.283620   
     34. A(H  13,C   3,H  14)          107.8308         0.283714   
     35. A(C   2,C   3,C   4)          115.7076         0.365785   
     36. A(C   4,C   3,H  14)          105.7175         0.324382   
     37. A(C   2,C   3,H  14)          107.9510         0.317920   
     38. A(C   4,C   3,H  13)          110.4441         0.324426   
     39. A(C   2,C   3,H  13)          108.8616         0.317964   
     40. A(O   5,C   4,O   6)          119.0577         0.475739   
     41. A(C   3,C   4,O   6)          119.1439         0.438658   
     42. A(C   3,C   4,O   5)          121.7166         0.403779   
     43. D(H   9,C   1,N   0,H   8)     63.4850         0.016943   
     44. D(H   9,C   1,N   0,H   7)    -55.2092         0.016943   
     45. D(H   9,C   1,N   0,H  15)   -173.0432         0.016943   
     46. D(C   2,C   1,N   0,H  15)     67.0599         0.016943   
     47. D(C   2,C   1,N   0,H   7)   -175.1061         0.016943   
     48. D(C   2,C   1,N   0,H   8)    -56.4119         0.016943   
     49. D(C   3,C   2,C   1,N   0)    -65.6709         0.010044   
     50. D(H  11,C   2,C   1,H  10)    -59.5014         0.010044   
     51. D(H  11,C   2,C   1,H   9)     57.1166         0.010044   
     52. D(H  11,C   2,C   1,N   0)    177.4903         0.010044   
     53. D(C   3,C   2,C   1,H  10)     57.3373         0.010044   
     54. D(C   3,C   2,C   1,H   9)    173.9554         0.010044   
     55. D(C   4,C   3,C   2,H  12)    -49.3235         0.010302   
     56. D(C   4,C   3,C   2,H  11)   -165.3945         0.010302   
     57. D(C   4,C   3,C   2,C   1)     78.5616         0.010302   
     58. D(H  13,C   3,C   2,H  12)   -174.3623         0.010302   
     59. D(H  13,C   3,C   2,H  11)     69.5667         0.010302   
     60. D(H  13,C   3,C   2,C   1)    -46.4773         0.010302   
     61. D(O   6,C   4,C   3,C   2)   -179.0544         0.012165   
     62. D(O   5,C   4,C   3,H  14)   -115.1292         0.012165   
     63. D(O   5,C   4,C   3,H  13)    128.4865         0.012165   
     64. D(O   6,C   4,C   3,H  13)    -54.8339         0.012165   
     65. D(O   5,C   4,C   3,C   2)      4.2660         0.012165   
    -----------------------------------------------------------------

Number of atoms                         .... 16
Number of degrees of freedom            .... 65


         *************************************************************
         *                GEOMETRY OPTIMIZATION CYCLE   1            *
         *************************************************************
---------------------------------
CARTESIAN COORDINATES (ANGSTROEM)
---------------------------------
  N     -0.019800    0.949600    0.700200
  C      0.692400    1.622100   -0.384200
  C     -0.158800    1.849200   -1.653600
  C     -0.597800    0.570900   -2.394700
  C     -1.765400   -0.167400   -1.790100
  O     -2.432100    0.314200   -0.723600
  O     -2.154100   -1.197600   -2.316400
  H      0.603400    0.915000    1.539100
  H     -0.883000    1.483000    0.951800
  H      1.026700    2.619300   -0.020600
  H      1.602600    1.038100   -0.646400
  H      0.506800    2.403800   -2.351100
  H     -1.034500    2.501900   -1.447000
  H      0.278800   -0.105000   -2.495500
  H     -0.922500    0.862100   -3.417300
  H     -0.246000   -0.034400    0.434600

----------------------------
CARTESIAN COORDINATES (A.U.)
----------------------------
  NO LB      ZA    FRAG     MASS         X           Y           Z
   0 N     7.0000    0    14.007   -0.037417    1.794484    1.323186
   1 C     6.0000    0    12.011    1.308446    3.065325   -0.726033
   2 C     6.0000    0    12.011   -0.300089    3.494482   -3.124851
   3 C     6.0000    0    12.011   -1.129678    1.078845   -4.525327
   4 C     6.0000    0    12.011   -3.336123   -0.316340   -3.382799
   5 O     8.0000    0    15.999   -4.596003    0.593752   -1.367406
   6 O     8.0000    0    15.999   -4.070659   -2.263136   -4.377362
   7 H     1.0000    0     1.008    1.140261    1.729099    2.908477
   8 H     1.0000    0     1.008   -1.668628    2.802464    1.798641
   9 H     1.0000    0     1.008    1.940182    4.949760   -0.038928
  10 H     1.0000    0     1.008    3.028475    1.961725   -1.221519
  11 H     1.0000    0     1.008    0.957713    4.542524   -4.442935
  12 H     1.0000    0     1.008   -1.954922    4.727906   -2.734434
  13 H     1.0000    0     1.008    0.526856   -0.198421   -4.715812
  14 H     1.0000    0     1.008   -1.743272    1.629133   -6.457761
  15 H     1.0000    0     1.008   -0.464873   -0.065007    0.821275

--------------------------------
INTERNAL COORDINATES (ANGSTROEM)
--------------------------------
 N      0   0   0     0.000000000000     0.00000000     0.00000000
 C      1   0   0     1.461303681649     0.00000000     0.00000000
 C      2   1   0     1.545151193249   114.12929671     0.00000000
 C      3   2   1     1.541428266252   115.46700401   294.32912748
 C      4   3   2     1.507951527736   115.70764457    78.56162675
 O      5   4   3     1.346792374496   121.71659475     4.26597012
 O      5   4   3     1.220406252032   119.14391604   180.94562985
 H      1   2   3     1.045623550806   108.66993392   184.89394890
 H      1   2   3     1.045434053396   110.25530556   303.58807924
 H      2   1   3     1.112820421272   108.44155841   119.89689140
 H      2   1   3     1.112775305262   109.38901857   236.91996071
 H      3   2   1     1.112254813431   104.99967383   177.49034732
 H      3   2   1     1.111553570459   111.56790261    61.73366036
 H      4   3   2     1.111498542509   108.86155572   313.52274569
 H      4   3   2     1.111727615021   107.95095529   196.72647328
 H      1   2   3     1.044014271933   110.52161061    67.05989886

---------------------------
INTERNAL COORDINATES (A.U.)
---------------------------
 N      0   0   0     0.000000000000     0.00000000     0.00000000
 C      1   0   0     2.761463756807     0.00000000     0.00000000
 C      2   1   0     2.919912590743   114.12929671     0.00000000
 C      3   2   1     2.912877278301   115.46700401   294.32912748
 C      4   3   2     2.849615410648   115.70764457    78.56162675
 O      5   4   3     2.545068747051   121.71659475     4.26597012
 O      5   4   3     2.306233588467   119.14391604   180.94562985
 H      1   2   3     1.975942150202   108.66993392   184.89394890
 H      1   2   3     1.975584051994   110.25530556   303.58807924
 H      2   1   3     2.102925832439   108.44155841   119.89689140
 H      2   1   3     2.102840575535   109.38901857   236.91996071
 H      3   2   1     2.101856988520   104.99967383   177.49034732
 H      3   2   1     2.100531831350   111.56790261    61.73366036
 H      4   3   2     2.100427843595   108.86155572   313.52274569
 H      4   3   2     2.100860727907   107.95095529   196.72647328
 H      1   2   3     1.972901053859   110.52161061    67.05989886

---------------------
BASIS SET INFORMATION
---------------------
There are 4 groups of distinct atoms

 Group   1 Type N   : 11s6p2d1f contracted to 5s3p2d1f pattern {62111/411/11/1}
 Group   2 Type C   : 11s6p2d1f contracted to 5s3p2d1f pattern {62111/411/11/1}
 Group   3 Type O   : 11s6p2d1f contracted to 5s3p2d1f pattern {62111/411/11/1}
 Group   4 Type H   : 5s1p contracted to 3s1p pattern {311/1}

Atom   0N    basis set group =>   1
Atom   1C    basis set group =>   2
Atom   2C    basis set group =>   2
Atom   3C    basis set group =>   2
Atom   4C    basis set group =>   2
Atom   5O    basis set group =>   3
Atom   6O    basis set group =>   3
Atom   7H    basis set group =>   4
Atom   8H    basis set group =>   4
Atom   9H    basis set group =>   4
Atom  10H    basis set group =>   4
Atom  11H    basis set group =>   4
Atom  12H    basis set group =>   4
Atom  13H    basis set group =>   4
Atom  14H    basis set group =>   4
Atom  15H    basis set group =>   4
---------------------------------
AUXILIARY/J BASIS SET INFORMATION
---------------------------------
There are 4 groups of distinct atoms

 Group   1 Type N   : 12s5p4d2f1g contracted to 6s4p3d1f1g pattern {711111/2111/211/2/1}
 Group   2 Type C   : 12s5p4d2f1g contracted to 6s4p3d1f1g pattern {711111/2111/211/2/1}
 Group   3 Type O   : 12s5p4d2f1g contracted to 6s4p3d1f1g pattern {711111/2111/211/2/1}
 Group   4 Type H   : 5s2p1d contracted to 3s1p1d pattern {311/2/1}

Atom   0N    basis set group =>   1
Atom   1C    basis set group =>   2
Atom   2C    basis set group =>   2
Atom   3C    basis set group =>   2
Atom   4C    basis set group =>   2
Atom   5O    basis set group =>   3
Atom   6O    basis set group =>   3
Atom   7H    basis set group =>   4
Atom   8H    basis set group =>   4
Atom   9H    basis set group =>   4
Atom  10H    basis set group =>   4
Atom  11H    basis set group =>   4
Atom  12H    basis set group =>   4
Atom  13H    basis set group =>   4
Atom  14H    basis set group =>   4
Atom  15H    basis set group =>   4
--------------------------------------------------------------------------
WARNING: There was an error initializing an OpenFabrics device.

  Local host:   ga02
  Local device: mlx5_0
--------------------------------------------------------------------------


           ************************************************************
           *        Program running with 6 parallel MPI-processes     *
           *              working on a common directory               *
           ************************************************************
------------------------------------------------------------------------------
                             ORCA STARTUP CALCULATIONS
                           -- RI-GTO INTEGRALS CHOSEN --
------------------------------------------------------------------------------
------------------------------------------------------------------------------
                   ___                                                        
                  /   \      - P O W E R E D   B Y -                         
                 /     \                                                     
                 |  |  |   _    _      __       _____    __    __             
                 |  |  |  | |  | |    /  \     |  _  \  |  |  /  |          
                  \  \/   | |  | |   /    \    | | | |  |  | /  /          
                 / \  \   | |__| |  /  /\  \   | |_| |  |  |/  /          
                |  |  |   |  __  | /  /__\  \  |    /   |      \           
                |  |  |   | |  | | |   __   |  |    \   |  |\   \          
                \     /   | |  | | |  |  |  |  | |\  \  |  | \   \       
                 \___/    |_|  |_| |__|  |__|  |_| \__\ |__|  \__/        
                                                                              
                      - O R C A' S   B I G   F R I E N D -                    
                                      &                                       
                       - I N T E G R A L  F E E D E R -                       
                                                                              
 v1 FN, 2020, v2 2021, v3 2022-2024                                           
------------------------------------------------------------------------------


----------------------
SHARK INTEGRAL PACKAGE
----------------------

Number of atoms                             ...     16
Number of basis functions                   ...    271
Number of shells                            ...    113
Maximum angular momentum                    ...      3
Integral batch strategy                     ... SHARK/LIBINT Hybrid
RI-J (if used) integral strategy            ... SPLIT-RIJ (Revised 2003 algorithm where possible)
Printlevel                                  ...      1
Contraction scheme used                     ... SEGMENTED contraction
Prescreening option                         ... SCHWARTZ
   Thresh                                   ... 2.500e-11
   Tcut                                     ... 2.500e-12
   Tpresel                                  ... 2.500e-12 
Coulomb Range Separation                    ... NOT USED
Exchange Range Separation                   ... NOT USED
Multipole approximations                    ... NOT USED
Finite Nucleus Model                        ... NOT USED
CABS basis                                  ... NOT available
Auxiliary Coulomb fitting basis             ... AVAILABLE
   # of basis functions in Aux-J            ...    442
   # of shells in Aux-J                     ...    150
   Maximum angular momentum in Aux-J        ...      4
Auxiliary J/K fitting basis                 ... NOT available
Auxiliary Correlation fitting basis         ... NOT available
Auxiliary 'external' fitting basis          ... NOT available

Checking pre-screening integrals            ... done (  0.0 sec) Dimension = 113
Check shell pair data                       ... done (  0.0 sec)
Shell pair information
Shell pair cut-off parameter TPreSel        ...   2.5e-12
Total number of shell pairs                 ...      6441
Shell pairs after pre-screening             ...      5992
Total number of primitive shell pairs       ...     19096
Primitive shell pairs kept                  ...     13507
          la=0 lb=0:   1768 shell pairs
          la=1 lb=0:   1743 shell pairs
          la=1 lb=1:    453 shell pairs
          la=2 lb=0:    799 shell pairs
          la=2 lb=1:    404 shell pairs
          la=2 lb=2:    102 shell pairs
          la=3 lb=0:    401 shell pairs
          la=3 lb=1:    201 shell pairs
          la=3 lb=2:     94 shell pairs
          la=3 lb=3:     27 shell pairs

Calculating one electron integrals          ... done (  0.0 sec)
Calculating RI/J V-Matrix + Cholesky decomp.... done (  0.0 sec)
Calculating Nuclear repulsion               ... done (  0.0 sec) ENN=    317.716679326855 Eh

Diagonalization of the overlap matrix:
Smallest eigenvalue                        ... 1.911e-04
Time for diagonalization                   ...    0.006 sec
Threshold for overlap eigenvalues          ... 1.000e-07
Number of eigenvalues below threshold      ... 0
Time for construction of square roots      ...    0.003 sec
Total time needed                          ...    0.011 sec

-------------------
DFT GRID GENERATION
-------------------

General Integration Accuracy     IntAcc      ... 4.388
Radial Grid Type                 RadialGrid  ... OptM3 with GC (2021)
Angular Grid (max. ang.)         AngularGrid ... 4 (Lebedev-302)
Angular grid pruning method      GridPruning ... 4 (adaptive)
Weight generation scheme         WeightScheme... mBecke (2022)
Basis function cutoff            BFCut       ... 1.0000e-11
Integration weight cutoff        WCut        ... 1.0000e-14
Partially contracted basis set               ... off
Rotationally invariant grid construction     ... off
Angular grids for H and He will be reduced by one unit

Total number of grid points                  ...    71160
Total number of batches                      ...     1120
Average number of points per batch           ...       63
Average number of grid points per atom       ...     4448

--------------------
COSX GRID GENERATION
--------------------

GRIDX 1
-------
General Integration Accuracy     IntAcc      ... 3.816
Radial Grid Type                 RadialGrid  ... OptM3 with GC (2021)
Angular Grid (max. ang.)         AngularGrid ... 1 (Lebedev-50)
Angular grid pruning method      GridPruning ... 4 (adaptive)
Weight generation scheme         WeightScheme... mBecke (2022)
Basis function cutoff            BFCut       ... 1.0000e-11
Integration weight cutoff        WCut        ... 1.0000e-14
Partially contracted basis set               ... on
Rotationally invariant grid construction     ... off
Angular grids for H and He will be reduced by one unit

Total number of grid points                  ...     9101
Total number of batches                      ...       81
Average number of points per batch           ...      112
Average number of grid points per atom       ...      569
UseSFitting                                  ... on

GRIDX 2
-------
General Integration Accuracy     IntAcc      ... 4.020
Radial Grid Type                 RadialGrid  ... OptM3 with GC (2021)
Angular Grid (max. ang.)         AngularGrid ... 2 (Lebedev-110)
Angular grid pruning method      GridPruning ... 4 (adaptive)
Weight generation scheme         WeightScheme... mBecke (2022)
Basis function cutoff            BFCut       ... 1.0000e-11
Integration weight cutoff        WCut        ... 1.0000e-14
Partially contracted basis set               ... on
Rotationally invariant grid construction     ... off
Angular grids for H and He will be reduced by one unit

Total number of grid points                  ...    19459
Total number of batches                      ...      161
Average number of points per batch           ...      120
Average number of grid points per atom       ...     1216
UseSFitting                                  ... on

GRIDX 3
-------
General Integration Accuracy     IntAcc      ... 4.338
Radial Grid Type                 RadialGrid  ... OptM3 with GC (2021)
Angular Grid (max. ang.)         AngularGrid ... 3 (Lebedev-194)
Angular grid pruning method      GridPruning ... 4 (adaptive)
Weight generation scheme         WeightScheme... mBecke (2022)
Basis function cutoff            BFCut       ... 1.0000e-11
Integration weight cutoff        WCut        ... 1.0000e-14
Partially contracted basis set               ... on
Rotationally invariant grid construction     ... off
Angular grids for H and He will be reduced by one unit

Total number of grid points                  ...    42698
Total number of batches                      ...      342
Average number of points per batch           ...      124
Average number of grid points per atom       ...     2669
UseSFitting                                  ... on
Initializing property integral containers    ... done (  0.0 sec)

SHARK setup successfully completed in   0.7 seconds

Maximum memory used throughout the entire STARTUP-calculation: 25.9 MB
[ga02:1507030] 5 more processes have sent help message help-mpi-btl-openib.txt / error in device init
[ga02:1507030] Set MCA parameter "orte_base_help_aggregate" to 0 to see all help / error messages
--------------------------------------------------------------------------
WARNING: There was an error initializing an OpenFabrics device.

  Local host:   ga02
  Local device: mlx5_0
--------------------------------------------------------------------------


           ************************************************************
           *        Program running with 6 parallel MPI-processes     *
           *              working on a common directory               *
           ************************************************************
-------------------------------------------------------------------------------
                                 ORCA GUESS
                   Start orbitals & Density for SCF / CASSCF
-------------------------------------------------------------------------------

------------
SCF SETTINGS
------------
Hamiltonian:
 Density Functional     Method          .... DFT(GTOs)
 Exchange Functional    Exchange        .... B88
   X-Alpha parameter    XAlpha          ....  0.666667
   Becke's b parameter  XBeta           ....  0.004200
 Correlation Functional Correlation     .... LYP
 LDA part of GGA corr.  LDAOpt          .... VWN-5
 Gradients option       PostSCFGGA      .... off
 Hybrid DFT is turned on
   Fraction HF Exchange ScalHFX         ....  0.200000
   Scaling of DF-GGA-X  ScalDFX         ....  0.720000
   Scaling of DF-GGA-C  ScalDFC         ....  0.810000
   Scaling of DF-LDA-C  ScalLDAC        ....  1.000000
   Perturbative correction              ....  0.000000
   NL short-range parameter             ....  4.800000
 RI-approximation to the Coulomb term is turned on
   Number of AuxJ basis functions       .... 442
   RIJ-COSX (HFX calculated with COS-X)).... on


General Settings:
 Integral files         IntName         .... 08_Aminobutyric-acid_zwitterion
 Hartree-Fock type      HFTyp           .... RHF
 Total Charge           Charge          ....    0
 Multiplicity           Mult            ....    1
 Number of Electrons    NEL             ....   56
 Basis Dimension        Dim             ....  271
 Nuclear Repulsion      ENuc            ....    317.7166793269 Eh

Convergence Acceleration:
 AO-DIIS                CNVDIIS         .... on
   Start iteration      DIISMaxIt       ....    12
   Startup error        DIISStart       ....  0.200000
   # of expansion vecs  DIISMaxEq       ....     5
   Bias factor          DIISBfac        ....   1.050
   Max. coefficient     DIISMaxC        ....  10.000
 MO-DIIS                CNVKDIIS        .... off
 Trust-Rad. Augm. Hess. CNVTRAH         .... auto
   Auto Start mean grad. ratio tolernc. ....  1.125000
   Auto Start start iteration           ....    50
   Auto Start num. interpolation iter.  ....    10
   Max. Number of Micro iterations      ....    24
   Max. Number of Macro iterations      .... Maxiter - #DIIS iter
   Number of Davidson start vectors     ....     2
   Converg. threshold    (grad. norm)   ....   1.000e-05
   Grad. Scal. Fac. for Micro threshold ....   0.100
   Minimum threshold for Micro iter.    ....   1.000e-02
   NR start threshold (gradient norm)   ....   1.000e-04
   Initial trust radius                 ....   0.400
   Minimum AH scaling param. (alpha)    ....   1.000
   Maximum AH scaling param. (alpha)    .... 1000.000
   Quad. conv. algorithm                .... NR
   White noise on init. David. guess    .... on
   Maximum white noise                  ....   0.010
   Pseudo random numbers                .... off
   Inactive MOs                         .... canonical
   Orbital update algorithm             .... Taylor
   Preconditioner                       .... Diag
   Full preconditioner red. dimension   ....   250
 SOSCF                  CNVSOSCF        .... on
   Start iteration      SOSCFMaxIt      ....   150
   Startup grad/error   SOSCFStart      ....  0.003300
   Hessian update       SOSCFHessUp     .... L-BFGS
 Level Shifting         CNVShift        .... on
   Level shift para.    LevelShift      ....    0.2500
   Turn off err/grad.   ShiftErr        ....    0.0010
 Zerner damping         CNVZerner       .... off
 Static damping         CNVDamp         .... on
   Fraction old density DampFac         ....    0.7000
   Max. Damping (<1)    DampMax         ....    0.9800
   Min. Damping (>=0)   DampMin         ....    0.0000
   Turn off err/grad.   DampErr         ....    0.1000

SCF Procedure:
 Maximum # iterations   MaxIter         ....   125
 SCF integral mode      SCFMode         .... Direct
   Integral package                     .... SHARK and LIBINT hybrid scheme
 Reset frequency        DirectResetFreq ....    20
 Integral Threshold     Thresh          ....  2.500e-11 Eh
 Primitive CutOff       TCut            ....  2.500e-12 Eh

Convergence Tolerance:
 Convergence Check Mode ConvCheckMode   .... Total+1el-Energy
 Convergence forced     ConvForced      .... 0
 Energy Change          TolE            ....  1.000e-08 Eh
 1-El. energy change                    ....  1.000e-05 Eh
 Orbital Gradient       TolG            ....  1.000e-05
 Orbital Rotation angle TolX            ....  1.000e-05
 DIIS Error             TolErr          ....  5.000e-07

------------------------------
INITIAL GUESS: MODEL POTENTIAL
------------------------------
Loading Hartree-Fock densities                     ... done
Calculating cut-offs                               ... done
Initializing the effective Hamiltonian             ... done
Setting up the integral package (SHARK)            ... done
Starting the Coulomb interaction                   ... done (   0.0 sec)
Making the grid                                    ... done (   0.1 sec)
Mapping shells                                     ... done
Starting the XC term evaluation                    ... done (   0.0 sec)
  promolecular density results
     # of electrons  =     55.995687973
     EX              =    -46.169150241
     EC              =     -1.890260705
     EX+EC           =    -48.059410946
Transforming the Hamiltonian                       ... done (   0.0 sec)
Diagonalizing the Hamiltonian                      ... done (   0.0 sec)
Back transforming the eigenvectors                 ... done (   0.0 sec)
Now organizing SCF variables                       ... done
                      ------------------
                      INITIAL GUESS DONE (   0.2 sec)
                      ------------------
             **** ENERGY FILE WAS UPDATED (08_Aminobutyric-acid_zwitterion.en.tmp) ****
Finished Guess after   0.4 sec
Maximum memory used throughout the entire GUESS-calculation: 17.2 MB
[ga02:1507066] 5 more processes have sent help message help-mpi-btl-openib.txt / error in device init
[ga02:1507066] Set MCA parameter "orte_base_help_aggregate" to 0 to see all help / error messages
--------------------------------------------------------------------------
WARNING: There was an error initializing an OpenFabrics device.

  Local host:   ga02
  Local device: mlx5_0
--------------------------------------------------------------------------


           ************************************************************
           *        Program running with 6 parallel MPI-processes     *
           *              working on a common directory               *
           ************************************************************

-------------------------------------------------------------------------------------------
                                      ORCA LEAN-SCF
                              memory conserving SCF solver
-------------------------------------------------------------------------------------------

--------------------
CPCM SOLVATION MODEL
--------------------
CPCM parameters:
  Epsilon                                         ...      80.1510
  Refrac                                          ...       1.3328
  Rsolv                                           ...       1.3000
  Surface type                                    ... GAUSSIAN VDW
  Discretization scheme                           ... Constant charge density
    Threshold for H atoms                         ...       5.0000 (charges/Ang^2)
    Threshold for non-H atoms                     ...       5.0000 (charges/Ang^2)
  Epsilon function type                           ...         CPCM
Solvent:                                          ... WATER
Radii:
  Scheme                                          ... Element-dependent radii
  Radius for N  used is    3.5149 Bohr (=   1.8600 Ang.)
  Radius for C  used is    3.8550 Bohr (=   2.0400 Ang.)
  Radius for O  used is    3.4469 Bohr (=   1.8240 Ang.)
  Radius for H  used is    2.4944 Bohr (=   1.3200 Ang.)
Calculating surface                               ...        done! (  0.0s)
Cavity surface points                             ...         1342
Cavity Volume                                     ...     899.3964
Cavity Surface-area                               ...     530.2757
Calculating surface distance matrix               ...        done! (  0.0s)
Performing Cholesky decomposition & store         ...        done! (  0.0s)
Overall time for CPCM initialization              ...                 0.1s

----------------------------------------D-I-I-S--------------------------------------------
Iteration    Energy (Eh)           Delta-E    RMSDP     MaxDP     DIISErr   Damp  Time(sec)
-------------------------------------------------------------------------------------------
               ***  Starting incremental Fock matrix formation  ***
    1    -362.6821672659239653     0.00e+00  3.95e-03  4.10e-01  3.47e-01  0.700   1.3
    2    -362.8403316314439166    -1.58e-01  3.68e-03  4.25e-01  1.34e-01  0.700   0.8
                               ***Turning on AO-DIIS***
    3    -362.8945084018710645    -5.42e-02  1.22e-03  1.24e-01  3.42e-02  0.700   0.8
    4    -362.9286925520107729    -3.42e-02  1.05e-03  5.86e-02  1.48e-02  0.000   0.8
    5    -363.0065502421414863    -7.79e-02  9.34e-04  1.15e-01  7.81e-03  0.000   0.8
[ga02:1507094] 5 more processes have sent help message help-mpi-btl-openib.txt / error in device init
[ga02:1507094] Set MCA parameter "orte_base_help_aggregate" to 0 to see all help / error messages
                              *** Initializing SOSCF ***
---------------------------------------S-O-S-C-F--------------------------------------
Iteration    Energy (Eh)           Delta-E    RMSDP     MaxDP     MaxGrad    Time(sec)
--------------------------------------------------------------------------------------
    6    -363.0070061625082758    -4.56e-04  3.42e-04  4.19e-02  2.15e-03     0.8
               *** Restarting incremental Fock matrix formation ***
    7    -363.0070356598668582    -2.95e-05  2.03e-04  2.35e-02  3.41e-04     1.3
    8    -363.0070332156624886     2.44e-06  5.67e-05  5.07e-03  8.58e-04     1.1
    9    -363.0070415713062744    -8.36e-06  6.09e-05  7.17e-03  1.58e-04     1.0
   10    -363.0070414691627434     1.02e-07  1.40e-05  1.61e-03  9.65e-05     1.0
   11    -363.0070421254641246    -6.56e-07  1.08e-05  1.30e-03  2.10e-05     0.9
   12    -363.0070421080619667     1.74e-08  4.82e-06  5.79e-04  2.97e-05     0.9
   13    -363.0070421373680460    -2.93e-08  1.05e-06  1.28e-04  1.34e-06     0.8
                  *** Gradient check signals convergence ***

               *****************************************************
               *                     SUCCESS                       *
               *           SCF CONVERGED AFTER  13 CYCLES          *
               *****************************************************

Recomputing exchange energy using gridx3       ... done (    1.852 sec)
Old exchange energy                            :     -9.387678012 Eh
New exchange energy                            :     -9.387664384 Eh
Exchange energy change after final integration :      0.000013628 Eh
Total energy after final integration           :   -363.007028510 Eh
             **** ENERGY FILE WAS UPDATED (08_Aminobutyric-acid_zwitterion.en.tmp) ****

----------------
TOTAL SCF ENERGY
----------------

Total Energy       :       -363.00702850985874 Eh           -9877.92343 eV

Components:
Nuclear Repulsion  :        317.71667932685494 Eh            8645.51037 eV
Electronic Energy  :       -680.63530743472893 Eh          -18521.02831 eV
One Electron Energy:      -1124.43605434869346 Eh          -30597.46058 eV
Two Electron Energy:        443.80074691396459 Eh           12076.43228 eV
CPCM Dielectric    :         -0.08841402949401 Eh              -2.40587 eV

Virial components:
Potential Energy   :       -724.08382425877915 Eh          -19703.32256 eV
Kinetic Energy     :        361.07679574892040 Eh            9825.39913 eV
Virial Ratio       :          2.00534576794650

DFT components:
N(Alpha)           :       27.999980057376 electrons
N(Beta)            :       27.999980057376 electrons
N(Total)           :       55.999960114753 electrons
E(X)               :      -37.336340722230 Eh       
E(C)               :       -2.235795659078 Eh       
E(XC)              :      -39.572136381308 Eh       

CPCM Solvation Model Properties:
Surface-charge          :         -0.02179092642907
Corrected charge        :          0.00000000000000
Outlying charge corr.   :          0.00003733296820 Eh               0.00102 eV
Free-energy (cav+disp)  :  This term is not implemented in the current solvation scheme

---------------
SCF CONVERGENCE
---------------

  Last Energy change         ...    2.9306e-08  Tolerance :   1.0000e-08
  Last MAX-Density change    ...    1.2821e-04  Tolerance :   1.0000e-07
  Last RMS-Density change    ...    1.0490e-06  Tolerance :   5.0000e-09
  Last DIIS Error            ...    2.1507e-03  Tolerance :   5.0000e-07
  Last Orbital Gradient      ...    1.3400e-06  Tolerance :   1.0000e-05
  Last Orbital Rotation      ...    4.7469e-06  Tolerance :   1.0000e-05


----------------
ORBITAL ENERGIES
----------------

  NO   OCC          E(Eh)            E(eV) 
   0   2.0000     -19.059072      -518.6237 
   1   2.0000     -19.045667      -518.2589 
   2   2.0000     -14.425528      -392.5386 
   3   2.0000     -10.245873      -278.8044 
   4   2.0000     -10.225770      -278.2573 
   5   2.0000     -10.176904      -276.9276 
   6   2.0000     -10.167878      -276.6820 
   7   2.0000      -1.017216       -27.6798 
   8   2.0000      -0.989939       -26.9376 
   9   2.0000      -0.897399       -24.4195 
  10   2.0000      -0.784721       -21.3533 
  11   2.0000      -0.703846       -19.1526 
  12   2.0000      -0.614227       -16.7140 
  13   2.0000      -0.574206       -15.6249 
  14   2.0000      -0.561117       -15.2688 
  15   2.0000      -0.495813       -13.4918 
  16   2.0000      -0.491483       -13.3739 
  17   2.0000      -0.447152       -12.1676 
  18   2.0000      -0.431173       -11.7328 
  19   2.0000      -0.416552       -11.3349 
  20   2.0000      -0.394147       -10.7253 
  21   2.0000      -0.376050       -10.2328 
  22   2.0000      -0.366557        -9.9745 
  23   2.0000      -0.339008        -9.2249 
  24   2.0000      -0.332666        -9.0523 
  25   2.0000      -0.243483        -6.6255 
  26   2.0000      -0.240119        -6.5340 
  27   2.0000      -0.216158        -5.8820 
  28   0.0000       0.015083         0.4104 
  29   0.0000       0.041848         1.1388 
  30   0.0000       0.057188         1.5562 
  31   0.0000       0.062434         1.6989 
  32   0.0000       0.067971         1.8496 
  33   0.0000       0.092863         2.5269 
  34   0.0000       0.110541         3.0080 
  35   0.0000       0.116156         3.1608 
  36   0.0000       0.126040         3.4297 
  37   0.0000       0.134370         3.6564 
  38   0.0000       0.143477         3.9042 
*Only the first 10 virtual orbitals were printed.

                    ********************************
                    * MULLIKEN POPULATION ANALYSIS *
                    ********************************

-----------------------
MULLIKEN ATOMIC CHARGES
-----------------------
   0 N :   -0.240838
   1 C :   -0.185581
   2 C :   -0.149690
   3 C :   -0.212062
   4 C :    0.197514
   5 O :   -0.682526
   6 O :   -0.494151
   7 H :    0.329760
   8 H :    0.323350
   9 H :    0.161240
  10 H :    0.164194
  11 H :    0.114571
  12 H :    0.108512
  13 H :    0.115859
  14 H :    0.123663
  15 H :    0.326184
Sum of atomic charges:   -0.0000000

--------------------------------
MULLIKEN REDUCED ORBITAL CHARGES
--------------------------------
  0 N s       :     3.438302  s :     3.438302
      pz      :     1.237845  p :     3.753942
      px      :     1.258009
      py      :     1.258088
      dz2     :     0.012239  d :     0.046289
      dxz     :     0.011707
      dyz     :     0.005147
      dx2y2   :     0.009860
      dxy     :     0.007336
      f0      :     0.000257  f :     0.002305
      f+1     :     0.000557
      f-1     :     0.000192
      f+2     :     0.000483
      f-2     :     0.000288
      f+3     :     0.000122
      f-3     :     0.000406

  1 C s       :     3.271675  s :     3.271675
      pz      :     0.836382  p :     2.802488
      px      :     0.953168
      py      :     1.012937
      dz2     :     0.028364  d :     0.103212
      dxz     :     0.019188
      dyz     :     0.023771
      dx2y2   :     0.012414
      dxy     :     0.019476
      f0      :     0.001445  f :     0.008207
      f+1     :     0.001493
      f-1     :     0.000985
      f+2     :     0.001498
      f-2     :     0.001739
      f+3     :     0.000434
      f-3     :     0.000613

  2 C s       :     3.203214  s :     3.203214
      pz      :     0.913078  p :     2.851792
      px      :     0.980133
      py      :     0.958581
      dz2     :     0.019229  d :     0.088831
      dxz     :     0.016768
      dyz     :     0.019529
      dx2y2   :     0.008656
      dxy     :     0.024650
      f0      :     0.000738  f :     0.005853
      f+1     :     0.000808
      f-1     :     0.001010
      f+2     :     0.000672
      f-2     :     0.001384
      f+3     :     0.000379
      f-3     :     0.000862

  3 C s       :     3.177661  s :     3.177661
      pz      :     1.025131  p :     2.952462
      px      :     0.978677
      py      :     0.948653
      dz2     :     0.016741  d :     0.076306
      dxz     :     0.009465
      dyz     :     0.012014
      dx2y2   :     0.012348
      dxy     :     0.025738
      f0      :     0.000417  f :     0.005632
      f+1     :     0.000744
      f-1     :     0.000984
      f+2     :     0.000552
      f-2     :     0.001029
      f+3     :     0.000862
      f-3     :     0.001044

  4 C s       :     3.046325  s :     3.046325
      pz      :     0.776535  p :     2.514144
      px      :     0.905211
      py      :     0.832398
      dz2     :     0.056296  d :     0.217800
      dxz     :     0.035066
      dyz     :     0.045192
      dx2y2   :     0.040022
      dxy     :     0.041225
      f0      :     0.002529  f :     0.024217
      f+1     :     0.002719
      f-1     :     0.004612
      f+2     :     0.004581
      f-2     :     0.003122
      f+3     :     0.003427
      f-3     :     0.003228

  5 O s       :     3.823505  s :     3.823505
      pz      :     1.456080  p :     4.834830
      px      :     1.646532
      py      :     1.732218
      dz2     :     0.006468  d :     0.022846
      dxz     :     0.006606
      dyz     :     0.004714
      dx2y2   :     0.002114
      dxy     :     0.002944
      f0      :     0.000239  f :     0.001345
      f+1     :     0.000300
      f-1     :     0.000207
      f+2     :     0.000197
      f-2     :     0.000269
      f+3     :     0.000055
      f-3     :     0.000078

  6 O s       :     3.747217  s :     3.747217
      pz      :     1.634174  p :     4.717452
      px      :     1.657876
      py      :     1.425402
      dz2     :     0.004436  d :     0.027684
      dxz     :     0.002936
      dyz     :     0.006984
      dx2y2   :     0.007055
      dxy     :     0.006273
      f0      :     0.000128  f :     0.001798
      f+1     :     0.000079
      f-1     :     0.000408
      f+2     :     0.000275
      f-2     :     0.000283
      f+3     :     0.000271
      f-3     :     0.000354

  7 H s       :     0.638963  s :     0.638963
      pz      :     0.015332  p :     0.031278
      px      :     0.010386
      py      :     0.005560

  8 H s       :     0.644394  s :     0.644394
      pz      :     0.006548  p :     0.032255
      px      :     0.016758
      py      :     0.008949

  9 H s       :     0.817902  s :     0.817902
      pz      :     0.004155  p :     0.020858
      px      :     0.004990
      py      :     0.011713

 10 H s       :     0.815121  s :     0.815121
      pz      :     0.004055  p :     0.020685
      px      :     0.010832
      py      :     0.005798

 11 H s       :     0.864223  s :     0.864223
      pz      :     0.007589  p :     0.021207
      px      :     0.006814
      py      :     0.006803

 12 H s       :     0.870208  s :     0.870208
      pz      :     0.004034  p :     0.021280
      px      :     0.009856
      py      :     0.007390

 13 H s       :     0.863039  s :     0.863039
      pz      :     0.004282  p :     0.021101
      px      :     0.009519
      py      :     0.007300

 14 H s       :     0.854872  s :     0.854872
      pz      :     0.012154  p :     0.021464
      px      :     0.004739
      py      :     0.004572

 15 H s       :     0.640984  s :     0.640984
      pz      :     0.006697  p :     0.032832
      px      :     0.006702
      py      :     0.019433



                     *******************************
                     * LOEWDIN POPULATION ANALYSIS *
                     *******************************

----------------------
LOEWDIN ATOMIC CHARGES
----------------------
   0 N :    0.172466
   1 C :   -0.269819
   2 C :   -0.260220
   3 C :   -0.255292
   4 C :   -0.645404
   5 O :   -0.271978
   6 O :   -0.069516
   7 H :    0.234554
   8 H :    0.229748
   9 H :    0.152579
  10 H :    0.152089
  11 H :    0.151646
  12 H :    0.140512
  13 H :    0.151590
  14 H :    0.158017
  15 H :    0.229027

-------------------------------
LOEWDIN REDUCED ORBITAL CHARGES
-------------------------------
  0 N s       :     2.985450  s :     2.985450
      pz      :     1.219543  p :     3.669980
      px      :     1.231244
      py      :     1.219193
      dz2     :     0.040504  d :     0.161826
      dxz     :     0.041664
      dyz     :     0.021210
      dx2y2   :     0.032065
      dxy     :     0.026383
      f0      :     0.001691  f :     0.010278
      f+1     :     0.001833
      f-1     :     0.001347
      f+2     :     0.002120
      f-2     :     0.001119
      f+3     :     0.000676
      f-3     :     0.001493

  1 C s       :     2.804596  s :     2.804596
      pz      :     0.951897  p :     2.979059
      px      :     1.007775
      py      :     1.019387
      dz2     :     0.109839  d :     0.435465
      dxz     :     0.098754
      dyz     :     0.094198
      dx2y2   :     0.053482
      dxy     :     0.079193
      f0      :     0.010220  f :     0.050698
      f+1     :     0.007917
      f-1     :     0.007384
      f+2     :     0.009010
      f-2     :     0.008636
      f+3     :     0.003296
      f-3     :     0.004236

  2 C s       :     2.795612  s :     2.795612
      pz      :     1.002856  p :     3.050152
      px      :     1.024093
      py      :     1.023203
      dz2     :     0.071489  d :     0.378102
      dxz     :     0.084277
      dyz     :     0.084144
      dx2y2   :     0.042517
      dxy     :     0.095675
      f0      :     0.005436  f :     0.036354
      f+1     :     0.004506
      f-1     :     0.006732
      f+2     :     0.005118
      f-2     :     0.006170
      f+3     :     0.002818
      f-3     :     0.005575

  3 C s       :     2.793624  s :     2.793624
      pz      :     1.022831  p :     3.064669
      px      :     1.022503
      py      :     1.019335
      dz2     :     0.079022  d :     0.360567
      dxz     :     0.049537
      dyz     :     0.060219
      dx2y2   :     0.060516
      dxy     :     0.111273
      f0      :     0.003100  f :     0.036433
      f+1     :     0.004930
      f-1     :     0.005932
      f+2     :     0.005618
      f-2     :     0.005007
      f+3     :     0.004961
      f-3     :     0.006885

  4 C s       :     2.787697  s :     2.787697
      pz      :     0.883336  p :     2.731134
      px      :     0.914583
      py      :     0.933215
      dz2     :     0.212934  d :     0.971123
      dxz     :     0.160030
      dyz     :     0.224832
      dx2y2   :     0.175551
      dxy     :     0.197776
      f0      :     0.015518  f :     0.155450
      f+1     :     0.020632
      f-1     :     0.029634
      f+2     :     0.029818
      f-2     :     0.016170
      f+3     :     0.022826
      f-3     :     0.020851

  5 O s       :     3.496049  s :     3.496049
      pz      :     1.480818  p :     4.723820
      px      :     1.583685
      py      :     1.659318
      dz2     :     0.011305  d :     0.048341
      dxz     :     0.015604
      dyz     :     0.011351
      dx2y2   :     0.005046
      dxy     :     0.005036
      f0      :     0.000441  f :     0.003768
      f+1     :     0.000909
      f-1     :     0.000674
      f+2     :     0.000696
      f-2     :     0.000755
      f+3     :     0.000150
      f-3     :     0.000143

  6 O s       :     3.405853  s :     3.405853
      pz      :     1.552964  p :     4.592157
      px      :     1.553940
      py      :     1.485253
      dz2     :     0.010044  d :     0.065461
      dxz     :     0.005104
      dyz     :     0.019047
      dx2y2   :     0.014281
      dxy     :     0.016985
      f0      :     0.000562  f :     0.006045
      f+1     :     0.000171
      f-1     :     0.001214
      f+2     :     0.001150
      f-2     :     0.000916
      f+3     :     0.001133
      f-3     :     0.000899

  7 H s       :     0.671509  s :     0.671509
      pz      :     0.044392  p :     0.093938
      px      :     0.033546
      py      :     0.016000

  8 H s       :     0.674785  s :     0.674785
      pz      :     0.017712  p :     0.095467
      px      :     0.049369
      py      :     0.028386

  9 H s       :     0.790183  s :     0.790183
      pz      :     0.012023  p :     0.057239
      px      :     0.013440
      py      :     0.031775

 10 H s       :     0.790407  s :     0.790407
      pz      :     0.011844  p :     0.057504
      px      :     0.028041
      py      :     0.017619

 11 H s       :     0.792230  s :     0.792230
      pz      :     0.019692  p :     0.056124
      px      :     0.019532
      py      :     0.016900

 12 H s       :     0.802018  s :     0.802018
      pz      :     0.012191  p :     0.057470
      px      :     0.026494
      py      :     0.018785

 13 H s       :     0.791631  s :     0.791631
      pz      :     0.012368  p :     0.056779
      px      :     0.024774
      py      :     0.019637

 14 H s       :     0.785425  s :     0.785425
      pz      :     0.029509  p :     0.056558
      px      :     0.013983
      py      :     0.013065

 15 H s       :     0.674528  s :     0.674528
      pz      :     0.020143  p :     0.096445
      px      :     0.018385
      py      :     0.057917



                      *****************************
                      * MAYER POPULATION ANALYSIS *
                      *****************************

  NA   - Mulliken gross atomic population
  ZA   - Total nuclear charge
  QA   - Mulliken gross atomic charge
  VA   - Mayer's total valence
  BVA  - Mayer's bonded valence
  FA   - Mayer's free valence

  ATOM       NA         ZA         QA         VA         BVA        FA
  0 N      7.2408     7.0000    -0.2408     3.5245     3.5245     0.0000
  1 C      6.1856     6.0000    -0.1856     3.8716     3.8716     0.0000
  2 C      6.1497     6.0000    -0.1497     3.8057     3.8057    -0.0000
  3 C      6.2121     6.0000    -0.2121     3.6397     3.6397    -0.0000
  4 C      5.8025     6.0000     0.1975     4.5851     4.5851    -0.0000
  5 O      8.6825     8.0000    -0.6825     1.7092     1.7092    -0.0000
  6 O      8.4942     8.0000    -0.4942     1.9158     1.9158     0.0000
  7 H      0.6702     1.0000     0.3298     0.8854     0.8854     0.0000
  8 H      0.6766     1.0000     0.3234     0.9129     0.9129     0.0000
  9 H      0.8388     1.0000     0.1612     0.9586     0.9586    -0.0000
 10 H      0.8358     1.0000     0.1642     0.9601     0.9601    -0.0000
 11 H      0.8854     1.0000     0.1146     0.9672     0.9672     0.0000
 12 H      0.8915     1.0000     0.1085     0.9978     0.9978     0.0000
 13 H      0.8841     1.0000     0.1159     0.9830     0.9830     0.0000
 14 H      0.8763     1.0000     0.1237     0.9765     0.9765    -0.0000
 15 H      0.6738     1.0000     0.3262     0.9035     0.9035     0.0000

  Mayer bond orders larger than 0.100000
B(  0-N ,  1-C ) :   0.9236 B(  0-N ,  7-H ) :   0.8689 B(  0-N ,  8-H ) :   0.8609 
B(  0-N , 15-H ) :   0.8653 B(  1-C ,  2-C ) :   0.9861 B(  1-C ,  9-H ) :   0.9608 
B(  1-C , 10-H ) :   0.9607 B(  2-C ,  3-C ) :   0.9328 B(  2-C , 11-H ) :   0.9521 
B(  2-C , 12-H ) :   0.9599 B(  3-C ,  4-C ) :   0.9434 B(  3-C ,  5-O ) :  -0.1010 
B(  3-C , 13-H ) :   0.9388 B(  3-C , 14-H ) :   0.9417 B(  4-C ,  5-O ) :   1.6808 
B(  4-C ,  6-O ) :   1.9247 

-------
TIMINGS
-------

Total SCF time: 0 days 0 hours 0 min 14 sec 

Total time                  ....      14.612 sec
Sum of individual times     ....      14.549 sec  ( 99.6%)

SCF preparation             ....       0.347 sec  (  2.4%)
Fock matrix formation       ....      13.796 sec  ( 94.4%)
  Startup                   ....       0.024 sec  (  0.2% of F)
  Split-RI-J                ....       0.994 sec  (  7.2% of F)
  Chain of spheres X        ....       9.377 sec  ( 68.0% of F)
  XC integration            ....       2.030 sec  ( 14.7% of F)
    XC Preparation          ....       0.000 sec  (  0.0% of XC)
    Basis function eval.    ....       0.578 sec  ( 28.5% of XC)
    Density eval.           ....       0.479 sec  ( 23.6% of XC)
    XC-Functional eval.     ....       0.089 sec  (  4.4% of XC)
    XC-Potential eval.      ....       0.782 sec  ( 38.5% of XC)
  CPCM terms                ....       1.297 sec  (  9.4% of F)
Diagonalization             ....       0.000 sec  (  0.0%)
Density matrix formation    ....       0.050 sec  (  0.3%)
Total Energy calculation    ....       0.037 sec  (  0.3%)
Population analysis         ....       0.021 sec  (  0.1%)
Orbital Transformation      ....       0.032 sec  (  0.2%)
Orbital Orthonormalization  ....       0.000 sec  (  0.0%)
DIIS solution               ....       0.162 sec  (  1.1%)
SOSCF solution              ....       0.104 sec  (  0.7%)
Finished LeanSCF after  14.6 sec

Maximum memory used throughout the entire LEANSCF-calculation: 28.0 MB


-------------------------------------------------------------------------------
                          DFT DISPERSION CORRECTION                            
                                                                               
                                DFTD4 V3.4.0                                   
-------------------------------------------------------------------------------
The B3LYP functional is recognized
Active option DFTDOPT                   ...         5   

-------------------------   ----------------
Dispersion correction           -0.019491138
-------------------------   ----------------


-------------------------   --------------------
FINAL SINGLE POINT ENERGY      -363.026519647812
-------------------------   --------------------

--------------------------------------------------------------------------
WARNING: There was an error initializing an OpenFabrics device.

  Local host:   ga02
  Local device: mlx5_0
--------------------------------------------------------------------------


           ************************************************************
           *        Program running with 6 parallel MPI-processes     *
           *              working on a common directory               *
           ************************************************************
------------------------------------------------------------------------------
                         ORCA SCF GRADIENT CALCULATION
------------------------------------------------------------------------------

Nuc. rep. gradient        (SHARK) ... done (  0.0 sec)
HCore & Overlap gradient  (SHARK) ... done (  0.1 sec)
Split-RIJ-J gradient      (SHARK) ... done (  0.4 sec)
COSX-gradient                     ... [ga02:1507381] 5 more processes have sent help message help-mpi-btl-openib.txt / error in device init
[ga02:1507381] Set MCA parameter "orte_base_help_aggregate" to 0 to see all help / error messages
done (  5.7 sec)
XC gradient                       ... done (  0.8 sec)
CPCM gradient                     ... done (  0.4 sec)
Dispersion correction             ... done (  0.0 sec)

-------------------
DISPERSION GRADIENT
-------------------

   1   N   :    0.000359819    0.000103846    0.000719543
   2   C   :    0.000489539    0.000303044    0.000208860
   3   C   :    0.000217014    0.000412871   -0.000240153
   4   C   :   -0.000002323   -0.000066516   -0.000538548
   5   C   :   -0.000434411   -0.000373960   -0.000305710
   6   O   :   -0.000711171   -0.000199758    0.000107098
   7   O   :   -0.000277742   -0.000399201   -0.000205884
   8   H   :    0.000132495   -0.000019895    0.000259780
   9   H   :   -0.000092611    0.000090907    0.000198857
  10   H   :    0.000074359    0.000067918    0.000068917
  11   H   :    0.000132266    0.000029248    0.000076155
  12   H   :    0.000073950    0.000126547   -0.000107287
  13   H   :   -0.000023195    0.000145496   -0.000052242
  14   H   :    0.000058632   -0.000092934   -0.000167722
  15   H   :   -0.000016904   -0.000000830   -0.000161880
  16   H   :    0.000020283   -0.000126785    0.000140215

Difference to translation invariance:
           :   -0.0000000000   -0.0000000000   -0.0000000000

Difference to rotation invariance:
           :   -0.0000000000   -0.0000000000    0.0000000000

Norm of the Dispersion gradient    ...    0.0017894067
RMS gradient                       ...    0.0002582786
MAX gradient                       ...    0.0007195433

------------------
CARTESIAN GRADIENT
------------------

   1   N   :   -0.000037992    0.009964318   -0.024438281
   2   C   :   -0.016862666   -0.023911530    0.029849093
   3   C   :   -0.004989664   -0.003512797    0.005941242
   4   C   :   -0.008932591   -0.014540539   -0.000083361
   5   C   :    0.050087595   -0.025359419   -0.064965159
   6   O   :   -0.044556303    0.004436829    0.041255853
   7   O   :   -0.001496594    0.031914987    0.026222462
   8   H   :    0.013480433    0.001178704    0.012012316
   9   H   :   -0.010867515    0.017325232    0.005592961
  10   H   :    0.004184659    0.014420031    0.000469234
  11   H   :    0.012717935   -0.004526364   -0.006464032
  12   H   :    0.006721278    0.002865363   -0.009276535
  13   H   :   -0.010416475    0.008274577    0.000018337
  14   H   :    0.010935137   -0.004078369    0.001053447
  15   H   :   -0.005355901    0.005007836   -0.009037447
  16   H   :    0.005388664   -0.019458858   -0.008150129

Difference to translation invariance:
           :   -0.0000000000   -0.0000000000   -0.0000000000

Difference to rotation invariance:
           :    0.0011968935    0.0007412897    0.0007460318

Norm of the Cartesian gradient     ...    0.1337349549
RMS gradient                       ...    0.0193029780
MAX gradient                       ...    0.0649651586

-------
TIMINGS
-------

Total SCF gradient time     ....        7.328 sec

Densities                   ....       0.001 sec  (  0.0%)
One electron gradient       ....       0.056 sec  (  0.8%)
RI-J Coulomb gradient       ....       0.351 sec  (  4.8%)
COSX gradient               ....       5.689 sec  ( 77.6%)
XC gradient                 ....       0.803 sec  ( 11.0%)
CPCM gradient               ....       0.404 sec  (  5.5%)
   A-Matrix (El+Nuc)        ....       0.053 sec  (  0.7%)
   Potential                ....       0.351 sec  (  4.8%)

Maximum memory used throughout the entire SCFGRAD-calculation: 35.5 MB
------------------------------------------------------------------------------
                         ORCA GEOMETRY RELAXATION STEP
------------------------------------------------------------------------------

Reading the OPT-File                    .... done
Getting information on internals        .... done
Copying old internal coords+grads       .... done
Making the new internal coordinates     .... (2022 redundants) done
Validating the new internal coordinates .... (2022 redundants) done
Calculating the B-matrix                .... done
Calculating the G,G- and P matrices     .... done
Transforming gradient to internals      .... done
Projecting the internal gradient        .... done
Number of atoms                         ....  16
Number of internal coordinates          ....  65
Current Energy                          ....  -363.026519648 Eh
Current gradient norm                   ....     0.133734955 Eh/bohr
Maximum allowed component of the step   ....  0.300
Current trust radius                    ....  0.300
Evaluating the initial hessian          ....  (Almloef) done
Projecting the Hessian                  .... done
Forming the augmented Hessian           .... done
Diagonalizing the augmented Hessian     .... done
Last element of RFO vector              ....  0.957026878
Lowest eigenvalues of augmented Hessian:
 -0.020117405  0.010067177  0.010532100  0.012195765  0.013560860
Length of the computed step             ....  0.303020990
Warning: the length of the step is outside the trust region - taking restricted step instead
The input lambda is                     ....     0.009044
   iter:   5  x=   -0.002010  g=  115.076232 f(x)=     0.492952
   iter:  10  x=   -0.020702  g=    3.069799 f(x)=     0.000411
The output lambda is                    ....    -0.020703 (13 iterations)
The final length of the internal step   ....  0.300000000
Converting the step to Cartesian space:
 Initial RMS(Int)=    0.0372104204
Transforming coordinates:
 Iter   0:  RMS(Cart)=    0.0912578106 RMS(Int)=    0.0363707567
 Iter   5:  RMS(Cart)=    0.0000012432 RMS(Int)=    0.0000010798
done
Storing new coordinates                 .... done

                                .--------------------.
          ----------------------|Geometry convergence|-------------------------
          Item                value                   Tolerance       Converged
          ---------------------------------------------------------------------
          RMS gradient        0.0120508445            0.0000300000      NO
          MAX gradient        0.0563222930            0.0001000000      NO
          RMS step            0.0372104204            0.0006000000      NO
          MAX step            0.0979154677            0.0010000000      NO
          ........................................................
          Max(Bonds)      0.0441      Max(Angles)    3.99
          Max(Dihed)        5.61      Max(Improp)    0.00
          ---------------------------------------------------------------------

The optimization has not yet converged - more geometry cycles are needed


    ---------------------------------------------------------------------------
                         Redundant Internal Coordinates
                            (Angstroem and degrees)

        Definition                    Value    dE/dq     Step     New-Value
    ----------------------------------------------------------------------------
     1. B(C   1,N   0)                1.4613 -0.019137  0.0224    1.4837   
     2. B(C   2,C   1)                1.5452  0.012397 -0.0175    1.5276   
     3. B(C   3,C   2)                1.5414  0.004666 -0.0065    1.5349   
     4. B(C   4,C   3)                1.5080 -0.007490  0.0093    1.5173   
     5. B(O   5,C   4)                1.3468  0.056322 -0.0441    1.3027   
     6. B(O   6,C   4)                1.2204 -0.037778  0.0188    1.2392   
     7. B(H   7,N   0)                1.0456  0.017623 -0.0233    1.0223   
     8. B(H   8,N   0)                1.0454  0.019190 -0.0253    1.0201   
     9. B(H   9,C   1)                1.1128  0.014329 -0.0216    1.0913   
    10. B(H  10,C   1)                1.1128  0.014306 -0.0215    1.0913   
    11. B(H  11,C   2)                1.1123  0.011282 -0.0169    1.0953   
    12. B(H  12,C   2)                1.1116  0.013041 -0.0195    1.0920   
    13. B(H  13,C   3)                1.1115  0.011029 -0.0165    1.0950   
    14. B(H  14,C   3)                1.1117  0.011177 -0.0167    1.0950   
    15. B(H  15,N   0)                1.0440  0.019226 -0.0253    1.0187   
    16. A(H   8,N   0,H  15)          111.30  0.011000   -2.74    108.56   
    17. A(H   7,N   0,H   8)          108.42  0.002205    0.02    108.44   
    18. A(C   1,N   0,H   8)          110.26 -0.003878    0.47    110.72   
    19. A(C   1,N   0,H  15)          110.52 -0.006362    0.92    111.44   
    20. A(C   1,N   0,H   7)          108.67 -0.005607    1.34    110.01   
    21. A(H   7,N   0,H  15)          107.58  0.002587    0.06    107.64   
    22. A(H   9,C   1,H  10)          107.55  0.000135    0.42    107.97   
    23. A(C   2,C   1,H  10)          109.52 -0.004186    0.67    110.19   
    24. A(N   0,C   1,H  10)          109.39  0.001893   -0.68    108.71   
    25. A(C   2,C   1,H   9)          107.59 -0.004750    1.14    108.73   
    26. A(N   0,C   1,C   2)          114.13  0.004035   -0.80    113.33   
    27. A(N   0,C   1,H   9)          108.44  0.002657   -0.66    107.78   
    28. A(C   1,C   2,H  11)          105.00 -0.000990    0.62    105.62   
    29. A(C   3,C   2,H  12)          110.61 -0.000077   -0.41    110.20   
    30. A(C   1,C   2,H  12)          111.57  0.002799   -1.20    110.36   
    31. A(C   3,C   2,H  11)          106.41 -0.002558    1.23    107.64   
    32. A(C   1,C   2,C   3)          115.47  0.001053   -0.25    115.22   
    33. A(H  11,C   2,H  12)          107.17 -0.000747    0.26    107.43   
    34. A(H  13,C   3,H  14)          107.83  0.001822   -0.47    107.36   
    35. A(C   2,C   3,C   4)          115.71 -0.002505    0.43    116.14   
    36. A(C   4,C   3,H  14)          105.72 -0.001246    0.28    106.00   
    37. A(C   2,C   3,H  14)          107.95  0.000494    0.14    108.09   
    38. A(C   4,C   3,H  13)          110.44  0.004670   -1.07    109.37   
    39. A(C   2,C   3,H  13)          108.86 -0.002941    0.64    109.50   
    40. A(O   5,C   4,O   6)          119.06 -0.032009    3.99    123.04   
    41. A(C   3,C   4,O   6)          119.14  0.006232   -0.46    118.68   
    42. A(C   3,C   4,O   5)          121.72  0.025626   -3.12    118.60   
    43. D(H   9,C   1,N   0,H   8)     63.48 -0.004062    1.42     64.91   
    44. D(H   9,C   1,N   0,H   7)    -55.21 -0.001073    0.31    -54.90   
    45. D(H   9,C   1,N   0,H  15)   -173.04  0.002846   -1.11   -174.15   
    46. D(C   2,C   1,N   0,H  15)     67.06  0.004406   -1.58     65.48   
[...]
      dxz     :     0.040462
      dyz     :     0.034873
      dx2y2   :     0.009309
      dxy     :     0.036557
      f0      :     0.002225  f :     0.009916
      f+1     :     0.001386
      f-1     :     0.000937
      f+2     :     0.001555
      f-2     :     0.001703
      f+3     :     0.001385
      f-3     :     0.000725

  1 C s       :     2.799138  s :     2.799138
      pz      :     0.934663  p :     2.972306
      px      :     0.994998
      py      :     1.042645
      dz2     :     0.114684  d :     0.432133
      dxz     :     0.103371
      dyz     :     0.080345
      dx2y2   :     0.033238
      dxy     :     0.100495
      f0      :     0.009657  f :     0.050353
      f+1     :     0.009031
      f-1     :     0.007234
      f+2     :     0.009305
      f-2     :     0.008118
      f+3     :     0.004025
      f-3     :     0.002983

  2 C s       :     2.781508  s :     2.781508
      pz      :     1.012059  p :     3.054489
      px      :     1.023958
      py      :     1.018472
      dz2     :     0.070728  d :     0.385269
      dxz     :     0.084133
      dyz     :     0.091250
      dx2y2   :     0.043507
      dxy     :     0.095650
      f0      :     0.006174  f :     0.038245
      f+1     :     0.004575
      f-1     :     0.006664
      f+2     :     0.004832
      f-2     :     0.007134
      f+3     :     0.003110
      f-3     :     0.005757

  3 C s       :     2.792101  s :     2.792101
      pz      :     1.022411  p :     3.063389
      px      :     1.027773
      py      :     1.013205
      dz2     :     0.081885  d :     0.355767
      dxz     :     0.046275
      dyz     :     0.065768
      dx2y2   :     0.053939
      dxy     :     0.107900
      f0      :     0.003230  f :     0.035331
      f+1     :     0.004696
      f-1     :     0.005972
      f+2     :     0.004577
      f-2     :     0.005117
      f+3     :     0.004598
      f-3     :     0.007141

  4 C s       :     2.779452  s :     2.779452
      pz      :     0.965980  p :     2.703332
      px      :     0.886690
      py      :     0.850661
      dz2     :     0.293150  d :     0.993830
      dxz     :     0.257942
      dyz     :     0.245403
      dx2y2   :     0.095944
      dxy     :     0.101391
      f0      :     0.026920  f :     0.159033
      f+1     :     0.042298
      f-1     :     0.038401
      f+2     :     0.018559
      f-2     :     0.015117
      f+3     :     0.008936
      f-3     :     0.008802

  5 O s       :     3.417548  s :     3.417548
      pz      :     1.451283  p :     4.611913
      px      :     1.585432
      py      :     1.575198
      dz2     :     0.026458  d :     0.061972
      dxz     :     0.016964
      dyz     :     0.015522
      dx2y2   :     0.000447
      dxy     :     0.002580
      f0      :     0.002318  f :     0.005201
      f+1     :     0.001335
      f-1     :     0.001253
      f+2     :     0.000019
      f-2     :     0.000204
      f+3     :     0.000021
      f-3     :     0.000050

  6 O s       :     3.423760  s :     3.423760
      pz      :     1.610823  p :     4.606707
      px      :     1.501918
      py      :     1.493966
      dz2     :     0.013675  d :     0.060594
      dxz     :     0.014489
      dyz     :     0.013105
      dx2y2   :     0.006814
      dxy     :     0.012511
      f0      :     0.000744  f :     0.005419
      f+1     :     0.000981
      f-1     :     0.000846
      f+2     :     0.000665
      f-2     :     0.001382
      f+3     :     0.000370
      f-3     :     0.000430

  7 H s       :     0.692938  s :     0.692938
      pz      :     0.040309  p :     0.103712
      px      :     0.035170
      py      :     0.028233

  8 H s       :     0.691706  s :     0.691706
      pz      :     0.025983  p :     0.103094
      px      :     0.031888
      py      :     0.045224

  9 H s       :     0.798748  s :     0.798748
      pz      :     0.012516  p :     0.060681
      px      :     0.017009
      py      :     0.031155

 10 H s       :     0.795772  s :     0.795772
      pz      :     0.011848  p :     0.060257
      px      :     0.024409
      py      :     0.023999

 11 H s       :     0.790595  s :     0.790595
      pz      :     0.020723  p :     0.058988
      px      :     0.019025
      py      :     0.019241

 12 H s       :     0.796645  s :     0.796645
      pz      :     0.013771  p :     0.059146
      px      :     0.026595
      py      :     0.018780

 13 H s       :     0.788834  s :     0.788834
      pz      :     0.013602  p :     0.059765
      px      :     0.026443
      py      :     0.019721

 14 H s       :     0.796853  s :     0.796853
      pz      :     0.030825  p :     0.059402
      px      :     0.015203
      py      :     0.013374

 15 H s       :     0.640645  s :     0.640645
      pz      :     0.047028  p :     0.187569
      px      :     0.073354
      py      :     0.067187



                      *****************************
                      * MAYER POPULATION ANALYSIS *
                      *****************************

  NA   - Mulliken gross atomic population
  ZA   - Total nuclear charge
  QA   - Mulliken gross atomic charge
  VA   - Mayer's total valence
  BVA  - Mayer's bonded valence
  FA   - Mayer's free valence

  ATOM       NA         ZA         QA         VA         BVA        FA
  0 N      7.3030     7.0000    -0.3030     3.3709     3.3709    -0.0000
  1 C      6.1409     6.0000    -0.1409     3.8562     3.8562     0.0000
  2 C      6.1881     6.0000    -0.1881     3.8465     3.8465    -0.0000
  3 C      6.2311     6.0000    -0.2311     3.6837     3.6837    -0.0000
  4 C      5.7313     6.0000     0.2687     4.4800     4.4800     0.0000
  5 O      8.5597     8.0000    -0.5597     1.7889     1.7889    -0.0000
  6 O      8.5302     8.0000    -0.5302     1.9127     1.9127     0.0000
  7 H      0.6957     1.0000     0.3043     0.9067     0.9067    -0.0000
  8 H      0.6983     1.0000     0.3017     0.9093     0.9093    -0.0000
  9 H      0.8486     1.0000     0.1514     0.9626     0.9626    -0.0000
 10 H      0.8507     1.0000     0.1493     0.9653     0.9653     0.0000
 11 H      0.8777     1.0000     0.1223     0.9647     0.9647    -0.0000
 12 H      0.8802     1.0000     0.1198     0.9689     0.9689    -0.0000
 13 H      0.8859     1.0000     0.1141     0.9746     0.9746    -0.0000
 14 H      0.8938     1.0000     0.1062     0.9931     0.9931    -0.0000
 15 H      0.6849     1.0000     0.3151     0.9799     0.9799    -0.0000

  Mayer bond orders larger than 0.100000
B(  0-N ,  1-C ) :   0.9047 B(  0-N ,  7-H ) :   0.8891 B(  0-N ,  8-H ) :   0.8912 
B(  0-N , 15-H ) :   0.7124 B(  1-C ,  2-C ) :   0.9731 B(  1-C ,  9-H ) :   0.9689 
B(  1-C , 10-H ) :   0.9652 B(  2-C ,  3-C ) :   0.9333 B(  2-C , 11-H ) :   0.9560 
B(  2-C , 12-H ) :   0.9679 B(  3-C ,  4-C ) :   0.9591 B(  3-C , 13-H ) :   0.9392 
B(  3-C , 14-H ) :   0.9595 B(  4-C ,  5-O ) :   1.5667 B(  4-C ,  6-O ) :   1.9036 
B(  5-O , 15-H ) :   0.2522 

-------
TIMINGS
-------

Total SCF time: 0 days 0 hours 0 min 6 sec 

Total time                  ....       6.633 sec
Sum of individual times     ....       6.596 sec  ( 99.4%)

SCF preparation             ....       0.349 sec  (  5.3%)
Fock matrix formation       ....       6.023 sec  ( 90.8%)
  Startup                   ....       0.010 sec  (  0.2% of F)
  Split-RI-J                ....       0.296 sec  (  4.9% of F)
  Chain of spheres X        ....       4.675 sec  ( 77.6% of F)
  XC integration            ....       0.622 sec  ( 10.3% of F)
    XC Preparation          ....       0.000 sec  (  0.0% of XC)
    Basis function eval.    ....       0.173 sec  ( 27.8% of XC)
    Density eval.           ....       0.150 sec  ( 24.1% of XC)
    XC-Functional eval.     ....       0.027 sec  (  4.4% of XC)
    XC-Potential eval.      ....       0.229 sec  ( 36.8% of XC)
  CPCM terms                ....       0.398 sec  (  6.6% of F)
Diagonalization             ....       0.000 sec  (  0.0%)
Density matrix formation    ....       0.015 sec  (  0.2%)
Total Energy calculation    ....       0.014 sec  (  0.2%)
Population analysis         ....       0.100 sec  (  1.5%)
Orbital Transformation      ....       0.016 sec  (  0.2%)
Orbital Orthonormalization  ....       0.000 sec  (  0.0%)
DIIS solution               ....       0.023 sec  (  0.3%)
SOSCF solution              ....       0.056 sec  (  0.8%)
Finished LeanSCF after   6.8 sec

Maximum memory used throughout the entire LEANSCF-calculation: 31.9 MB


-------------------------------------------------------------------------------
                          DFT DISPERSION CORRECTION                            
                                                                               
                                DFTD4 V3.4.0                                   
-------------------------------------------------------------------------------
The B3LYP functional is recognized
Active option DFTDOPT                   ...         5   

-------------------------   ----------------
Dispersion correction           -0.019628987
-------------------------   ----------------


-------------------------   --------------------
FINAL SINGLE POINT ENERGY      -363.052667756004
-------------------------   --------------------

                                *** OPTIMIZATION RUN DONE ***

--------------------------------------------------------------------------
WARNING: There was an error initializing an OpenFabrics device.

  Local host:   ga02
  Local device: mlx5_0
--------------------------------------------------------------------------


           ************************************************************
           *        Program running with 6 parallel MPI-processes     *
           *              working on a common directory               *
           ************************************************************

------------------------------------------------------------------------------
                              ORCA PROPERTY CALCULATIONS
------------------------------------------------------------------------------

GBWName                                 ... 08_Aminobutyric-acid_zwitterion.gbw
Number of atoms                         ...     16
Number of basis functions               ...    271
Max core memory                         ...   5000 MB

Electric properties:
Dipole moment                           ... YES
Quadrupole moment                       ...  NO
Static polarizability (Dipole/Dipole)   ...  NO
Static polarizability (Dipole/Quad.)    ...  NO
Static polarizability (Quad./Quad.)     ...  NO
Static polarizability (Velocity)        ...  NO

Atomic electric properties:
Dipole moment                           ...  NO
Quadrupole moment                       ...  NO
Static polarizability                   ...  NO

Choice of electric origin               ... Center of mass
Position of electric origin             ...    -1.605172     0.930430    -2.223124

General magnetic properties:
Magnetizability                         ...  NO

EPR properties:
g-Tensor (aka g-matrix)                 ...  NO
Zero-Field splitting spin-orbit         ...  NO
Zero-field splitting spin-spin          ...  NO
Hyperfine couplings                     ...  NO (   0 nuclei)
Quadrupole couplings                    ...  NO (   0 nuclei)
Contact density                         ...  NO (   0 nuclei)

NMR properties:
Chemical shifts                         ...  NO (   0 nuclei)
Spin-rotation constants                 ...  NO (   0 nuclei)
Spin-spin couplings                     ...  NO (   0 nuclei,    0 pairs)

Choice of magnetic origin               ... GIAO
Position of magnetic origin             ...     0.000000     0.000000     0.000000

Properties with geometric perturbations:
SCF Hessian                             ...  NO
IR spectrum                             ...  NO
VCD spectrum                            ...  NO
X-ray spectroscopy properties:
SCF XES/XAS/RIXS spectra                ...  NO


-------------
DIPOLE MOMENT
-------------

Method             : SCF
Type of density    : Electron Density
Multiplicity       :   1
Irrep              :   0
Energy             :  -363.0330387693196030 Eh
Relativity type    : 
Basis              : AO
                                X                 Y                 Z
Electronic contribution:     -3.845335273      -3.770481303       0.043679261
Nuclear contribution   :      7.549384470       7.207496077       2.955816033
                        -----------------------------------------
Total Dipole Moment    :      3.704049196       3.437014774       2.999495294
                        -----------------------------------------
Magnitude (a.u.)       :      5.876225236
Magnitude (Debye)      :     14.936177553



--------------------
Rotational spectrum 
--------------------
 
Rotational constants in cm-1:             0.159511             0.060094             0.046263 
Rotational constants in MHz :          4782.029000          1801.579891          1386.923308 

Dipole components along the rotational axes: 
x,y,z [a.u.] :     5.872161    -0.196225    -0.096119 
x,y,z [Debye]:    14.925848    -0.498765    -0.244315 

 

Dipole moment calculation done in   0.0 sec 

Maximum memory used throughout the entire PROP-calculation: 18.2 MB
[ga02:1517195] 5 more processes have sent help message help-mpi-btl-openib.txt / error in device init
[ga02:1517195] Set MCA parameter "orte_base_help_aggregate" to 0 to see all help / error messages
--------------------------------------------------------------------------
WARNING: There was an error initializing an OpenFabrics device.

  Local host:   ga02
  Local device: mlx5_0
--------------------------------------------------------------------------
[ga02:1517223] 5 more processes have sent help message help-mpi-btl-openib.txt / error in device init
[ga02:1517223] Set MCA parameter "orte_base_help_aggregate" to 0 to see all help / error messages

--------------------------------
SUGGESTED CITATIONS FOR THIS RUN
--------------------------------

Below you find a list of papers that are relevant to this ORCA run
We neither can nor want to force you to cite these papers, but we appreciate if you do
You receive ORCA, which is the product of decades of hard work by many enthusiastic individuals, for free
The only thing we kindly ask in return is that you cite our papers,
We deeply appreciate it, if you show your appreciation for ORCA by not just citing the generic ORCA reference.

Please note that relegating all ORCA citations to the supporting information does *not* help us.
SI sections are not indexed - citations you put there will not count into any citation statistics
But we need these citations in order to attract the funding resources that allow us to do what we are doing

Therefore, if you are a happy ORCA user, please consider citing a few of the papers listed below in the main body of your paper

In addition to the list printed below, the program has created the file 08_Aminobutyric-acid_zwitterion.bibtex that contains the list in bibtex format
You can import this file easily into all common literature databanks and citation aid programs


List of essential papers. We consider these as the minimum necessary citations

  1. Neese,F.
     Software update: the ORCA program system, version 5.0
     WIRES Comput. Molec. Sci., 2022 12(1)e1606
     doi.org/10.1002/wcms.1606

List of papers to cite with high priority. The work reported in these papers was absolutely
necessary for this run to complete.
Our perspective: the developers of density functionals and basis sets usually get cited in chemistry papers
Good! But without the algorithms to do something with them, the functionals or basis sets would not do anything.
Hence, in our opinion, the algorithm design and method developments papers are equally worthy of getting cited

  1. Neese,F.
     An improvement of the resolution of the identity approximation for the formation of the Coulomb matrix
     J. Comp. Chem., 2003 24(14)1740-1747
     doi.org/10.1002/jcc.10318
  2. Neese,F.; Wennmohs,F.; Hansen,A.; Becker,U.
     Efficient, approximate and parallel Hartree-Fock and hybrid DFT calculations. A 'chain-of-spheres' algorithm for the Hartree-Fock exchange
     Chem. Phys., 2009 356(1-3)98-109
     doi.org/10.1016/j.chemphys.2008.10.036
  3. Garcia-Rates,M.; Neese,F.
     Effect of the Solute Cavity on the Solvation Energy and its Derivatives within the Framework of the Gaussian Charge Scheme
     J. Comput. Chem., 2020 41 922-939
     doi.org/10.1002/jcc.26139
  4. Helmich-Paris,B.; de Souza,B.; Neese,F.; Izsák,R.
     An improved chain of spheres for exchange algorithm
     J. Chem. Phys., 2021 155 104109
     doi.org/doi: 10.1063/5.0058766.
  5. Neese,F.
     The SHARK Integral Generation and Digestion System
     J. Comp. Chem., 2022  1-16
     doi.org/10.1002/jcc.26942
  6. Caldeweyher,E.; Bannwarth,C.; Grimme,S.
     Extension of the D3 dispersion coefficient model
     J. Chem. Phys., 2017 147 034112
     doi.org/10.1063/1.4993215
  7. Caldeweyher,E.; Ehlert,S.; Hansen,A.; Neugebauer,H.; Spicher,S.; Bannwarth,C.; Grimme,S.
     A generally applicable atomic-charge dependent London dispersion correction
     J. Chem. Phys., 2019 150 154122
     doi.org/10.1063/1.5090222
  8. Caldeweyher,E.; Mewes,J.; Ehlert,S.; Grimme,S.
     Extension and evaluation of the D4 London-dispersion model for periodic systems
     Phys. Chem. Chem. Phys., 2020 22(16)8499-8512
     doi.org/10.1039/D0CP00502A
  9. Wittmann,L.; Gordiy,I.; Friede,M.; Helmich-Paris,B.; Grimme,S.; Hansen,A.; Bursch,M.
     Extension of the D3 and D4 London Dispersion Corrections to the full Actinides Series
     Phys. Chem. Chem. Phys., 2024 26(32)21379-21394
     doi.org/https://doi.org/10.1039/D4CP01514B 

List of suggested additional citations. These are papers that are important in the 'surrounding' of 
of this run, or papers that preceded the highly important papers. If you like your results we are grateful for a citation.

  1. Izsak,R.; Neese,F.
     An overlap fitted chain of spheres exchange method
     J. Chem. Phys., 2011 135 144105
     doi.org/10.1063/1.3646921
  2. Izsak,R.; Hansen,A.; Neese,F.
     The resolution of identity and chain of spheres approximations for the LPNO-CCSD singles Fock term
     Molec. Phys., 2012 110 2413-2417
     doi.org/10.1080/00268976.2012.687466
  3. Neese,F.
     The ORCA program system
     WIRES Comput. Molec. Sci., 2012 2(1)73-78
     doi.org/10.1002/wcms.81
  4. Izsak,R.; Neese,F.; Klopper,W.
     Robust fitting techniques in the chain of spheres approximation to the Fock exchange: The role of the complementary space
     J. Chem. Phys., 2013 139 
     doi.org/10.1063/1.4819264
  5. Neese,F.
     Software update: the ORCA program system, version 4.0
     WIRES Comput. Molec. Sci., 2018 8(1)1-6
     doi.org/10.1002/wcms.1327
  6. Neese,F.; Wennmohs,F.; Becker,U.; Riplinger,C.
     The ORCA quantum chemistry program package
     J. Chem. Phys., 2020 152 Art. No. L224108
     doi.org/10.1063/5.0004608

List of optional additional citations

  1. Neese,F.
     Approximate second-order SCF convergence for spin unrestricted wavefunctions
     Chem. Phys. Lett., 2000 325(1-3)93-98
     doi.org/10.1016/s0009-2614(00)00662-x

Timings for individual modules:

Sum of individual times          ...      626.426 sec (=  10.440 min)
Startup calculation              ...       32.258 sec (=   0.538 min)   5.1 %
SCF iterations                   ...      353.578 sec (=   5.893 min)  56.4 %
Property calculations            ...        0.447 sec (=   0.007 min)   0.1 %
SCF Gradient evaluation          ...      239.993 sec (=   4.000 min)  38.3 %
Geometry relaxation              ...        0.150 sec (=   0.003 min)   0.0 %
                             ****ORCA TERMINATED NORMALLY****
TOTAL RUN TIME: 0 days 0 hours 10 minutes 38 seconds 904 msec
