[Molden Format]
[Title]
 Molden file created by orca_2mkl for BaseName=input

[Atoms] AU
H    1   1          2.4168792998         0.6246004676         0.3658183641 
C    2   6          0.4614134386         0.2421190183        -0.1538114631 
H    3   1          0.3606653163         2.4865978256        -3.4396823890 
H    4   1          0.3753791723        -1.4911286811        -1.2557578581 
N    5   7         -0.5285794666         2.3168990649        -1.7051614272 
H    6   1         -1.0446948869        -1.9825681139         2.9168777642 
C    7   6         -1.1572209791        -0.0545986625         2.2096515265 
O    8   8         -2.1889731728         2.4450353050         5.8023886470 
C    9   6         -0.4023610976         1.5456571324         4.4740967400 
H   10   1         -0.3321672057         4.0223840146        -0.7751960067 
O   11   8          1.8668295331         1.8573686498         5.0212180232 
H   12   1         -2.4494584623         2.0702867993        -2.0455889674 
H   13   1         -3.1352528950         0.3093561913         1.7791881701 
[GTO]
  1 0 
s   3 1.0  
       34.0613410000         0.0254393072 
        5.1235746000         0.1900859489 
        1.1646626000         0.8524411301 
s   1 1.0  
        0.3272304100         1.0000000002 
s   1 1.0  
        0.1030724100         1.0000000001 
p   1 1.0  
        0.8000000000         1.0000000000 

  2 0 
s   6 1.0  
    13575.3496820000         0.0006064549 
     2035.2333680000         0.0046979088 
      463.2256235900         0.0243324776 
      131.2001959800         0.0973999683 
       42.8530158910         0.3019558425 
       15.5841857660         0.6623360915 
s   2 1.0  
        6.2067138508         0.6559530853 
        2.5764896527         0.3758563329 
s   1 1.0  
        0.5769633942         1.0000000000 
s   1 1.0  
        0.2297283136         1.0000000000 
s   1 1.0  
        0.0951644400         1.0000000003 
p   4 1.0  
       34.6972322440         0.0113272200 
        7.9582622826         0.0761696592 
        2.3780826883         0.3019225220 
        0.8143320818         0.7278502735 
p   1 1.0  
        0.2888754725         0.9999999999 
p   1 1.0  
        0.1005682367         0.9999999995 
d   1 1.0  
        1.0970000000         1.0000000000 
d   1 1.0  
        0.3180000000         1.0000000000 
f   1 1.0  
        0.7610000000         1.0000000000 

  3 0 
s   3 1.0  
       34.0613410000         0.0254393072 
        5.1235746000         0.1900859489 
        1.1646626000         0.8524411301 
s   1 1.0  
        0.3272304100         1.0000000002 
s   1 1.0  
        0.1030724100         1.0000000001 
p   1 1.0  
        0.8000000000         1.0000000000 

  4 0 
s   3 1.0  
       34.0613410000         0.0254393072 
        5.1235746000         0.1900859489 
        1.1646626000         0.8524411301 
s   1 1.0  
        0.3272304100         1.0000000002 
s   1 1.0  
        0.1030724100         1.0000000001 
p   1 1.0  
        0.8000000000         1.0000000000 

  5 0 
s   6 1.0  
    19730.8006470000         0.0005862639 
     2957.8958745000         0.0045428821 
      673.2213359500         0.0235584136 
      190.6824949400         0.0947091933 
       62.2954418980         0.2971978492 
       22.6541611820         0.6691624689 
s   2 1.0  
        8.9791477428         0.6459668363 
        3.6863002370         0.3870057440 
s   1 1.0  
        0.8466007680         1.0000000000 
s   1 1.0  
        0.3364713377         0.9999999998 
s   1 1.0  
        0.1364765367         1.0000000003 
p   4 1.0  
       49.2003805100         0.0114488252 
       11.3467905370         0.0784223379 
        3.4273972411         0.3081809474 
        1.1785525134         0.7202719637 
p   1 1.0  
        0.4164220497         0.9999999999 
p   1 1.0  
        0.1426082601         0.9999999997 
d   1 1.0  
        1.6540000000         1.0000000000 
d   1 1.0  
        0.4690000000         1.0000000000 
f   1 1.0  
        1.0930000000         1.0000000000 

  6 0 
s   3 1.0  
       34.0613410000         0.0254393072 
        5.1235746000         0.1900859489 
        1.1646626000         0.8524411301 
s   1 1.0  
        0.3272304100         1.0000000002 
s   1 1.0  
        0.1030724100         1.0000000001 
p   1 1.0  
        0.8000000000         1.0000000000 

  7 0 
s   6 1.0  
    13575.3496820000         0.0006064549 
     2035.2333680000         0.0046979088 
      463.2256235900         0.0243324776 
      131.2001959800         0.0973999683 
       42.8530158910         0.3019558425 
       15.5841857660         0.6623360915 
s   2 1.0  
        6.2067138508         0.6559530853 
        2.5764896527         0.3758563329 
s   1 1.0  
        0.5769633942         1.0000000000 
s   1 1.0  
        0.2297283136         1.0000000000 
s   1 1.0  
        0.0951644400         1.0000000003 
p   4 1.0  
       34.6972322440         0.0113272200 
        7.9582622826         0.0761696592 
        2.3780826883         0.3019225220 
        0.8143320818         0.7278502735 
p   1 1.0  
        0.2888754725         0.9999999999 
p   1 1.0  
        0.1005682367         0.9999999995 
d   1 1.0  
        1.0970000000         1.0000000000 
d   1 1.0  
        0.3180000000         1.0000000000 
f   1 1.0  
        0.7610000000         1.0000000000 

  8 0 
s   6 1.0  
    27032.3826310000         0.0005722733 
     4052.3871392000         0.0044353233 
      922.3272271000         0.0230201076 
      261.2407098900         0.0928224906 
       85.3546413510         0.2937850002 
       31.0350352450         0.6740160450 
s   2 1.0  
       12.2608607280         0.6383993703 
        4.9987076005         0.3953458713 
s   1 1.0  
        1.1703108158         1.0000000000 
s   1 1.0  
        0.4647474099         1.0000000000 
s   1 1.0  
        0.1850453636         0.9999999999 
p   4 1.0  
       63.2749548010         0.0120183321 
       14.6270493790         0.0830054217 
        4.4501223456         0.3199174393 
        1.5275799647         0.7071554292 
p   1 1.0  
        0.5293511794         1.0000000000 
p   1 1.0  
        0.1747842127         1.0000000000 
d   1 1.0  
        2.3140000000         1.0000000000 
d   1 1.0  
        0.6450000000         1.0000000000 
f   1 1.0  
        1.4280000000         1.0000000000 

  9 0 
s   6 1.0  
    13575.3496820000         0.0006064549 
     2035.2333680000         0.0046979088 
      463.2256235900         0.0243324776 
      131.2001959800         0.0973999683 
       42.8530158910         0.3019558425 
       15.5841857660         0.6623360915 
s   2 1.0  
        6.2067138508         0.6559530853 
        2.5764896527         0.3758563329 
s   1 1.0  
        0.5769633942         1.0000000000 
s   1 1.0  
        0.2297283136         1.0000000000 
s   1 1.0  
        0.0951644400         1.0000000003 
p   4 1.0  
       34.6972322440         0.0113272200 
        7.9582622826         0.0761696592 
        2.3780826883         0.3019225220 
        0.8143320818         0.7278502735 
p   1 1.0  
        0.2888754725         0.9999999999 
p   1 1.0  
        0.1005682367         0.9999999995 
d   1 1.0  
        1.0970000000         1.0000000000 
d   1 1.0  
        0.3180000000         1.0000000000 
f   1 1.0  
        0.7610000000         1.0000000000 

 10 0 
s   3 1.0  
       34.0613410000         0.0254393072 
        5.1235746000         0.1900859489 
        1.1646626000         0.8524411301 
s   1 1.0  
        0.3272304100         1.0000000002 
s   1 1.0  
        0.1030724100         1.0000000001 
p   1 1.0  
        0.8000000000         1.0000000000 

 11 0 
s   6 1.0  
    27032.3826310000         0.0005722733 
     4052.3871392000         0.0044353233 
      922.3272271000         0.0230201076 
      261.2407098900         0.0928224906 
       85.3546413510         0.2937850002 
       31.0350352450         0.6740160450 
s   2 1.0  
       12.2608607280         0.6383993703 
        4.9987076005         0.3953458713 
s   1 1.0  
        1.1703108158         1.0000000000 
s   1 1.0  
        0.4647474099         1.0000000000 
s   1 1.0  
        0.1850453636         0.9999999999 
p   4 1.0  
       63.2749548010         0.0120183321 
       14.6270493790         0.0830054217 
        4.4501223456         0.3199174393 
        1.5275799647         0.7071554292 
p   1 1.0  
        0.5293511794         1.0000000000 
p   1 1.0  
        0.1747842127         1.0000000000 
d   1 1.0  
        2.3140000000         1.0000000000 
d   1 1.0  
        0.6450000000         1.0000000000 
f   1 1.0  
        1.4280000000         1.0000000000 

 12 0 
s   3 1.0  
       34.0613410000         0.0254393072 
        5.1235746000         0.1900859489 
        1.1646626000         0.8524411301 
s   1 1.0  
        0.3272304100         1.0000000002 
s   1 1.0  
        0.1030724100         1.0000000001 
p   1 1.0  
        0.8000000000         1.0000000000 

 13 0 
s   3 1.0  
       34.0613410000         0.0254393072 
        5.1235746000         0.1900859489 
        1.1646626000         0.8524411301 
s   1 1.0  
        0.3272304100         1.0000000002 
s   1 1.0  
        0.1030724100         1.0000000001 
p   1 1.0  
        0.8000000000         1.0000000000 

[5D]
[9G]
[MO]
 Sym=     1a
 Ene= -1.90556170107818E+01
 Spin= Alpha
 Occup= 2.000000
  1       0.000051027126
  2      -0.000179852960
  3       0.000153836181
  4       0.000053511839
  5       0.000019801040
  6       0.000019057689
  7       0.000002528562
  8      -0.000011235354
  9      -0.000011576337
 10       0.000237682199
 11       0.000167240725
 12      -0.000014484292
 13       0.000008053535
 14       0.000035791585
 15       0.000222561350
 16      -0.000181330240
 17       0.000076961381
 18      -0.000044629974
 19       0.001082569054
 20      -0.000211749171
 21       0.000015610205
 22       0.000013316690
 23       0.000032206787
 24       0.000007459651
 25       0.000034095987
 26       0.000018644551
 27       0.000192600663
 28      -0.000497329710
 29      -0.000115996845
 30       0.000029876499
 31       0.000033548111
 32       0.000036724299
 33      -0.000031239702
 34      -0.000024408995
 35       0.000084038071
 36       0.000024614017
 37      -0.000043424825
 38      -0.000009909156
 39       0.000467756221
 40       0.000092997758
 41      -0.000027611257
 42       0.000009078212
 43       0.000087517981
 44       0.000028814759
 45       0.000105492717
 46       0.000146017848
 47       0.000011684600
 48       0.000032655706
 49      -0.000067422134
 50       0.000001458617
 51      -0.000008946904
 52       0.000207280783
 53      -0.000877225950
 54      -0.000232823189
 55      -0.000000898219
 56      -0.000012003198
 57       0.000015308576
 58      -0.000102176537
 59       0.000101380942
 60      -0.000105542829
 61      -0.000564870478
 62      -0.000227351614
 63       0.000594851859
 64      -0.000009950022
 65      -0.000022037531
 66       0.000009789067
 67       0.000018763141
 68      -0.000005602292
 69       0.000007285518
 70       0.000076663351
 71      -0.000027520231
 72      -0.000036323158
 73       0.000031274956
 74       0.000018465648
 75      -0.000024277598
 76      -0.000007391573
 77       0.000020391058
 78       0.000004015730
 79       0.000003416498
 80       0.000003985076
 81      -0.000151469232
 82      -0.001113309062
 83       0.000297185994
 84       0.000099119965
 85      -0.000193079218
 86       0.000003018061
 87       0.000013458827
 88      -0.000063869777
 89      -0.000085535723
 90       0.003933095244
 91      -0.006519437615
 92       0.000008757659
 93       0.000080411942
 94       0.000059164952
 95       0.001958693584
 96       0.000739301731
 97       0.002071011932
 98       0.002136880857
 99      -0.002633288522
100      -0.001293254096
101       0.000033438752
102      -0.000005453981
103       0.000186021331
104       0.000057090952
105      -0.000022303414
106       0.000580082964
107       0.000760923155
108      -0.000317017508
109      -0.001301982555
110       0.000975524094
111       0.000006173051
112       0.000030413191
113       0.000053489548
114      -0.000105842239
115       0.000034078037
116      -0.000039295769
117      -0.000064023172
118      -0.000276507098
119      -0.000398346300
120      -0.000253005963
121       0.001915500900
122      -0.002228954482
123       0.000050503144
124      -0.000041703126
125      -0.000080989333
126       0.000542495138
127       0.000039924420
128       0.000144177429
129       0.000826810852
130       0.000435201427
131       0.000626941682
132       0.000035503438
133      -0.000003257924
134       0.000089448327
135       0.000026052797
136      -0.000004484441
137      -0.000240208426
138      -0.000088255911
139      -0.000368910408
140       0.000045547012
141      -0.000053133126
142       0.000014724679
143       0.000029869075
144       0.000063517521
145      -0.000028854831
146      -0.000033163456
147      -0.000069661514
148       0.000003308282
149       0.000045161731
150      -0.000265408358
151       0.000427603237
152       0.003865062838
153      -0.000231096788
154       0.000560888484
155      -0.000018923485
156       0.000106214831
157       0.008097417528
158       0.002100224931
159       0.002895625913
160      -0.006929904218
161      -0.000796986011
162      -0.001592254609
163      -0.000179163508
164       0.000176663118
165       0.000131357703
166       0.000359107719
167       0.000115754427
168      -0.002800241218
169       0.002019387983
170      -0.001358505372
171       0.004181315433
172       0.001057114124
173      -0.000023733227
174       0.000025102787
175       0.000099028102
176      -0.000020151364
177       0.000335258029
178       0.000184669652
179       0.000003372434
180      -0.000014275407
181       0.000136409815
182       0.000227021774
183       0.000023978925
184      -0.000095181727
185      -0.000018165526
186       0.435085571310
187       0.639516238239
188       0.036430561690
189      -0.030788155341
190       0.012280149413
191      -0.001927937089
192      -0.000290965227
193      -0.000497440013
194       0.006264227295
195       0.000910114960
196       0.001539231664
197      -0.000718968812
198      -0.000172995824
199      -0.000261863884
200      -0.000138903245
201       0.000128890317
202      -0.000036011133
203       0.000221219718
204       0.000076535122
205       0.000725880301
206      -0.000662284975
207       0.000071182322
208      -0.001248812260
209      -0.000388910881
210      -0.000063633556
211      -0.000090397681
212      -0.000011175089
213       0.000083231609
214       0.000010319825
215       0.000136787143
216       0.000054283675
217       0.000027988676
218      -0.000065475682
219      -0.000080007236
220       0.000029776233
221       0.000003858086
222       0.000020749510
223       0.000088393457
224       0.001799417192
225       0.001217589731
226       0.000199163517
227      -0.000034370219
228       0.000187675569
 Sym=     1a
 Ene= -1.90483809212951E+01
 Spin= Alpha
 Occup= 2.000000
  1      -0.000076120361
  2      -0.000422028113
  3       0.000555037848
  4       0.000070401989
  5      -0.000000476653
  6       0.000050322421
  7      -0.000001920081
  8       0.000009225317
  9       0.000131384782
 10      -0.001230755017
 11      -0.003086404660
 12      -0.000017779646
 13      -0.000060162132
 14       0.000005779670
 15       0.000585421969
 16       0.000587757353
 17      -0.000693487780
 18       0.000378255107
 19       0.001295849965
 20      -0.000296214252
 21      -0.000036060988
 22      -0.000016512476
 23      -0.000072936234
 24      -0.000020555915
 25       0.000011211498
 26      -0.000288220156
 27       0.000320267085
 28       0.000596014153
 29       0.000325969884
 30      -0.000089066773
 31      -0.000084923015
 32      -0.000005989422
 33       0.000046809456
 34      -0.000020045661
 35      -0.000039252700
 36       0.000020781259
 37       0.000035504733
 38      -0.000015046881
 39      -0.000359840482
 40      -0.000191752030
 41       0.000033788152
 42       0.000018933402
 43      -0.000066008996
 44      -0.000023337410
 45       0.000296208014
 46       0.000749249590
 47       0.000019152339
 48       0.000024006010
 49       0.000095337009
 50      -0.000001195193
 51       0.000007104258
 52      -0.000083861831
 53       0.000408981946
 54      -0.000545447397
 55      -0.000017831755
 56       0.000007760420
 57      -0.000017247517
 58       0.000253690084
 59      -0.000172448397
 60       0.000041559874
 61       0.000133958070
 62       0.000024056856
 63      -0.000799177825
 64      -0.000002239023
 65       0.000023654738
 66      -0.000008314904
 67      -0.000014765888
 68       0.000012066693
 69       0.000085342063
 70      -0.000106501852
 71      -0.000039326092
 72       0.000061811791
 73      -0.000119747838
 74      -0.000002115708
 75       0.000008661787
 76      -0.000003562904
 77       0.000009001737
 78      -0.000011751119
 79       0.000015935753
 80      -0.000001894386
 81       0.000189261143
 82       0.000302164136
 83      -0.001479582709
 84      -0.000090058111
 85       0.000085261585
 86       0.000068158089
 87      -0.000012912642
 88       0.000061903914
 89      -0.000202420429
 90      -0.002575761198
 91       0.006341296944
 92       0.000034028846
 93      -0.000114445924
 94      -0.000035856993
 95      -0.000614978267
 96      -0.000975476990
 97      -0.002762296284
 98       0.002915382147
 99      -0.000667097640
100      -0.000789009013
101      -0.000047073829
102       0.000015850304
103      -0.000154900939
104      -0.000058132835
105       0.000014911860
106      -0.000433296805
107      -0.000865646184
108      -0.000095087993
109       0.001301450015
110      -0.000613797883
111       0.000004794116
112      -0.000014183905
113      -0.000012006114
114       0.000049606540
115      -0.000099594827
116       0.000076803975
117       0.000077084503
118      -0.435090701330
119      -0.639537249284
120      -0.036266501594
121       0.029919074579
122      -0.012394883127
123      -0.001425007067
124       0.000749542994
125       0.001090435460
126       0.004536337285
127      -0.002426091605
128      -0.003539005831
129      -0.000612435365
130       0.000395947982
131       0.000571351464
132       0.000010332873
133       0.000222933672
134      -0.000074193362
135      -0.000071552331
136       0.000151758376
137      -0.000048140405
138      -0.001218936258
139       0.000528161841
140       0.000482426958
141      -0.000838149253
142       0.000090817015
143       0.000050211317
144      -0.000025289967
145      -0.000098859109
146       0.000132436862
147       0.000017561355
148      -0.000104250902
149      -0.000049002191
150       0.000280327556
151      -0.000319214070
152      -0.003262384127
153       0.001686722657
154       0.000364464411
155      -0.000126373586
156      -0.000205430736
157       0.005398679323
158      -0.003798249792
159      -0.005549974954
160      -0.005479733203
161       0.002225334069
162       0.003455278337
163      -0.000000509775
164       0.000375219612
165      -0.000278325477
166      -0.000181676970
167       0.000250597179
168       0.000777378278
169       0.003811091880
170      -0.000299505950
171      -0.001729166445
172       0.002568834100
173       0.000058053277
174      -0.000015830302
175      -0.000282207071
176       0.000022987180
177       0.000263347676
178       0.000219212577
179      -0.000085476838
180      -0.000025676135
181       0.000427475002
182      -0.000275309045
183       0.000007256319
184      -0.000033556567
185      -0.000025964590
186      -0.000275647573
187      -0.000413405842
188       0.000191345995
189      -0.001723732431
190       0.002478635129
191       0.000095799751
192       0.000018875678
193       0.000036429543
194       0.000264382911
195      -0.000149069362
196      -0.000226465840
197       0.000276363619
198      -0.000580367347
199      -0.000872454250
200      -0.000014619193
201      -0.000021269363
202      -0.000076681085
203      -0.000045657268
204      -0.000011479455
205       0.000143436625
206       0.000107096646
207       0.000313213580
208       0.000043357894
209       0.000071806589
210      -0.000020693602
211      -0.000008040730
212      -0.000023850176
213       0.000029567784
214      -0.000069085811
215      -0.000041285454
216       0.000018937078
217      -0.000010575692
218       0.000275612270
219      -0.000024429071
220       0.000053285469
221      -0.000009856891
222       0.000046246006
223      -0.000121787695
224      -0.001031082599
225       0.000526799186
226      -0.000141713127
227       0.000017467084
228      -0.000182273441
 Sym=     1a
 Ene= -1.44311896429495E+01
 Spin= Alpha
 Occup= 2.000000
  1      -0.000022896029
  2      -0.000803055500
  3      -0.002028367752
  4       0.000001751762
  5       0.000109390185
  6      -0.000198796640
  7      -0.000006539352
  8       0.000032969440
  9       0.001724829574
 10      -0.008368954991
 11       0.015013335019
 12      -0.000089289451
 13       0.000079209513
 14       0.000067595538
 15       0.002663352505
 16      -0.004699563580
 17       0.002654145385
 18      -0.001532894534
 19       0.002066095074
 20      -0.000117670779
 21      -0.000044726384
 22      -0.000112388202
 23       0.000234928592
 24       0.000123077133
 25       0.000045470777
 26       0.000244880040
 27      -0.000709068776
 28       0.001685864232
 29       0.000893589178
 30       0.001949579862
 31      -0.000081556000
 32       0.000022259721
 33      -0.000045218078
 34      -0.000131231453
 35      -0.000065316997
 36      -0.000085565914
 37      -0.000028066803
 38      -0.000217639597
 39       0.000680426582
 40       0.001583339877
 41      -0.000207745446
 42      -0.000069237947
 43       0.000480641258
 44      -0.000037628553
 45      -0.000450022704
 46      -0.001675911944
 47       0.000019300972
 48       0.000203842222
 49      -0.000208444435
 50      -0.448315494570
 51      -0.626803258757
 52      -0.037250721760
 53       0.031186467467
 54      -0.023172984775
 55      -0.000202921891
 56       0.000477069959
 57      -0.000444954942
 58       0.001717174658
 59      -0.004068849353
 60       0.003393417915
 61      -0.000046608311
 62       0.000838198157
 63      -0.001781109010
 64      -0.000007021987
 65      -0.000028121739
 66       0.000085932199
 67       0.000057784915
 68       0.000045003681
 69       0.000034650302
 70       0.000688834266
 71      -0.001569679023
 72      -0.000821966966
 73      -0.000853676665
 74      -0.000033978362
 75      -0.000084779958
 76      -0.000128120660
 77      -0.000021667950
 78      -0.000138572698
 79      -0.000038132321
 80       0.000101885913
 81      -0.000015240522
 82      -0.000305322182
 83       0.000693395369
 84      -0.000012875267
 85      -0.000035746046
 86      -0.000093350790
 87       0.000000633042
 88      -0.000003388000
 89       0.000006047429
 90      -0.001785657300
 91       0.002050451580
 92       0.000026152487
 93      -0.000059925946
 94       0.000128526554
 95      -0.000242769248
 96      -0.000020880182
 97      -0.001128008987
 98      -0.000159303747
 99       0.001895818904
100       0.002228193437
101       0.000042855764
102      -0.000030465439
103       0.000038193827
104      -0.000004931495
105      -0.000005121304
106      -0.000048398847
107       0.000014546043
108      -0.001165530612
109      -0.000179588874
110       0.000094544051
111      -0.000079279708
112      -0.000028841468
113       0.000155012287
114       0.000089509175
115      -0.000090057943
116      -0.000056564903
117      -0.000026732485
118      -0.000000663433
119       0.000007258577
120      -0.000129123889
121       0.000713111929
122       0.000772403012
123      -0.000021120331
124       0.000017929594
125       0.000010993099
126       0.000356484068
127      -0.000199351387
128      -0.000218965345
129       0.000055262050
130      -0.000106235186
131      -0.000273504728
132       0.000000962230
133       0.000002240885
134       0.000003553085
135       0.000014164273
136       0.000002656779
137      -0.000016399719
138      -0.000076916662
139       0.000010837642
140      -0.000008497537
141      -0.000062736214
142       0.000004264923
143      -0.000000667934
144       0.000003697382
145      -0.000005475232
146      -0.000004913886
147      -0.000002498451
148      -0.000001974278
149      -0.000001688651
150       0.000008919204
151      -0.000003384544
152       0.001005836409
153      -0.005477631152
154       0.000003241839
155       0.000011766951
156      -0.000011992340
157       0.000205755938
158      -0.000704779529
159      -0.000874157703
160       0.000499394654
161       0.000868543553
162       0.001949638518
163       0.000022019571
164      -0.000030369996
165       0.000020543583
166       0.000017520754
167      -0.000007027011
168       0.000066343320
169       0.000744859116
170       0.000149727226
171      -0.000370785207
172       0.000468786993
173       0.000072467442
174       0.000039369174
175      -0.000066575061
176      -0.000021145263
177       0.000035811915
178      -0.000029142655
179      -0.000046518368
180      -0.000273617631
181       0.000965991478
182       0.002329682522
183      -0.000107604544
184      -0.000434583688
185      -0.000232587284
186      -0.000000579257
187       0.000006714257
188      -0.000082013890
189       0.000303769165
190      -0.000240279582
191      -0.000014190136
192       0.000003266853
193       0.000025856828
194       0.000015990732
195      -0.000054681983
196      -0.000200258313
197       0.000249223843
198      -0.000154862176
199       0.000086867496
200       0.000012390854
201      -0.000004005822
202      -0.000001115953
203       0.000026264111
204      -0.000009260676
205      -0.000022797611
206       0.000057188623
207       0.000018204895
208      -0.000081462160
209       0.000061010275
210       0.000009011535
211      -0.000003776693
212       0.000001738825
213      -0.000003628241
214      -0.000005906415
215      -0.000002858098
216      -0.000006125740
217      -0.000280267063
218       0.000955157225
219       0.002080935130
220       0.000446252765
221       0.000105001875
222       0.000124241912
223      -0.000056163304
224       0.000126291134
225      -0.000918569542
226       0.000059089064
227      -0.000028935407
228       0.000052842370
 Sym=     1a
 Ene= -1.02433113292482E+01
 Spin= Alpha
 Occup= 2.000000
  1       0.000004323429
  2      -0.000153844547
  3       0.000106919039
  4       0.000097830274
  5      -0.000070425892
  6      -0.000021593192
  7      -0.000025194126
  8      -0.000045889296
  9       0.000021779754
 10       0.000445885717
 11      -0.001972239619
 12      -0.000024585736
 13       0.000042159433
 14       0.000049655720
 15       0.000225170901
 16      -0.000921271180
 17      -0.000742750480
 18       0.000357341624
 19      -0.000173772431
 20      -0.000981467714
 21      -0.000021155645
 22      -0.000016262864
 23      -0.000076116122
 24       0.000029964487
 25       0.000008062770
 26      -0.000324832555
 27       0.000169572654
 28       0.000082975529
 29      -0.000247574546
 30       0.000343950054
 31      -0.000028047975
 32       0.000008513921
 33      -0.000183563758
 34       0.000028225975
 35       0.000112724870
 36      -0.000020365091
 37       0.000058992649
 38       0.000063597992
 39      -0.000157540772
 40      -0.000296462125
 41      -0.000042532327
 42      -0.000006745481
 43       0.000002772322
 44      -0.000067558601
 45      -0.000852301515
 46       0.000041259961
 47       0.000027056129
 48      -0.000161495142
 49      -0.000133235303
 50       0.000000540349
 51      -0.000007302850
 52       0.000040448944
 53       0.000285612307
 54      -0.000544468042
 55       0.000002510792
 56       0.000029816079
 57       0.000022251424
 58       0.000069941371
 59      -0.000275546122
 60       0.000105202054
 61       0.000467030390
 62       0.000639321611
 63      -0.000701052630
 64       0.000050311177
 65      -0.000002181616
 66      -0.000021179022
 67      -0.000002453871
 68       0.000000977128
 69      -0.000137309930
 70      -0.000005085274
 71       0.000026570654
 72      -0.000021782019
 73      -0.000049959256
 74      -0.000001642296
 75      -0.000024272495
 76       0.000015907893
 77       0.000009543255
 78      -0.000000825457
 79      -0.000002139515
 80       0.000001675827
 81      -0.000275234355
 82      -0.000734214680
 83      -0.000022898778
 84       0.000014321732
 85      -0.000122335568
 86      -0.000223394290
 87       0.000666280356
 88       0.000948719014
 89      -0.000700790911
 90       0.009508937279
 91      -0.006991346031
 92      -0.000023991004
 93       0.000060348851
 94       0.000097384737
 95       0.002287353606
 96       0.003197263661
 97       0.004615392208
 98      -0.000787193767
 99      -0.001312624448
100      -0.003643724452
101      -0.000050095051
102      -0.000052122065
103       0.000067097359
104       0.000109436509
105      -0.000085883911
106       0.000600036328
107       0.000225212361
108      -0.000180139428
109      -0.001083817099
110       0.000624913348
111      -0.000093934480
112      -0.000295460722
113      -0.000574147375
114       0.000229403292
115      -0.000508533374
116       0.000188032017
117       0.000178677082
118      -0.000043748188
119      -0.000275814914
120       0.003298427633
121      -0.010734005550
122      -0.001137184721
123       0.000578727460
124      -0.000297943253
125      -0.000411701446
126      -0.005516543361
127       0.002970368783
128       0.004256981324
129       0.000770022355
130       0.000471043558
131       0.001012382030
132       0.000027236001