37
 energy: -59.767744253340 gnorm: 0.178536785257 xtb: 6.7.1 (edcfbbe)
N           -0.44376700000000       -0.47181200000000        1.74520500000000
C            0.69351000000000        0.10436000000000        1.02689900000000
C            0.25232500000000        0.99958500000000       -0.14624500000000
C           -0.57382300000000        0.30680200000000       -1.24485700000000
C            0.17276200000000       -0.78812900000000       -1.95771100000000
O            0.40822200000000       -0.68794500000000       -3.15102700000000
O            0.54634400000000       -1.90328400000000       -1.30373900000000
H           -0.08747200000000       -1.00411400000000        2.57127000000000
H           -1.08118400000000        0.28586300000000        2.08138600000000
H            1.28097900000000        0.73286000000000        1.73117400000000
H            1.36804500000000       -0.70373400000000        0.67713900000000
H            1.15866700000000        1.44313000000000       -0.61117500000000
H           -0.35578800000000        1.83434200000000        0.26527400000000
H           -1.51736400000000       -0.10080200000000       -0.82923500000000
H           -0.85273400000000        1.08677100000000       -1.98587200000000
H           -0.96872000000000       -1.13389300000000        1.13151600000000
O            3.37191200000000       -1.04212200000000        1.97581400000000
H            3.08060400000000       -1.69618500000000        2.65988400000000
H            4.36050500000000       -1.04695400000000        2.03303200000000
O            2.64697200000000       -3.55661800000000        1.37448300000000
H            3.51225500000000       -3.66936100000000        1.84265600000000
H            2.79371200000000       -2.79193000000000        0.76265600000000
O            3.92027200000000        0.83259100000000        0.87317200000000
H            4.55006100000000        1.17647800000000        1.55560700000000
H            3.16728800000000        1.47563900000000        0.88402000000000
O            3.18412100000000        2.25766700000000       -1.28004800000000
H            3.16392000000000        3.03856800000000       -0.67144600000000
H            4.03834600000000        2.34899600000000       -1.77256300000000
O            2.96769300000000       -3.34207500000000       -2.46306300000000
H            3.72180000000000       -2.80241100000000       -2.81047800000000
H            2.17697300000000       -2.75356000000000       -2.55806600000000
O           -3.33408600000000        1.86358700000000       -0.87335100000000
H           -4.16660100000000        2.36115200000000       -1.07324800000000
H           -2.64905900000000        2.28343200000000       -1.45221200000000
O            3.94663900000000       -0.25116400000000       -2.69326800000000
H            3.16954600000000       -0.27755300000000       -3.30648900000000
H            3.60205700000000        0.18703200000000       -1.87481800000000
37
 energy: -59.792407265131 gnorm: 0.084084780641 xtb: 6.7.1 (edcfbbe)
N           -0.44363151526227       -0.47325029126284        1.74446542868664
C            0.69781735041190        0.11045827962615        1.02410578708325
C            0.25102285099085        1.00038397950146       -0.13518734745343
C           -0.56690974151505        0.30109690224754       -1.23029672937107
C            0.17012789980405       -0.80535235356148       -1.96410249175498
O            0.43830022426076       -0.67804175040366       -3.16962601356497
O            0.53214306315270       -1.85144637255009       -1.29756690369574
H           -0.09918758184773       -1.00662615747681        2.55722576455478
H           -1.08315723642198        0.26949585467312        2.07019053213529
H            1.27967308623582        0.71885164333727        1.72518876086005
H            1.34971305934875       -0.69105799846179        0.65933298463809
H            1.14564860941085        1.42657924620060       -0.60392703124555
H           -0.35356586450048        1.82841333698256        0.25904921404143
H           -1.50623421826171       -0.10135872313572       -0.83070113760933
H           -0.83407819943457        1.05189545421646       -1.98710147880332
H           -0.95275025547830       -1.12365769383681        1.12653277623159
O            3.36811424049070       -1.06203919295011        2.04736934958590
H            3.08806202586511       -1.72840967418380        2.69720445080938
H            4.33924200354615       -1.08393449614422        2.04635543079268
O            2.64205506760848       -3.57062847256425        1.39033397612629
H            3.51042254229638       -3.69787711330633        1.81057349687024
H            2.77522675308336       -2.83329842061619        0.76724551346277
O            3.97639845686956        0.91426153172665        0.82903379646316
H            4.54775020731993        1.21384333261274        1.55822042978747
H            3.18598594208690        1.48033243009726        0.87864527610240
O            3.16950174302052        2.30336624468384       -1.30826920077159
H            3.17778132399881        3.05859128116830       -0.69592720160901
H            4.02408819848627        2.34537681737891       -1.77042780312281
O            2.96978257612745       -3.34666567457580       -2.49861323793598
H            3.70231177776889       -2.77875570833708       -2.79989398702484
H            2.18030194172986       -2.76676938521644       -2.50430326467317
O           -3.33861881891657        1.87679042080122       -0.87859930561706
H           -4.15968670190332        2.35978281095006       -1.06765907065185
H           -2.66617317045500        2.28765729264015       -1.44506565678720
O            3.93458610940032       -0.24951200176303       -2.70099500371749
H            3.16060861237434       -0.27579673746957       -3.28650293529434
H            3.61225963830810        0.17251035897176       -1.88403116752790
37
 energy: -59.801195347417 gnorm: 0.028909180854 xtb: 6.7.1 (edcfbbe)
N           -0.44423661404821       -0.47976530125243        1.73844668211389
C            0.70337692238403        0.11371321647724        1.01828887006592
C            0.25250838580688        1.00404417296687       -0.12959188629754
C           -0.55608356711822        0.30018876377449       -1.22467017999497
C            0.23223873542721       -0.80485034929999       -1.94800498708229
O            0.46454655032976       -0.66126995653782       -3.17289842545613
O            0.50177864070178       -1.83447593235490       -1.30561877452034
H           -0.10944145908455       -1.01565669939410        2.54193700331815
H           -1.08910075839507        0.25190401832593        2.05170655100007
H            1.28204742990419        0.70230938950270        1.72358600600644
H            1.33312406214290       -0.68721417150935        0.63742901289049
H            1.13940371493796        1.42438204766358       -0.59843260417845
H           -0.35718678125081        1.82155784043147        0.25379283269019
H           -1.48570662146204       -0.11942945165676       -0.83836184368825
H           -0.82035123889576        1.03134208678785       -1.99059839248791
H           -0.93501080909409       -1.12019764228901        1.10844659089303
O            3.36059663246095       -1.05009732434621        2.13975378111288
H            3.09581185547696       -1.74904251580436        2.74527806126931
H            4.31951444963284       -1.09968167234512        2.05978805493067
O            2.62712311593486       -3.59984872017588        1.41066511037132
H            3.51513088863622       -3.75623534151262        1.75830128868801
H            2.73531379483450       -2.89581516796168        0.76031179382561
O            4.03661888606514        0.96232066652053        0.82502556747752
H            4.57077780781276        1.25883601073419        1.56445894964544
H            3.22311828339396        1.47344441148197        0.86098863195421
O            3.14301240141754        2.36290763059330       -1.34667984502823
H            3.18774760181281        3.10231914080636       -0.73397924998604
H            3.99910501343083        2.34178619288926       -1.78792594691779
O            2.97106385345379       -3.32911874984691       -2.49022678145320
H            3.67477849805105       -2.74971392198437       -2.79861899785838
H            2.16861658565263       -2.78781025464733       -2.46444402271680
O           -3.34511238241721        1.89463676017498       -0.87928296860519
H           -4.16326205762990        2.36202889002776       -1.05596659537658
H           -2.68061021148714        2.29785085577832       -1.43815397485653
O            3.91181827741913       -0.26110202711034       -2.70668744093746
H            3.13371968077557       -0.27239557380482       -3.26715956322903
H            3.62814243298676        0.16335767889713       -1.88862630758296
37
 energy: -59.805961758708 gnorm: 0.060435056240 xtb: 6.7.1 (edcfbbe)
N           -0.44633249254899       -0.49002094786088        1.72433233869219
C            0.70611580479611        0.11033259699633        1.00801873866653
C            0.25264423564905        1.00555124696133       -0.13390526725682
C           -0.55335350731535        0.29955455876355       -1.23145676118623
C            0.21591527884832       -0.84023445365451       -1.95086463149291
O            0.53785633024254       -0.63355291899361       -3.15708027742471
O            0.56109545156987       -1.81504920718734       -1.28180927568034
H           -0.11656318247425       -1.02897845173018        2.52634501254282
H           -1.09816290292317        0.23738485008893        2.02917566173257
H            1.28799481242193        0.68562269844029        1.72064169088261
H            1.32442327889577       -0.69315388854157        0.61688051817613
H            1.13892313004643        1.42735589684925       -0.60141635445856
H           -0.35677485724267        1.82100347463666        0.25178520312803
H           -1.48031925133709       -0.12237386481159       -0.84727518939461
H           -0.80848546951915        1.02489320713594       -2.00261197536842
H           -0.92373327104716       -1.12634919735379        1.08096975055616
O            3.34794494475300       -1.01562242971979        2.24068380600466
H            3.10129125593914       -1.78093545461851        2.78470942324714
H            4.30224876568497       -1.11436943436717        2.06945353586190
O            2.59833317943026       -3.61298044759577        1.46389330050818
H            3.53387139910588       -3.82800582344392        1.69254797712204
H            2.68549555086146       -2.97263865690295        0.73684757878850
O            4.11645967067091        1.00936561038623        0.81066901329373
H            4.58812591929056        1.30848684849409        1.59883466392931
H            3.25334752282573        1.45108228392154        0.83404621398342
O            3.10878179133890        2.42567701914834       -1.38179157564971
H            3.20612372951134        3.16311615540630       -0.77000624301861
H            3.97079099041353        2.32921523336364       -1.81372398126987
O            2.97028609519234       -3.32716800474576       -2.50785417381469
H            3.64667371813171       -2.69332012276720       -2.78323120748843
H            2.14800240182587       -2.81020897416954       -2.39365425054439
O           -3.35079051524422        1.91123866637394       -0.87512125953307
H           -4.17625223350150        2.36838318892171       -1.03964052018406
H           -2.69082492209387        2.31620547681921       -1.43586973441330
O            3.88734862327050       -0.27343763933681       -2.72097115016811
H            3.08237404453909       -0.26936235303579       -3.24555240062677
H            3.65405667999234        0.14850225812917       -1.88372219814388
37
 energy: -59.810047082637 gnorm: 0.046724841143 xtb: 6.7.1 (edcfbbe)
N           -0.44634681511650       -0.50203373304913        1.70625916775516
C            0.70951565949297        0.10635046512358        0.99821230857522
C            0.25419084638320        1.01183306454448       -0.13738184241346
C           -0.53843135896721        0.29871668526974       -1.24150461656739
C            0.26476905692913       -0.84036872723265       -1.94343447846266
O            0.58432039767994       -0.63135316727828       -3.14639154544154
O            0.59759819584531       -1.82479078870471       -1.26027751555155
H           -0.11916808786577       -1.04434911025650        2.50988135382171
H           -1.10662773510850        0.22233901116444        2.00661761004915
H            1.29636790517705        0.67060625545188        1.71973117064364
H            1.32354075165692       -0.69835159132867        0.59833412976311
H            1.13998161204924        1.44521614597603       -0.60113232046712
H           -0.36253740504935        1.82237412686493        0.25318577201042
H           -1.46293623376760       -0.13637910987686       -0.86024288423861
H           -0.79541417204349        1.01590811625429       -2.01954999224191
H           -0.91285317014906       -1.13737082459535        1.05054675331761
O            3.33611354410346       -1.01329118227111        2.30563041442602
H            3.09124394095351       -1.80944196832328        2.81211988672263
H            4.27636912957224       -1.09900167388682        2.12332051527482
O            2.60906919755848       -3.69203736274559        1.42185438687060
H            3.50648559437374       -3.85426109080293        1.69515115934485
H            2.64643518411266       -3.02480481818655        0.73013853944809
O            4.19346624149213        1.04719004046332        0.79474896901675
H            4.60885122279120        1.34842143365539        1.62691878951447
H            3.29908189331835        1.43866476619844        0.79451365493131
O            3.08653773897933        2.46810983337490       -1.39325474430717
H            3.21821718092506        3.22574643228273       -0.80804935625148
H            3.92875304540312        2.33048392435054       -1.85170718093196
O            2.96103675777967       -3.30950166455615       -2.49793825043832
H            3.61401172511700       -2.63736015971791       -2.76015830622795
H            2.12468951780890       -2.82023199724950       -2.34103545713751
O           -3.35448944189627        1.92651611040293       -0.86616688973351
H           -4.19218494843582        2.37445819829719       -1.01758059767551
H           -2.70182439016462        2.34001802301384       -1.43555264903852
O            3.85617099231601       -0.28410978329840       -2.74055363343782
H            3.01036865314938       -0.26960711714620       -3.21606965735327
H            3.68055977359657        0.13090223781757       -1.87690666357103
37
 energy: -59.813053481169 gnorm: 0.063651303527 xtb: 6.7.1 (edcfbbe)
N           -0.44498958116035       -0.51634422057106        1.68431295288357
C            0.71359898397528        0.10061222060628        0.98855277660120
C            0.25662379926709        1.01831698368414       -0.14045913476986
C           -0.51547202204504        0.29407809485112       -1.25261916190088
C            0.35816747695967       -0.81519445277216       -1.93310458424443
O            0.62913526208495       -0.63417812091616       -3.13686960417582
O            0.62897404281407       -1.84824726510728       -1.24840662068330
H           -0.11987220455626       -1.06031395572101        2.49278310768434
H           -1.11571796563251        0.20530515346117        1.98071930786029
H            1.30649627189175        0.65552781687597        1.71872141064215
H            1.32754543299525       -0.70371863603311        0.57982963551402
H            1.14062174596651        1.47267821744925       -0.59847298961655
H           -0.37281466928324        1.82124790639222        0.25668702314369
H           -1.43922846469926       -0.15883697772332       -0.87702399055388
H           -0.77903201498870        1.00175775363054       -2.03848972907800
H           -0.90036784901235       -1.15378942467094        1.01760798560653
O            3.30941226907216       -1.02918458805617        2.38232999768225
H            3.08488854041269       -1.84436348038628        2.85835491760865
H            4.23423299081738       -1.08931929961715        2.15921711204689
O            2.57893050306583       -3.68399733709825        1.50040108349474
H            3.53500759387621       -3.93032121438731        1.61182815861696
H            2.58515915636044       -3.11444465907719        0.69359368271280
O            4.24433382544398        1.07172090309084        0.79497581141928
H            4.66129032120357        1.38176201495011        1.60165868359240
H            3.37404788298553        1.46223875827311        0.75505274935688
O            3.07595034769762        2.49612028327831       -1.38657693921584
H            3.22031332026622        3.29309516562680       -0.85549183130743
H            3.87673018076132        2.34620178230697       -1.89346788079168
O            2.94005269197704       -3.26538702816441       -2.44375261337329
H            3.57215866328008       -2.59578837260026       -2.74067259682493
H            2.10219583749458       -2.81158854399398       -2.31108879946466
O           -3.35735172587236        1.94231418190635       -0.85340379088048
H           -4.20932472466371        2.38123178264828       -0.99151719538852
H           -2.71507050198384        2.36927252842448       -1.43592157245904
O            3.81633245754221       -0.29631399326450       -2.74814153215682
H            2.94155488663696       -0.28288852413972       -3.18462014372120
H            3.68041923905108        0.11594754684353       -1.87424968586425
37
 energy: -59.817143626042 gnorm: 0.041577697513 xtb: 6.7.1 (edcfbbe)
N           -0.44207187432134       -0.52565772928272        1.66825906190524
C            0.71868067157129        0.09754124442851        0.98153627065408
C            0.26066780746719        1.01545025095429       -0.14446032514883
C           -0.50011322730202        0.28255197179126       -1.25802748295140
C            0.37654530465565       -0.82166300685196       -1.94148701822218
O            0.69882790507963       -0.61174779261780       -3.12988346580543
O            0.68596612555192       -1.83244333793936       -1.25882750501422
H           -0.12046467671100       -1.06727649557410        2.47813474874194
H           -1.11897268791040        0.19137673642468        1.95927008737200
H            1.30833905210397        0.64927746307152        1.71399815681184
H            1.33343200339291       -0.70318750279309        0.57014697535111
H            1.13992805123143        1.48425948390009       -0.59579640432692
H           -0.37805071683805        1.81014806079812        0.25291472846123
H           -1.42473372395367       -0.17148160855059       -0.89055432203042
H           -0.76049059125913        0.98696154668995       -2.04677960015176
H           -0.88789357679655       -1.16470084690830        0.99801865424623
O            3.27330810235226       -1.01668287026188        2.45624650044181
H            3.08281653059432       -1.85792405991035        2.90304355592335
H            4.19849078242100       -1.09768119834985        2.13689606831381
O            2.58363444432912       -3.73559634533595        1.45755744503587
H            3.50045742474976       -3.95866348620041        1.61894025981944
H            2.56538448751961       -3.13170499625595        0.71067020793576
O            4.29086260405360        1.07792658996953        0.80037266541874
H            4.69097003342861        1.41157317158867        1.59542308015413
H            3.41967458512334        1.45298792736129        0.71755565508446
O            3.06971994422007        2.51359195183951       -1.37433433500050
H            3.22082606508589        3.34234572528452       -0.89399821173462
H            3.84220592463625        2.35301807174214       -1.91803401136958
O            2.93152226623940       -3.23856664965162       -2.41807873543657
H            3.53748491825007       -2.55390906186444       -2.73054497486587
H            2.08364158321285       -2.80456306900848       -2.24746080183704
O           -3.35934933765020        1.95749884464938       -0.84364299372552
H           -4.21427535980186        2.38690811875872       -0.97772538833328
H           -2.72782438747109        2.38612744274583       -1.43392020229384
O            3.78307612775661       -0.30927421411071       -2.73554752216696
H            2.91845557898673       -0.30705964143900       -3.17002674322792
H            3.64425383600482        0.10544831090762       -1.87757807803384
37
 energy: -59.815495933692 gnorm: 0.093842525249 xtb: 6.7.1 (edcfbbe)
N           -0.43642590051073       -0.53332917922812        1.65269884983647
C            0.72583273010255        0.09618601137484        0.97583981489114
C            0.26640271985478        1.00844946201563       -0.14851359051315
C           -0.48055082390147        0.26772161906932       -1.26376377201110
C            0.38080446203768       -0.83330800216811       -1.95461375651493
O            0.79380825405382       -0.57698937006956       -3.12039171752893
O            0.73537969127565       -1.80739218775952       -1.28438290549978
H           -0.11941461562852       -1.06978778507473        2.46281044635992
H           -1.11800891905097        0.17717172171980        1.93733417878358
H            1.30777709682307        0.64639142207000        1.70814526388831
H            1.34284888501927       -0.69815954014754        0.56368902992722
H            1.13848006912273        1.49218533492563       -0.58960839887644
H           -0.38445508017594        1.79126475857105        0.24478267010757
H           -1.40559513765071       -0.18364212267128       -0.90829990216123
H           -0.73482090513485        0.97091464933538       -2.05398530538841
H           -0.87257328656384       -1.17432644381593        0.98354059378339
O            3.26159931328223       -1.04965651862697        2.44788969020164
H            3.04388002410278       -1.85183246763393        2.89355295606537
H            4.16323740650363       -1.04021955554054        2.21848919767132
O            2.57004578574978       -3.74259030801988        1.47046064628760
H            3.48566337989786       -4.00241311669434        1.58652882203335
H            2.53766633351486       -3.17741288447923        0.70184281388814
O            4.40254452297520        1.09456249535736        0.78278924239872
H            4.67067690978053        1.46377308919400        1.67399699084596
H            3.44793769457009        1.36970145936491        0.64213479500895
O            3.05890750721062        2.53151308804043       -1.35641744310166
H            3.22361363614175        3.39185596757313       -0.93738221633669
H            3.80383964423975        2.35159863482077       -1.94056929158841
O            2.93056547972218       -3.23224136858897       -2.43623984061506
H            3.50275721086654       -2.48490264960710       -2.70148200704225
H            2.07042755095574       -2.79794732772783       -2.12269888214114
O           -3.36138240627135        1.97436884370369       -0.83357701589708
H           -4.21360832638314        2.39390952439136       -0.96439085617065
H           -2.74408826219958        2.40334205207561       -1.42835257256134
O            3.73945389464777       -0.31993842573355       -2.74717312319772
H            2.85839433292186       -0.33524149091283       -3.13988557344474
H            3.63331112810209        0.08162961089593       -1.88252183139491
37
 energy: -59.822645406181 gnorm: 0.044913534913 xtb: 6.7.1 (edcfbbe)
N           -0.43210717262795       -0.54196538799001        1.64624861560842
C            0.72895910469912        0.09175006765479        0.97346475286498
C            0.26698925383510        1.00555312916654       -0.15027805394770
C           -0.46938316295028        0.26480626765149       -1.27302593803379
C            0.42054613458532       -0.81722431633343       -1.95609842920325
O            0.82068977167166       -0.56860821231703       -3.12064819542521
O            0.74677901564563       -1.81683852247388       -1.28744570310406
H           -0.11493045808499       -1.07779780009114        2.45843885304528
H           -1.11753918320442        0.16692806109488        1.93009145715861
H            1.30909647718593        0.64306130995311        1.70866395534641
H            1.35122562148604       -0.70007747829276        0.56132631075031
H            1.13860743999167        1.49671501767096       -0.58684758744750
H           -0.39170392986215        1.78312993547843        0.24387624069929
H           -1.39205667709782       -0.19790432580716       -0.91991148989578
H           -0.72891332370875        0.96839263721097       -2.06187246178640
H           -0.86517716152225       -1.18522192365943        0.97572306087972
O            3.23064256172268       -1.01298782403299        2.51955090686301
H            3.05563758390704       -1.91312175995097        2.89097663018983
H            4.13795072317746       -1.03598278928592        2.19309804470884
O            2.56227879128617       -3.73932160282770        1.50234791159792
H            3.48854297829012       -4.02016236398958        1.57276697720059
H            2.52110500274861       -3.21778068972418        0.68121859967816
O            4.39560632977007        1.09360580224188        0.78950671373499
H            4.70557527679557        1.46039844892387        1.63411448531214
H            3.49083896344437        1.41157441838721        0.64252486629672
O            3.05187393884068        2.54534760083827       -1.35014473406590
H            3.22281851120309        3.41651553140273       -0.95147168795634
H            3.78777456955323        2.35811748368504       -1.94697023530609
O            2.91192398515670       -3.20458676762385       -2.39489215394834
H            3.48468488911448       -2.48310803719709       -2.69302316766905
H            2.06359662961078       -2.77764314291726       -2.13333414715966
O           -3.35999393903698        1.97891232944110       -0.82968870352805
H           -4.21772913628704        2.39583856437452       -0.95374608018381
H           -2.74844050223800        2.41582538140153       -1.42861802675493
O            3.71716308650324       -0.32131089212545       -2.76358880173769
H            2.80137499334975       -0.34255614940958       -3.11446151714058
H            3.65062501305029        0.07293699947071       -1.87559526764843
37
 energy: -59.820736682473 gnorm: 0.089248689943 xtb: 6.7.1 (edcfbbe)
N           -0.42382615921957       -0.55585137141131        1.63576129629770
C            0.73340792040381        0.08553681815883        0.96927404068565
C            0.26857990628501        1.00182151933723       -0.15445456977533
C           -0.44940151015272        0.26216579553500       -1.29088148504463
C            0.47815721970310       -0.79038447567666       -1.95746625645982
O            0.89126528692226       -0.54567799024743       -3.11040953712655
O            0.75334457499308       -1.83170984151430       -1.29151003555710
H           -0.10485804418582       -1.08910878751838        2.45210993998236
H           -1.11526729505151        0.15039103045000        1.91905009643547
H            1.30953377812298        0.64072785400042        1.70881214009703
H            1.36686807559929       -0.70148465700307        0.55909385855648
H            1.13932834231877        1.50710803211957       -0.58172394263241
H           -0.40389790999987        1.76975865218913        0.24069415971705
H           -1.36954830574899       -0.21801769760388       -0.94520830256479
H           -0.71418877073210        0.96943237995116       -2.07674822393507
H           -0.85288303411720       -1.20433475962650        0.96527432145107
O            3.19712197471981       -1.06237865418044        2.51681572789184
H            3.03019458197432       -1.85722661382640        2.96072808348021
H            4.09839549640049       -1.04113080301281        2.18609382286226
O            2.55939372387120       -3.75322526472610        1.49290304264840
H            3.46542688857265       -4.06877426538172        1.55905651201048
H            2.51063073286765       -3.23048972565974        0.69467465885352
O            4.39580202559250        1.07423026740206        0.80160099979992
H            4.75634212439332        1.45468515528002        1.57142759240623
H            3.56226370121116        1.45108825511949        0.62903494509296
O            3.05013238621563        2.55323726257892       -1.34358233192279
H            3.19722595924016        3.43004551304550       -0.97157994819859
H            3.76808951779310        2.39460566227991       -1.95028662138144
O            2.89404997847702       -3.17300405177007       -2.34528234328075
H            3.45996894544680       -2.46823345367283       -2.67336053080358
H            2.06197046256093       -2.75151955307638       -2.11495339602270
O           -3.35336976911225        1.98881215892922       -0.82023060229632
H           -4.22354800158672        2.39528539747634       -0.93185097030795
H           -2.75815249322830        2.44033681020216       -1.43240798562489
O            3.67499686226004       -0.33605974209106       -2.74807311533911
H            2.77493658526234       -0.36704732720762       -3.10625725467845
H            3.59644624193372        0.07159947115002       -1.88386178532525
37
 energy: -59.826273334212 gnorm: 0.041075996448 xtb: 6.7.1 (edcfbbe)
N           -0.41876242355326       -0.56301844347751        1.62826002176845
C            0.73634404506299        0.08480828290486        0.96504345255450
C            0.27040760531581        1.00139814102780       -0.15758471976461
C           -0.43692927041541        0.26062652474068       -1.29985326084492