37
 energy: -59.773319466018 gnorm: 0.177885913660 xtb: 6.7.1 (edcfbbe)
N            0.06495200000000       -0.17036600000000        2.24069000000000
C           -0.42508700000000       -0.28387700000000        0.86827900000000
C            0.36773000000000        0.64114900000000       -0.07116600000000
C           -0.13442900000000        0.59759400000000       -1.52314500000000
C            0.09666800000000       -0.71348800000000       -2.23073300000000
O            0.72724600000000       -1.73996500000000       -1.62853300000000
O           -0.27063500000000       -0.83895900000000       -3.38700000000000
H            1.07233000000000       -0.44720500000000        2.28653100000000
H           -0.04872800000000        0.81071300000000        2.58374800000000
H           -1.50104700000000       -0.00273500000000        0.84068300000000
H           -0.33838800000000       -1.34087900000000        0.54567800000000
H            1.44982600000000        0.38979400000000       -0.04170700000000
H            0.24571000000000        1.68308900000000        0.29572000000000
H           -1.21792700000000        0.84024100000000       -1.53588800000000
H            0.40005500000000        1.38331800000000       -2.09874700000000
H           -0.48827700000000       -0.80842500000000        2.85559100000000
O            2.88358400000000        2.57746700000000       -2.09655700000000
H            2.03914000000000        3.08282800000000       -1.98639500000000
H            3.16113200000000        2.35370300000000       -1.17270200000000
O           -0.89980800000000        3.52010900000000        3.88741600000000
H           -1.72606400000000        3.00115700000000        3.71830000000000
H           -0.81958400000000        4.12097400000000        3.10438400000000
O           -1.88757200000000       -4.29082100000000        1.53431300000000
H           -0.92187900000000       -4.25399500000000        1.31823200000000
H           -2.33064800000000       -4.45250300000000        0.66359100000000
O           -2.45807600000000       -0.88034600000000        6.11957100000000
H           -1.51396500000000       -0.60934100000000        6.24535700000000
H           -2.80753200000000       -0.25300400000000        5.43770900000000
O           -2.23011400000000       -2.36287400000000       -0.00629400000000
H           -3.21279600000000       -2.48262500000000        0.01830800000000
H           -1.93901600000000       -2.86488000000000       -0.80870600000000
O            0.01465800000000       -2.06245900000000        7.14201100000000
H           -0.72642100000000       -2.60128900000000        6.76641200000000
H           -0.39893400000000       -1.55611900000000        7.88576900000000
O            0.05154300000000        4.09275600000000       -2.31538700000000
H            0.49775700000000        4.60103700000000       -1.59209200000000
H            0.59175100000000        4.28428700000000       -3.12291700000000
37
 energy: -59.797267177897 gnorm: 0.087400134802 xtb: 6.7.1 (edcfbbe)
N            0.06716281916299       -0.16863870340679        2.24999440230132
C           -0.42031350978716       -0.27568696329636        0.86535879380742
C            0.36783238538590        0.64945139173950       -0.05725569358897
C           -0.12371354390532        0.58910083812758       -1.50330845266257
C            0.11227762576632       -0.72397015832085       -2.23317743684870
O            0.70299396730571       -1.69419885601073       -1.61480810274675
O           -0.28638679156225       -0.84543721224166       -3.40187678741070
H            1.06120897916516       -0.44210898424639        2.29469766064007
H           -0.03430568424567        0.79949203871638        2.59428378429163
H           -1.48229494599993       -0.00990802865947        0.82765046715918
H           -0.33062165378102       -1.30987014613544        0.52000349164212
H            1.43047781669114        0.37770360602346       -0.04675687910021
H            0.25511423111310        1.68363056217023        0.29222823151710
H           -1.19723765470080        0.81784909360305       -1.54880225795234
H            0.38529167526964        1.35909397753759       -2.09899213692638
H           -0.47660182655332       -0.80219020935279        2.85478153854262
O            2.88342925874387        2.59489818673346       -2.08812253254158
H            2.03098845755340        3.05546354348020       -1.97967145661039
H            3.16240509364082        2.36207525062753       -1.18655920038011
O           -0.88395645899620        3.48190180944975        3.85311865156568
H           -1.74145499023147        3.03712569789761        3.72211291969550
H           -0.82767630531222        4.12781564644791        3.12670285913226
O           -1.86526665673971       -4.38613090474523        1.56974711815113
H           -0.92929846823671       -4.25900175967344        1.32831895371894
H           -2.31924139463664       -4.47687709278713        0.71302832583289
O           -2.45064346139567       -0.87661132132823        6.11359946307794
H           -1.52435990249320       -0.60194153833968        6.23671289224288
H           -2.81603235888413       -0.26129269940516        5.45807074324528
O           -2.26601846212910       -2.30713164073049       -0.06883576352284
H           -3.22179167308433       -2.48005756206715       -0.00757840130620
H           -1.95076234239615       -2.82703587221114       -0.82499536234191
O            0.00005125408321       -2.03826946779837        7.13005077841015
H           -0.71542442847448       -2.60064533438938        6.78441757607785
H           -0.39046471326850       -1.58153397870355        7.89495401698595
O            0.10467256736669        4.05738139100417       -2.29844302231391
H            0.48556557711218        4.63886479256178       -1.61086712562179
H            0.57155051845359        4.30075160772891       -3.11945805616242
37
 energy: -59.804856349436 gnorm: 0.036030309788 xtb: 6.7.1 (edcfbbe)
N            0.07018186531717       -0.16661982226361        2.25745195403903
C           -0.41544598281574       -0.26498084471666        0.86020855754734
C            0.37426166154150        0.65449443049564       -0.05322460951006
C           -0.12578014434304        0.58607103030134       -1.48989920867159
C            0.09672490974426       -0.75688724816952       -2.21033014371869
O            0.71485373575416       -1.64940085771592       -1.61356595179368
O           -0.29449546281909       -0.83920455594670       -3.40189690470417
H            1.05454810393975       -0.43890910121599        2.29902549291139
H           -0.01826031170215        0.79296050276561        2.60211915767905
H           -1.46928173868894       -0.01271445589908        0.81867609394217
H           -0.31233748404215       -1.28271106239372        0.49917410101093
H            1.42192278754708        0.36236077285281       -0.05562761948247
H            0.27370120832315        1.68418259681249        0.28033215860897
H           -1.19323214472425        0.80041027297423       -1.55459843925213
H            0.37024876791877        1.33829001328752       -2.10535538218689
H           -0.46775681660721       -0.79713049197126        2.85374297182477
O            2.88334026179886        2.62186518058189       -2.07993712587397
H            2.00387270934447        3.01443887888934       -1.97776120336796
H            3.16897913411964        2.37776912573533       -1.19794699399357
O           -0.87853925033728        3.44536412464130        3.81756296245581
H           -1.76607290533639        3.07357834657365        3.71946755521175
H           -0.82287671704493        4.13211096499299        3.14498110182692
O           -1.84641653115779       -4.40016356680635        1.58428621872239
H           -0.92727353920825       -4.30611400828451        1.34855804462435
H           -2.30782646838413       -4.51588012193826        0.75545242283567
O           -2.44759415695427       -0.87300638041104        6.11112453499438
H           -1.53421141906189       -0.59489574378169        6.22777598964419
H           -2.84093147277814       -0.26765540644568        5.48320258770409
O           -2.30072335516391       -2.34850439231022       -0.07247473450389
H           -3.24885316286723       -2.45647243012175       -0.05626561250268
H           -1.97058931015987       -2.75742158083327       -0.87147240891766
O           -0.01128452325896       -2.01792033856669        7.12613247036562
H           -0.70284737759865       -2.60003989521668        6.79936315820093
H           -0.37724757368536       -1.60498359042987        7.91311001225958
O            0.16469383029842        4.04033304010581       -2.27854325967267
H            0.48772426289130        4.68365232257699       -1.62570046616944
H            0.56197961020091        4.30779529185036       -3.11682348208754
37
 energy: -59.807239675352 gnorm: 0.077799371797 xtb: 6.7.1 (edcfbbe)
N            0.07440277962739       -0.16550380413168        2.25619182371217
C           -0.41059611308519       -0.25739167428193        0.85464412563931
C            0.37972855794252        0.66199097833067       -0.05988768836999
C           -0.12855500714310        0.59120395712397       -1.49486494140904
C            0.14079068099354       -0.75834509529897       -2.21160404374645
O            0.69908715747814       -1.66281746543878       -1.58260051484304
O           -0.32594541480835       -0.85753343602987       -3.37967882915670
H            1.05844107145418       -0.44119331329823        2.29601519415071
H           -0.00780895427227        0.79429889044082        2.60385045310086
H           -1.46595930312105       -0.00756187699610        0.81660252735055
H           -0.29958732204180       -1.27426926376879        0.49098425543398
H            1.42500285536253        0.35919568179120       -0.06726304396265
H            0.28957111788657        1.69301651652977        0.27299231329586
H           -1.20141698333766        0.78158433109202       -1.55822731170083
H            0.35766069540883        1.34380203858434       -2.11543951889407
H           -0.46584260334299       -0.79731926238325        2.84977327652942
O            2.88837024400736        2.67075563793699       -2.07975476259286
H            1.95655391932123        2.96916307339494       -1.97505432108019
H            3.17547350307186        2.39155833071806       -1.20641987424441
O           -0.85289245641342        3.37616555091573        3.76685436284322
H           -1.81283846218311        3.12064582367980        3.71712149791325
H           -0.81886999618650        4.15638802383918        3.17068664388489
O           -1.81719452701883       -4.49036170167561        1.62589116499052
H           -0.90662865048278       -4.31961181155907        1.35807735755097
H           -2.31219873863513       -4.53934954393875        0.80111370837460
O           -2.44467600140831       -0.88551082116536        6.10901006010942
H           -1.53759330599656       -0.58187128005408        6.21980158854837
H           -2.88320759876686       -0.26676590495234        5.51739003494396
O           -2.33693131779908       -2.35965851395441       -0.08401671192874
H           -3.29074563094595       -2.44261155071128       -0.11308420635645
H           -1.98347751365020       -2.68470492626580       -0.92449035497091
O           -0.02224590292892       -1.96790799836838        7.09947804634057
H           -0.68850920132731       -2.61498923788803        6.81932519046933
H           -0.35908854588931       -1.63823499144988        7.95509003231164
O            0.25115197825535        3.99101994318895       -2.24401808761655
H            0.49802886772088        4.74793339759072       -1.63929381610959
H            0.54570112225381        4.32885229845134       -3.12487163051063
37
 energy: -59.807186920144 gnorm: 0.076939014906 xtb: 6.7.1 (edcfbbe)
N            0.07853232052605       -0.16306214552944        2.25426333823335
C           -0.40706316464768       -0.24910189055289        0.84996428562351
C            0.38288724438404        0.67160611805966       -0.06729830072281
C           -0.13537267897743        0.59651897564237       -1.50138896125045
C            0.16907234729588       -0.76450155631115       -2.20991136991565
O            0.69789847255387       -1.67785239985512       -1.55056605530978
O           -0.34576425317839       -0.87361804380325       -3.36121037387558
H            1.06375445851278       -0.44352999530356        2.29221293011332
H            0.00213806426924        0.79853645567264        2.60600479305243
H           -1.46516485619850        0.00044891425585        0.81684457548009
H           -0.29011667156663       -1.26759829856424        0.48490704334134
H            1.42665401411120        0.35527014599323       -0.08121130947629
H            0.30849166706724        1.70538587943897        0.26819620282851
H           -1.21300776322601        0.76611418879251       -1.55940486469667
H            0.34410473228777        1.34748894484437       -2.12834012860236
H           -0.46514891405044       -0.79693420456597        2.84630950142589
O            2.88040381041125        2.69360340804519       -2.08065049140450
H            1.93322478934778        2.95029973677439       -1.97558137519878
H            3.18230790319409        2.40502590347463       -1.21203316291339
O           -0.91117387693465        3.41789935074653        3.77995255600213
H           -1.79857191432047        3.10014852054992        3.68148217890273
H           -0.79023838286621        4.13357771675136        3.15950455012948
O           -1.78315516439943       -4.60160973811307        1.67590079883878
H           -0.88222292058635       -4.33298205866179        1.36983583976471
H           -2.31792419642297       -4.55547485998279        0.85167141449997
O           -2.44749727121645       -0.89971200200254        6.10529142859710
H           -1.54507103636276       -0.57012822788488        6.21223571742402
H           -2.93125596101801       -0.26418813852640        5.55286321145287
O           -2.37232997776860       -2.35740150058937       -0.10877697250794
H           -3.33397483004828       -2.42387265398294       -0.17751367966412
H           -1.99553340842110       -2.61732767611281       -0.97538384751055
O           -0.02240357529177       -1.95635589334247        7.10955962714117
H           -0.67386743711629       -2.61765026304761        6.82794511629119
H           -0.34565261404105       -1.64856424921181        7.97674149937478
O            0.23989194471499        4.08643276240378       -2.25087535174144
H            0.55062266710041        4.72047047921289       -1.63009013003120
H            0.57968143288367        4.29669929528199       -3.11112623369541
37
 energy: -59.811097097980 gnorm: 0.042778175021 xtb: 6.7.1 (edcfbbe)
N            0.08183283889720       -0.16007499738678        2.25086448616216
C           -0.40711920220670       -0.24685275299116        0.85106646140319
C            0.38223171302660        0.67327685288779       -0.07023408830509
C           -0.14311808384352        0.58947179103895       -1.50291962240925
C            0.09444076396949       -0.79286755310648       -2.18713900271754
O            0.74111525464122       -1.67178722440139       -1.55963265467165
O           -0.30872893547675       -0.87256368728947       -3.36954291989406
H            1.06874376744296       -0.44435185732082        2.28849315951826
H            0.00504887850609        0.80350412588157        2.60414818429402
H           -1.46647488393979        0.00768028506613        0.82000204797626
H           -0.29612356869555       -1.26945125065627        0.48886907617947
H            1.42774552967268        0.35474514899491       -0.08757248836500
H            0.31577807384655        1.70984667055539        0.26810700246345
H           -1.21680096184255        0.77359437511090       -1.55187879469194
H            0.34324587706766        1.33208516908927       -2.13912315940758
H           -0.46456665553318       -0.79373858808157        2.84503615200425
O            2.84417789118807        2.66365058980757       -2.08555250120701
H            1.95447995483498        2.99643222403297       -1.97537686066055
H            3.17574244825265        2.41438008539492       -1.21419984351701
O           -0.91410574371006        3.40285113752942        3.76727858258485
H           -1.81660641478431        3.11544982052364        3.66975691713841
H           -0.77368708216284        4.13220593545919        3.16336223022650
O           -1.78085395697328       -4.55452287329105        1.67849302860189
H           -0.87680043737750       -4.39458342722380        1.39999941646484
H           -2.30445445876234       -4.58517935638087        0.86965253283880
O           -2.46527843741814       -0.90041151675729        6.10791078587137
H           -1.55987266843470       -0.57338920150428        6.21640098441324
H           -2.94265001057554       -0.26157243946976        5.56022096466026
O           -2.37909048521438       -2.33293858773787       -0.14256026262207
H           -3.34190976405496       -2.40853547662083       -0.20130131970613
H           -2.00829536862931       -2.63196930956237       -0.97453938746365
O           -0.00676962818501       -1.99923554411246        7.15985155954934
H           -0.66841393076934       -2.59815192150778        6.81651862663723
H           -0.34811484811507       -1.62069414087422        7.95707074492466
O            0.28661670824773        4.05396834988380       -2.22923784920488
H            0.56070750912439        4.76098572362699       -1.63701797299915
H            0.57508331798759        4.29280442138816       -3.11495021606948
37
 energy: -59.813098947235 gnorm: 0.057891317119 xtb: 6.7.1 (edcfbbe)
N            0.08588343487797       -0.15538504383935        2.24893724064952
C           -0.40546759949552       -0.24313976887608        0.85063815870630
C            0.38562812162013        0.67152952376186       -0.07151635042678
C           -0.13950336926758        0.58114154326686       -1.50072789433707
C            0.10113091446198       -0.79620120153186       -2.19016185227343
O            0.71938442042675       -1.67556459542411       -1.56077282364211
O           -0.31754039806462       -0.88604075563987       -3.36602159722904
H            1.07022686126301       -0.44185767582202        2.28572279129305
H            0.01152799799533        0.80678353624874        2.60099074035579
H           -1.46222571359311        0.01266327198278        0.81868798261774
H           -0.29831411300886       -1.26392229163998        0.48861670195760
H            1.42958950134381        0.35672881067062       -0.09219038834511
H            0.31761170762006        1.70735149614848        0.26136840926024
H           -1.21350758061589        0.75992800896546       -1.54989989673700
H            0.33699665829258        1.32478331133766       -2.14094374265705
H           -0.46045402910809       -0.78566362592472        2.84327218683329
O            2.86504134451078        2.71212305328830       -2.08521169398402
H            1.92306577199664        2.96318275893109       -1.98216358589122
H            3.16715679494780        2.42417704932322       -1.21825324010427
O           -0.88821221287508        3.33466276835268        3.72356794924596
H           -1.87261382636759        3.16944490532417        3.65757220156352
H           -0.75400126841586        4.14239791162913        3.18337043086725
O           -1.76373164709448       -4.56963346225448        1.69400989369001
H           -0.86544095075521       -4.42797473037234        1.41167521049098
H           -2.29617413248594       -4.58281185262553        0.89474976914076
O           -2.48212160022524       -0.90400958501528        6.11611443632972
H           -1.58032464570732       -0.57753027029781        6.22729847340045
H           -2.95804772583822       -0.26241902431217        5.58249398345128
O           -2.39872977872931       -2.37271366493764       -0.13708736673672
H           -3.36373235427699       -2.39314663596294       -0.25013175997537
H           -2.02307018119662       -2.59510563848580       -1.00649763901970
O           -0.01196161148059       -1.94379816215420        7.13013376059512
H           -0.65213931263957       -2.60413973579963        6.83222012540448
H           -0.33011620388353       -1.65731617194451        8.00640659024191
O            0.32665292003068        4.04927488139967       -2.21103221214500
H            0.58231241850837        4.79851984736098       -1.64296585629631
H            0.58237638723008        4.28774221486254       -3.11194513629396
37
 energy: -59.805971586763 gnorm: 0.110525816869 xtb: 6.7.1 (edcfbbe)
N            0.08992252106243       -0.14966849179766        2.24754821384559
C           -0.40350709397419       -0.23891569811678        0.84997894546743
C            0.38969233910437        0.66869667385405       -0.07510624977421
C           -0.13652728657363        0.57478108476921       -1.50088871390070
C            0.14547739703604       -0.78870707852836       -2.20434287843916
O            0.68439869550836       -1.68833673426188       -1.55328410070673
O           -0.34720449823567       -0.90761989704991       -3.35464382532635
H            1.07177516052736       -0.43886420239122        2.28330280816566
H            0.01892317516660        0.81190839851396        2.59765261830344
H           -1.45787035087341        0.01997930260400        0.81853167799815
H           -0.30007694843398       -1.25884185660654        0.48903276927982
H            1.43217602073707        0.35653398482038       -0.09716261344629
H            0.31989411224440        1.70399326852736        0.25195053062796
H           -1.21405608083700        0.74026131795802       -1.54903772082490
H            0.32695494581000        1.32219069913661       -2.14279987613297
H           -0.45687411683770       -0.77588462795620        2.84277235043472
O            2.86360344769656        2.73339509874491       -2.08649046560889
H            1.91145468193468        2.96711663440846       -1.98811776257277
H            3.15824577786432        2.43734033956677       -1.22254940688759
O           -0.94296689812478        3.39879748881680        3.74227779771979
H           -1.82885520770678        3.12250323577323        3.61915264743243
H           -0.74822313118088        4.11758378338476        3.15447785339195
O           -1.74000922758693       -4.60063269573557        1.72050889463813
H           -0.84616350251033       -4.45237999768467        1.41665928654284
H           -2.29558034063936       -4.57534426726423        0.93195491983522
O           -2.49806730793905       -0.91593109968108        6.11778916258367
H           -1.60370851509757       -0.57797213337444        6.23689165294117
H           -2.98785912241334       -0.26019226462515        5.61507236271990
O           -2.42243934369583       -2.38055693107048       -0.16717109949441
H           -3.38102779854603       -2.38204145889596       -0.28582226554901
H           -2.04472135737538       -2.58785277342894       -1.03091924172417
O           -0.00656589784918       -1.92800614631054        7.13934819296451
H           -0.63642430003259       -2.60261916606700        6.84377534365434
H           -0.31985123720491       -1.66147948416474        8.02826222074993
O            0.42781138547764        3.97053267900994       -2.16970418652129
H            0.58676949526578        4.87003495268955       -1.65927509594717
H            0.55863540823536        4.32025906242397       -3.11930074643886
37
 energy: -59.813916911389 gnorm: 0.047024232987 xtb: 6.7.1 (edcfbbe)
N            0.09087953975673       -0.14872312834413        2.24720582162584
C           -0.40309043773751       -0.23870543191169        0.85023295175947
C            0.38953485708374        0.66783671079215       -0.07846340714019
C           -0.14075965011193        0.57500827980899       -1.50434078043651
C            0.14645075702125       -0.78988268638944       -2.20532432281742
O            0.69144249009915       -1.69364171123194       -1.54891963790952
O           -0.35016713558380       -0.91120789576637       -3.35372814269584
H            1.07363257905839       -0.43927695011634        2.28274300958896
H            0.02065976617041        0.81439991375068        2.59710879859376
H           -1.45830040562658        0.02371611339066        0.82027058764790
H           -0.30178376030203       -1.26105334544460        0.49049836792114
H            1.43297976874409        0.35330712880459       -0.09820559143033
H            0.32190063043082        1.70475236453486        0.24891003736093
H           -1.21916517216765        0.74082492106019       -1.54780226352244
H            0.32511868808710        1.32110974315668       -2.14655698511286
H           -0.45720735316036       -0.77436495841709        2.84426366055614
O            2.85197332500821        2.70898863727900       -2.08739886168487
H            1.93959256820525        2.99701265959359       -1.99160495326208
H            3.16067996178054        2.43835010627438       -1.21973167510391
O           -0.92536999101228        3.36749082444352        3.71754185491035
H           -1.84075160231504        3.13784002182223        3.61967442617987
H           -0.75519810757773        4.13125638418156        3.16481274326689
O           -1.73381104100586       -4.60970302606222        1.73100880765759
H           -0.83539458168620       -4.45965493652399        1.41831668590412
H           -2.29646250941222       -4.57447680813951        0.94380375724072
O           -2.50264209458968       -0.92377884755341        6.11516584625315
H           -1.61005546364144       -0.57745902877271        6.24157872693699
H           -3.00218103611492       -0.25654152431163        5.62674358298393
O           -2.43028496892672       -2.35534032137168       -0.20109150257537
H           -3.38227876992831       -2.38357683652730       -0.28732526696008
H           -2.04983635779294       -2.60549122906869       -1.02831802269585
O            0.00070408839343       -1.95405091351326        7.17308097221615
H           -0.63383522413304       -2.59354726820108        6.84203658252168
H           -0.32365413760150       -1.63749515490071        8.00849984041671
O            0.36583619113501        4.06819475346525       -2.20080915359752
H            0.61217994476619        4.80167707809624       -1.64157948159253
H            0.59581964468963        4.30026736210342       -3.10197301300408
37
 energy: -59.808535272245 gnorm: 0.101562314125 xtb: 6.7.1 (edcfbbe)
N            0.09232129132173       -0.14618964186770        2.24521984752513
C           -0.40353580192914       -0.23846754374180        0.85068222182697
C            0.38702739597198        0.66829670049634       -0.08250657333488
C           -0.15011923320905        0.56897109689038       -1.50875037799331
C            0.04113718146209       -0.82912703901489       -2.17272481715621
O            0.75265937185748       -1.68050885827862       -1.56058163507461
O           -0.30864908736946       -0.90435410326402       -3.36898256184937
H            1.07684527164181       -0.43832711438824        2.28100020642027
H            0.02170089374921        0.81919573766356        2.59527165435984
H           -1.46007262843303        0.02713763707354        0.82076109930922
H           -0.30626903850226       -1.26420726399452        0.49288007942569
H            1.43161314434111        0.34684538373037       -0.10212885939189
H            0.32716947683657        1.70889348128288        0.24566853080944
H           -1.22266860155706        0.75365233083123       -1.54498588225307
H            0.32824700807715        1.30511037008791       -2.15945033823768
H           -0.45701718922177       -0.77165259735522        2.84532159184553
O            2.87415871249274        2.74350861108234       -2.08780555279227
H            1.92572797123598        2.97435204620364       -1.99692856588407
H            3.16017180746982        2.43743157390570       -1.21761647552594
O           -0.90162166643827        3.32219110087875        3.68935492054709
H           -1.87809985752251        3.17364651847070        3.61730074256760
H           -0.74167024314883        4.13479529408885        3.17273487572098
O           -1.72483592837984       -4.65949355075857        1.74658542480767
H           -0.83034934532703       -4.45202568887356        1.41999289600330
H           -2.29213618400064       -4.55412817993162        0.95079398757227
O           -2.50787571243389       -0.93013066761607        6.12153453459698
H           -1.61425087257036       -0.57822630642214        6.24935725528259
H           -3.01192639332970       -0.25879530185110        5.63968254805974
O           -2.44193276523279       -2.42508789504453       -0.13974739540219
H           -3.41294040480851       -2.38094235793978       -0.33765289072675
H           -2.02956164797229       -2.52201854339598       -1.06389105164963
O           -0.01102195961709       -1.89445981039893        7.13435888285348
H           -0.62334351318448       -2.60039703857403        6.85509521404610
H           -0.31093019270563       -1.67481517469105        8.04931014053117
O            0.36994634810751        4.07909685266197       -2.19723963111173
H            0.61866981709406        4.81424974988556       -1.64403696319343
H            0.60058757523625        4.29004119215821       -3.09755308253276
37
 energy: -59.816879767309 gnorm: 0.030614431352 xtb: 6.7.1 (edcfbbe)
N            0.09352562389454       -0.14386061323604        2.24492666412825
C           -0.40407135900236       -0.23717058546431        0.85061503243539
C            0.38823752963532        0.66540763940656       -0.08358029048278
C           -0.14727011394067        0.56655224031553       -1.50788995559566