34
 energy: -56.576732032931 gnorm: 0.173258156611 xtb: 6.7.1 (edcfbbe)
H            1.42053100000000       -0.69343900000000       -0.45759400000000
C            0.31562500000000       -0.64091500000000       -0.57275600000000
H            0.37944700000000        0.34125600000000       -2.37510200000000
H           -0.02020400000000       -1.57726700000000       -1.06978300000000
N           -0.04283300000000        0.48932200000000       -1.43082700000000
H           -0.10434400000000       -1.52577500000000        1.34227500000000
C           -0.35607200000000       -0.58177200000000        0.80987700000000
O           -0.15503900000000        1.84564400000000        1.27779400000000
C            0.09900500000000        0.57829600000000        1.65429800000000
H            0.33459400000000        1.38391400000000       -1.05046800000000
O            0.66999200000000        0.37333800000000        2.71201200000000
H           -1.08151800000000        0.54834700000000       -1.53303300000000
H           -1.45918500000000       -0.54094800000000        0.69330800000000
O            1.23999600000000       -2.58514200000000        3.96997500000000
H            2.20249000000000       -2.48743200000000        4.18132500000000
H            1.22416500000000       -2.97378200000000        3.05930400000000
O            1.88533900000000       -0.00530400000000        4.85828000000000
H            0.96026800000000       -0.34709500000000        4.76864900000000
H            2.33921300000000       -0.29718400000000        4.02796800000000
O            0.51991500000000       -2.03327000000000        6.60348000000000
H            0.15812200000000       -1.11375200000000        6.66831100000000
H            1.43222100000000       -1.91564500000000        6.23677100000000
O           -1.28941900000000       -4.00007400000000        3.41125700000000
H           -1.91742000000000       -3.28355300000000        3.68111200000000
H           -0.52020300000000       -3.90063800000000        4.02691300000000
O           -1.72539200000000       -0.85009300000000        3.09458500000000
H           -1.49972300000000        0.01856400000000        3.51305800000000
H           -2.71381800000000       -0.84716300000000        3.03443600000000
O           -1.43105500000000       -1.97427300000000        5.37723800000000
H           -0.66817700000000       -1.83183900000000        4.76214400000000
H           -1.94492400000000       -1.12882800000000        5.33510300000000
O           -2.81480500000000       -2.64460800000000        1.63476800000000
H           -2.01535000000000       -3.21011800000000        1.48752600000000
H           -2.94021600000000       -2.16435100000000        0.77789100000000
34
 energy: -56.607288493520 gnorm: 0.088254397480 xtb: 6.7.1 (edcfbbe)
H            1.40903797834686       -0.68629496782332       -0.45986790197074
C            0.32029243359151       -0.65007240668421       -0.58875626690806
H            0.37472990042579        0.37406311249837       -2.37556258554163
H           -0.00758137471806       -1.57502200342741       -1.07824625954348
N           -0.04152581337646        0.49534726867829       -1.43815772572469
H           -0.11097281134305       -1.49024082077153        1.34323800789220
C           -0.34667124700057       -0.57719338898367        0.78161460971385
O           -0.14665832108460        1.80073178293042        1.20514508623508
C            0.09606863597957        0.60069792215417        1.63317355182914
H            0.30829506475631        1.37765550556220       -1.02468740913916
O            0.69332422930763        0.39667705176567        2.69202307774303
H           -1.06790207098139        0.55879460070212       -1.52829618340988
H           -1.43596692943527       -0.52872713819313        0.67956121539287
O            1.25185565216808       -2.60206857522342        3.94892750662926
H            2.19315431250384       -2.50915779419917        4.16873843954576
H            1.22961726620276       -2.97664677007577        3.05453589420262
O            1.92830478192454       -0.06996950692938        4.92144841233100
H            0.99224427496174       -0.31357944037823        4.76083255386617
H            2.33159519416713       -0.23917595906573        4.04350362937491
O            0.60368950647243       -2.02286858990972        6.71297489314159
H            0.18890627068076       -1.13833818001539        6.69548120945156
H            1.45356357831150       -1.89500364160005        6.25005172119900
O           -1.27251705303445       -4.01915843620581        3.41754123861158
H           -1.89210336002890       -3.31566851074556        3.68443355345832
H           -0.52802913547002       -3.91616018193202        4.03382205308401
O           -1.75435373877554       -0.81048582415052        3.10416167535913
H           -1.51943384961597        0.04013060481674        3.50402191070678
H           -2.72291024512609       -0.83359868027759        3.04213872911578
O           -1.49941567631965       -1.98842667822541        5.36007296595565
H           -0.72600242921450       -1.86641985246112        4.77341771831494
H           -1.97075006442192       -1.14195011278907        5.32730016823223
O           -2.86606320329938       -2.67358001562469        1.59233039151237
H           -2.04607387808805       -3.19814594660105        1.51495968402918
H           -2.93852187846642       -2.18172342681512        0.75821943530963
34
 energy: -56.620388714708 gnorm: 0.032285691960 xtb: 6.7.1 (edcfbbe)
H            1.40773320592284       -0.67739132991242       -0.47331110551848
C            0.32904336771570       -0.65823721111506       -0.60472246427395
H            0.37430069230678        0.42641598084080       -2.37236643081704
H            0.00613108527302       -1.56951430125436       -1.09900022012186
N           -0.04172872027990        0.50708563374434       -1.43949459789579
H           -0.11315606235090       -1.46754579094906        1.34361899859358
C           -0.33230704020160       -0.57834251940637        0.75682321056567
O           -0.15013838169414        1.76500599664395        1.13444941096726
C            0.14727756174380        0.63730642515596        1.57613755752137
H            0.27200101106761        1.37478767611733       -0.97248743966839
O            0.71486307352494        0.42547564856327        2.66340460306435
H           -1.06000018967011        0.56979664336090       -1.51810065897811
H           -1.41282626954991       -0.50174068333836        0.66676018580734
O            1.25891328655704       -2.62933081987683        3.92385986249293
H            2.18273165325537       -2.53695824531655        4.15712493807677
H            1.23124889847347       -2.99256690966621        3.04045448437061
O            1.95724484942845       -0.09028517450192        4.94957991498302
H            1.03062498594672       -0.28890721386830        4.75379995836780
H            2.34282071666898       -0.19615615519717        4.06952121487055
O            0.66086756342593       -2.01750032118950        6.77831365462334
H            0.20965562963488       -1.16886424399936        6.75551021250874
H            1.46692759458078       -1.86863176572337        6.26761422050753
O           -1.24655774813065       -4.03608423399269        3.40318198656352
H           -1.87802573829098       -3.36843641526640        3.69666689387465
H           -0.53094623811475       -3.95346880800770        4.03891511991984
O           -1.79249586390007       -0.74874760111526        3.08426158018882
H           -1.55344731346649        0.08168999981955        3.48598996308463
H           -2.74770959572086       -0.82095956475265        3.04319761366063
O           -1.52716909969893       -2.00871908549681        5.40029214090171
H           -0.76555351881379       -1.91361451137496        4.81150097566124
H           -1.99822814827416       -1.18038339620560        5.34395259657338
O           -2.91189423707970       -2.67659516835482        1.56192412771449
H           -2.10083904255518       -3.20274394878628        1.55648184333638
H           -2.94813596773369       -2.21141758557803        0.72624064847348
34
 energy: -56.627790861149 gnorm: 0.056857013549 xtb: 6.7.1 (edcfbbe)
H            1.41875168110583       -0.66714076395955       -0.49101469136562
C            0.33911217591854       -0.66318088197567       -0.61829553055169
H            0.38198647102093        0.48270472768155       -2.36571208112614
H            0.02681110168293       -1.56885058006178       -1.13140354582059
N           -0.04637287257222        0.51780371692050       -1.43421376614338
H           -0.10688867195058       -1.46317337202709        1.34540651593180
C           -0.32405969070787       -0.58649304076709        0.74288086298567
O           -0.07473653801842        1.77253961023953        1.00539495406094
C            0.12575746503423        0.66820311218841        1.55212609421960
H            0.23108397623751        1.37550678660851       -0.91551352914943
O            0.75291206440227        0.47053994712592        2.61401236347030
H           -1.06506681549976        0.56598337864110       -1.51490590997612
H           -1.40225796269275       -0.49846835703367        0.64627064303502
O            1.26017714511953       -2.65214255328730        3.90605464633611
H            2.18115984643672       -2.56661989935500        4.15357595224472
H            1.23158046370911       -3.00948454826197        3.01951038300491
O            1.99666793027260       -0.14701634775230        5.00028777638241
H            1.05132172505616       -0.24966327281290        4.74059489297883
H            2.36995314684334       -0.11925571581397        4.08160082235252
O            0.72545397646432       -2.01598737156581        6.86087891650054
H            0.20911190950994       -1.19862226478688        6.81598480298549
H            1.48816959156601       -1.83098619851089        6.27812637396751
O           -1.21869543712965       -4.05104261113803        3.37766255029306
H           -1.87983322389585       -3.42539738820060        3.70856582794751
H           -0.52553416130483       -3.99893338300381        4.04634529809783
O           -1.82894314344264       -0.71089877501042        3.10652975752262
H           -1.59230368601484        0.13938636989931        3.46847281419804
H           -2.78144779692960       -0.80682505020972        3.05161070965984
O           -1.54779759047892       -2.02941337667515        5.44202425974228
H           -0.79495084392507       -1.95986720522436        4.84123090316475
H           -2.03190526954908       -1.20886317444090        5.35108904643177
O           -2.98825238398639       -2.69757056462972        1.52655427024947
H           -2.15549186512633       -3.20472600441041        1.61954212783881
H           -2.94424671715426       -2.23762394838960        0.67882048853055
34
 energy: -56.631485993459 gnorm: 0.073643132321 xtb: 6.7.1 (edcfbbe)
H            1.43171689484262       -0.65691239112684       -0.50937025055948
C            0.34906515526179       -0.66315449547502       -0.63088888032770
H            0.39691388393489        0.55728442591092       -2.34751727446643
H            0.04409114661465       -1.56411409779819       -1.16307137715636
N           -0.05062783470362        0.53658747692065       -1.41965151530867
H           -0.09919129068144       -1.45472784707401        1.35217804229843
C           -0.31075086275420       -0.58875175714224        0.73338358661623
O           -0.00671709149102        1.78752764884882        0.88890773217623
C            0.15203140675023        0.69826207627191        1.51019846883053
H            0.18623286628327        1.38045956536138       -0.83730473411767
O            0.77253348004339        0.52079422571455        2.57775431682751
H           -1.07105462251907        0.56543995129075       -1.51087634835226
H           -1.38937328906084       -0.48485899276919        0.63518390620955
O            1.25475805581324       -2.69087407774662        3.87774221121386
H            2.17559329189549       -2.61003865659346        4.14031253677050
H            1.23117009347172       -3.04410098178231        2.98490689626979
O            1.99344374013177       -0.06885072431012        4.94837497487479
H            1.09539059739506       -0.27072015134084        4.76719343076329
H            2.41326124138811       -0.14129189896349        4.11863023088817
O            0.80709054528049       -2.02301770920339        6.92611725749742
H            0.22576603227354       -1.24004068319697        6.88464949380751
H            1.53371643577886       -1.79531137547728        6.30526700716769
O           -1.20502225011364       -4.06871884793196        3.35762267554178
H           -1.88538739432610       -3.47543053327619        3.72169274077911
H           -0.51582156032202       -4.03927305666583        4.03602410577963
O           -1.87040760754297       -0.67750555940439        3.15797071611220
H           -1.65085469965395        0.21183080561257        3.45561231224075
H           -2.82084847101878       -0.78913435999618        3.05743569177616
O           -1.58200447871771       -2.05493824346089        5.47004706834765
H           -0.82790085494780       -2.00643612605924        4.86711540371277
H           -2.07340669219376       -1.23513995511152        5.34781369653933
O           -3.05230196079935       -2.71055999268996        1.50153205717895
H           -2.22229395979480       -3.21376867830288        1.66393597560458
H           -2.94758394651686       -2.26609398303208        0.64117284446387
34
 energy: -56.637720427713 gnorm: 0.046376115661 xtb: 6.7.1 (edcfbbe)
H            1.43854155246003       -0.65646990339530       -0.53325992370278
C            0.35129995567595       -0.66384641063489       -0.64792862321248
H            0.41109325700896        0.59772085293135       -2.33968641669556
H            0.04795977600732       -1.56779936158808       -1.18277315309456
N           -0.05805580365869        0.53959921829013       -1.42126811115905
H           -0.09074821543520       -1.44246194854112        1.35164188788666
C           -0.29801575794328       -0.58005958309408        0.72330134880610
O            0.01113310431125        1.80251306780007        0.85103294824532
C            0.24310635618947        0.71395994241982        1.44653000090193
H            0.14726195647073        1.37324062123387       -0.79072679805297
O            0.75857818219817        0.55308755767042        2.56472697141161
H           -1.08044929219228        0.54716329602458       -1.53268437381905
H           -1.38131926504334       -0.46766907176084        0.63241206301911
O            1.25406132541600       -2.70121632991295        3.86656692033073
H            2.17898495854955       -2.63615008790626        4.13907255730006
H            1.23750392523049       -3.06456226956996        2.97150018918775
O            2.00936309003623       -0.12289156959759        4.98255236674357
H            1.09062940994139       -0.25237343403061        4.73923004921784
H            2.45159664267778       -0.06893729279070        4.12459371095953
O            0.84418998945482       -2.02452529189717        6.92947728386860
H            0.25330388366228       -1.26066502167936        6.95456331542301
H            1.57627816620471       -1.77460334636359        6.37246252118105
O           -1.21282141016803       -4.09100848580801        3.35488879661409
H           -1.89143809259571       -3.50266827714191        3.72257615369562
H           -0.50873638285734       -4.06586684470234        4.01721709797887
O           -1.88921733441345       -0.66518953065100        3.20506538230236
H           -1.69695047187671        0.26227088402764        3.44423010882319
H           -2.83939843692045       -0.77340600502183        3.04652545739390
O           -1.60932635401975       -2.07263139081622        5.48802540103988
H           -0.84565778369949       -2.03238391660500        4.89203758993703
H           -2.10437709170370       -1.25094579391414        5.34032717692912
O           -3.05885529374973       -2.70052687393131        1.51019919844076
H           -2.27703598559009       -3.23202161692126        1.64689021140622
H           -2.98125655962641       -2.29425478212210        0.64077569069229
34
 energy: -56.642123989714 gnorm: 0.050877378879 xtb: 6.7.1 (edcfbbe)
H            1.43454215880893       -0.64882746117223       -0.55724140334354
C            0.34753220070335       -0.65706363751554       -0.66393568623139
H            0.42043785885646        0.62234957713484       -2.33479749729939
H            0.04793429392713       -1.56498606982542       -1.19019836219740
N           -0.07143739214352        0.53902383206292       -1.43518742302786
H           -0.07756317770783       -1.41574005969258        1.34320150630775
C           -0.29078353841008       -0.55854877069380        0.71238905622850
O            0.09405672015895        1.81522131711834        0.81680079125228
C            0.25889778707483        0.72837216504169        1.43326634173310
H            0.09754485279564        1.36565445092005       -0.76696670285805
O            0.77539775886181        0.57488219694477        2.54521546728895
H           -1.08950460297431        0.52316631958126       -1.57376051393397
H           -1.37351155311952       -0.45647063579694        0.62968219500817
O            1.25256308770792       -2.71291379356660        3.85793209404050
H            2.17329338572333       -2.65658854893570        4.13869086897522
H            1.24741463910811       -3.08916192499300        2.97059025456496
O            2.02458660918753       -0.15533898535640        5.00819903735140
H            1.08839264302718       -0.21862938696798        4.69693026192814
H            2.49542488280718       -0.03619622477131        4.15376074927215
O            0.90316977284622       -2.03073268361768        6.98042602995165
H            0.24786414640191       -1.30508005821602        7.02000138985645
H            1.59488762549919       -1.71219940152714        6.35764906848902
O           -1.23516463424052       -4.11247904190691        3.35068089165266
H           -1.89922306290116       -3.52548597494209        3.73173110390862
H           -0.50806141155572       -4.08970342734484        3.98090920106347
O           -1.91031843569956       -0.62875575464810        3.20549358916766
H           -1.74070195482402        0.28377450561078        3.45787095305900
H           -2.85408523172968       -0.73957729776313        3.02051146266431
O           -1.60208749084017       -2.09826503672516        5.53461218293887
H           -0.84606473229116       -2.05688501199491        4.93384221616256
H           -2.12029459823751       -1.29843311245243        5.34815361752563
O           -3.09484717632095       -2.68272710952366        1.50070966981773
H           -2.32446667925255       -3.23731615569876        1.70263005614359
H           -2.98459875124556       -2.33991779876550        0.60030253253872
34
 energy: -56.644772465535 gnorm: 0.046808748556 xtb: 6.7.1 (edcfbbe)
H            1.42703180634860       -0.63741947262084       -0.58876867313509
C            0.34117591165808       -0.64464998224281       -0.68233460308063
H            0.42784813336386        0.65344433418198       -2.32516520495926
H            0.04246293606905       -1.55830620121160       -1.19275890515096
N           -0.08853884703883        0.54161124597440       -1.45220552640858
H           -0.05458867417367       -1.38117116265654        1.33450160464522
C           -0.28026222963625       -0.53088281212662        0.70200973504529
O            0.21301950916569        1.82773477717611        0.76382379177698
C            0.23867752699218        0.74329474703632        1.43968535741766
H            0.04258176427254        1.35519251204571       -0.74254253405066
O            0.80167531284275        0.60688885424690        2.52292493904207
H           -1.09756666974057        0.50177197624009       -1.62786739289979
H           -1.36093087165494       -0.44743204053544        0.63030850982648
O            1.24836808349796       -2.73363901615103        3.84173000337373
H            2.15976697680054       -2.68605337872635        4.14064916393972
H            1.26619597201722       -3.12228158510389        2.96426060188196
O            2.04305735486826       -0.14507033192645        4.99967249110849
H            1.12043066009718       -0.22351136337702        4.70357372350008
H            2.52338765730318       -0.01512263301887        4.16501999587503
O            0.93204622371199       -2.02600970900933        6.99210821190456
H            0.31038453754227       -1.31707519041004        7.08904619247488
H            1.62738948370709       -1.70137288115875        6.42441401340227
O           -1.25465361477884       -4.12100877735780        3.32625899823714
H           -1.92030899226294       -3.56645725050312        3.76354634783955
H           -0.51183321494974       -4.12372883248727        3.93907819805724
O           -1.93645744318487       -0.59732363178044        3.24393927900281
H           -1.79711746945372        0.32586622666108        3.45133884951401
H           -2.86671957082077       -0.70239679863963        2.98855860093789
O           -1.61737945001127       -2.12813687810918        5.56038197197924
H           -0.84834512504754       -2.08152825335570        4.98296951438303
H           -2.13840581455353       -1.34519957554835        5.34487587694924
O           -3.11792212524543       -2.66538187387353        1.50214783879978
H           -2.37126140359582       -3.23945809257872        1.72154091968817
H           -3.02198233410757       -2.39076594905206        0.58337310908164
34
 energy: -56.647970374100 gnorm: 0.053861544121 xtb: 6.7.1 (edcfbbe)
H            1.42552654502841       -0.63461927533323       -0.62126857260070
C            0.33756147619493       -0.64103117979466       -0.69947192572767
H            0.43295624805496        0.68244011228837       -2.32120017239914
H            0.02954265529168       -1.56030446024421       -1.19550171610915
N           -0.09979494435123        0.54448423501452       -1.46375603726227
H           -0.03049851502120       -1.36488503037301        1.33531928757193
C           -0.26056349178079       -0.51890084607252        0.69621725807492
O            0.22767654073638        1.82885041543043        0.73488409977213
C            0.28428489688733        0.75624007475553        1.40618791256319
H            0.01583556597489        1.34401157217563       -0.72581888771380
O            0.80096358120517        0.64231159307221        2.51795889710460
H           -1.10268140252298        0.49260218287599       -1.66702143363656
H           -1.34400637668964       -0.43120527938503        0.64167686290114
O            1.24097467412004       -2.75350762070816        3.82748374817418
H            2.14579061814643       -2.70993069479460        4.15360251088338
H            1.28546504037407       -3.14855587529078        2.95166534424985
O            2.05750088810791       -0.13647006939644        4.99088145415017
H            1.14872030264116       -0.22423592797738        4.71402759709337
H            2.54037387598363        0.00330548212259        4.17292385319061
O            1.00782276265016       -2.03422905587981        7.04068045514375
H            0.28928578474558       -1.37248930957897        7.13960005258546
H            1.65843229173514       -1.61619122302066        6.41965820456831
O           -1.27760916314099       -4.12420377603903        3.30465640732433
H           -1.94271852656745       -3.59379461367704        3.78631277342256
H           -0.52032582604405       -4.14771092720168        3.90569788894043
O           -1.95935003279197       -0.58596775804842        3.30549477818816
H           -1.84206179837994        0.37942752712530        3.42604270959379
H           -2.87780618200980       -0.68996606871048        2.97696547377239
O           -1.61467380687190       -2.14803596113416        5.59381108804861
H           -0.83691069520184       -2.11098196683589        5.02476230027419
H           -2.14553980472525       -1.37921973973378        5.33652859099160
O           -3.14121811812082       -2.65286065994352        1.49849454852214
H           -2.40813958748067       -3.23426812028524        1.74266834948240
H           -3.04358947617506       -2.43568675540046        0.55993129886074
34
 energy: -56.648474783358 gnorm: 0.063594856219 xtb: 6.7.1 (edcfbbe)
H            1.42299592678464       -0.63133103358679       -0.65297787172834
C            0.33133316258128       -0.63509952938170       -0.71049967355392
H            0.43006159954846        0.70548063369002       -2.31897277840220
H            0.00625927301400       -1.56149064715321       -1.18852958226453
N           -0.11255982803886        0.55037482963474       -1.47294872735863
H           -0.00432458463601       -1.36001487366516        1.34042604879811
C           -0.23879477078426       -0.51276835938429        0.69968214397818
O            0.21400486014206        1.82646108022471        0.70948003001670
C            0.34886490409748        0.76574082177557        1.36432341977135
H            0.00858007638651        1.33827512721512       -0.73317301141949
O            0.78018439717214        0.68320702938490        2.53056781880533
H           -1.10839429750966        0.49410373456897       -1.70181005978329
H           -1.32725645413253       -0.41421559827801        0.66267841844837
O            1.22960758923462       -2.77999943041907        3.81687134004834
H            2.12529055471786       -2.72389440640568        4.17806379217773
H            1.31254893980575       -3.17174671417446        2.93694934933474
O            2.07089660091394       -0.16200883146173        4.99718060443107
H            1.15441338301224       -0.19043641037932        4.67404273515973
H            2.57196578667253        0.00682991894174        4.20222217629447
O            1.03796403180259       -2.02050390944031        7.06539677706257
H            0.32305440256378       -1.36944047446797        7.14369607056768
H            1.67617294607637       -1.60489789252997        6.45300623368529
O           -1.32987330047236       -4.15349340065608        3.32215391903245
H           -1.94949000876256       -3.59103100572554        3.78320557777784
H           -0.53409464135438       -4.15824968815479        3.87405385962087
O           -1.98717004363950       -0.53677202573888        3.25657500304877
H           -1.85056613949858        0.36681693315750        3.46675404716579
H           -2.89545452109947       -0.67509359749399        3.02339532150289
O           -1.62352714862917       -2.17322293443199        5.60203688641535
H           -0.80979130002194       -2.14476672454274        5.07206914168502
H           -2.14042549896798       -1.40475278198237        5.31773330045439
O           -3.17224640022637       -2.64168637525965        1.48664304379494
H           -2.43309510527546       -3.21616591178643        1.78297665035081
H           -3.04590839147496       -2.47978655209159        0.52682299508044
34
 energy: -56.651640692100 gnorm: 0.049037855243 xtb: 6.7.1 (edcfbbe)
H            1.42001421843133       -0.62766506570125       -0.66877076669286
C            0.32833293404730       -0.63094370882236       -0.71351873511631
H            0.43170177875840        0.71869038050187       -2.31854132947699
H           -0.00172565323656       -1.55870457388451       -1.18484812635315
N           -0.12116561490607        0.55134907088540       -1.48009095966824
H            0.01315139617493       -1.35384781932626        1.33901730255198
C           -0.22881658147469       -0.50645312923103        0.70358586437119
O            0.25871905252607        1.83415142558647        0.67922822565597
C            0.33977601133593        0.77493190970145        1.37022120464594
H           -0.00845691581785        1.33862103640492       -0.73903621602532
O            0.78926323901373        0.70280550351262        2.52483989361083
H           -1.11281076525593        0.48719518781961       -1.72228887252488
H           -1.31660159745194       -0.41222114659003        0.67388269902705
O            1.21990567025976       -2.81181041331823        3.81102051461560
H            2.10518683688850       -2.73048186342189        4.18884391580425
H            1.32924615208122       -3.18646423759288        2.92635353107454
O            2.07092001533542       -0.19281349253821        5.01314352310443
H            1.15756256506274       -0.19327785065188        4.62906002778940
H            2.60648434562733        0.05075357560527        4.22239327138150
O            1.06400887809547       -2.01259749424079        7.07567880398906
H            0.34855729484220       -1.37492466951129        7.16567125085830
H            1.69522622836185       -1.58757079655816        6.47458226687746
O           -1.34799483303295       -4.15186613369913        3.30841019818582
H           -1.97007504123375       -3.61409161558701        3.81573198788949
H           -0.53963493385931       -4.16300733542698        3.84035209691294
O           -1.99604455429272       -0.53159706357381        3.31366034881132
H           -1.89504855690218        0.41740255731665        3.44612696493327
H           -2.89839740558102       -0.69436888555038        3.00524832550943
O           -1.62155815274514       -2.18592668877225        5.61452337677631
H           -0.80122158741369       -2.16420520811645        5.09634321307205
H           -2.13702485535432       -1.42471378636013        5.30515275397738
O           -3.17013728273804       -2.65124143445807        1.49372836936937
H           -2.44248156253680       -3.21198331238101        1.73905680224913
H           -3.08763472300692       -2.47870192201916        0.56133327281242
34