37
 energy: -59.876297743627 gnorm: 0.000680699966 xtb: 6.7.1 (edcfbbe)
N           -0.67365598712258       -0.40907089761049        1.09144562204004
C            0.62606760516052        0.18254994745912        0.73483623330051
C            0.59768223357081        0.79652472761769       -0.66332132399724
C            0.33501491973120       -0.22170312684786       -1.77665573471537
C            1.50568899135967       -1.22454131997184       -1.92645225385363
O            2.57566047758112       -0.79706988421074       -2.39865418662841
O            1.29911739179226       -2.41018410102161       -1.56101264933706
H           -0.74855434060220       -0.68141030850249        2.10959672162999
H           -1.44108477389844        0.22173161342858        0.85921357294213
H            0.88616741608359        0.95800008797652        1.45600283704537
H            1.38855750702372       -0.59658976536919        0.76439978358928
H            1.56607748310992        1.25972358991550       -0.86274250104280
H           -0.16468592024298        1.57725808241797       -0.70996254693566
H           -0.58692380896576       -0.77912605739073       -1.61565130846627
H            0.26354010866494        0.30483861916385       -2.73067331310277
H           -0.79608222692298       -1.31906703907896        0.58046353821294
O           -3.13354756257821       -2.37064294480003        1.54619107208132
H           -2.47255202660089       -2.72160786297657        0.92990017266489
H           -3.92764191409270       -2.89523672433454        1.42981037214818
O           -0.03402107850254       -1.78840388475753        5.93015567133187
H           -0.52438338914519       -1.54613140950546        5.12120827195151
H           -0.64790230979200       -2.33318823727333        6.44469666568493
O            1.99054113071838       -3.07987773199220        4.66641219648402
H            1.30921836072015       -2.63567346829123        5.22364054619729
H            2.72465367940492       -2.46356083808391        4.60715480149881
O           -2.06471887477316       -3.43897565527269        7.09258576889526
H           -2.14323636657834       -4.38815730544645        6.95579701895320
H           -2.92310767135199       -3.11883475038637        7.38575319784944
O            0.33010566860305       -3.79923129865274        2.65882703955530
H            0.07700416489763       -4.69982738261074        2.87799197653530
H            1.05635188520409       -3.57351213297735        3.27947300664489
O           -0.69497641928811       -2.95626468478246        0.14399454063265
H           -0.00637068473300       -2.87267874856513       -0.55318740955078
H           -0.23304256902768       -3.33364996862812        0.91394400452509
O           -1.20281623404874       -1.65495059903380        3.40583515452063
H           -2.08542617033999       -1.85985665665619        3.05319326274227
H           -0.66151269497993       -2.43796688298660        3.16933017799317
