64
 energy: -105.647313950491 gnorm: 0.071629736097 xtb: 6.7.1 (edcfbbe)
N            0.12796813220000       -0.99557406350000        2.41395041790000
C           -0.58992272230000       -0.82388423010000        1.14181113900000
C            0.30479732470000       -0.15180335380000        0.11200749400000
C           -0.48585829330000        0.30882369500000       -1.11012596930000
C           -1.11456768450000       -0.82169626970000       -1.88796647800000
O           -2.07389725000000       -1.45054247140000       -1.37372014660000
O           -0.66343667900000       -1.08684648930000       -3.03456758660000
H            0.96206448620000       -1.58137405830000        2.24936508970000
H            0.41402928010000       -0.06613446230000        2.76398270620000
H           -1.45739678770000       -0.19120880510000        1.30929847910000
H           -0.93154100540000       -1.78755012130000        0.77043203700000
H            1.09848796270000       -0.82056039840000       -0.20323181350000
H            0.74548578210000        0.73863845260000        0.54962819970000
H           -1.29764349500000        0.94752080250000       -0.77912086090000
H            0.16819751660000        0.86063094910000       -1.77634223510000
H           -0.49812941400000       -1.44160087530000        3.10262574530000
O           -3.44290388700000       -3.42669403640000       -2.39211346610000
H           -2.82749691490000       -2.72069426130000       -2.05135329440000
H           -3.85126313060000       -3.01916607000000       -3.17663137150000
O            1.03372154760000       -3.15939706360000       -1.08386519900000
H            1.45777079840000       -2.54740070160000       -1.71940896090000
H            1.50389493820000       -2.99817383150000       -0.23724978730000
O            1.10269964730000       -1.83793790920000       -5.22725943120000
H            0.96152808480000       -1.19689951370000       -5.93487868980000
H            0.27944388730000       -2.34885679430000       -5.12372907970000
O            2.17500994480000        0.13542142490000        4.67271446870000
H            2.55143944300000        0.10999558620000        5.56214899730000
H            2.37634048910000       -0.74701650330000        4.29503206000000
O           -2.05073732520000       -0.66814490250000       -5.30812248950000
H           -1.56511192110000       -1.19955807740000       -5.97004657660000
H           -1.54280645730000       -0.74483190400000       -4.47471810250000
O            0.56036648770000        1.18052493380000       -4.16792677430000
H           -0.18766814980000        1.80242776800000       -4.16541383180000
H            0.22164742860000        0.34616503720000       -3.79282848040000
O           -4.29265401770000       -0.15870549140000       -0.55992961710000
H           -4.90205058950000       -0.82296174140000       -0.17549984930000
H           -3.47392861240000       -0.63697433020000       -0.81625041380000
O            0.12915102200000        1.76013423310000        3.21099376920000
H            0.39506103740000        2.01227317320000        4.11382392870000
H           -0.81060425240000        1.55348662430000        3.25326445750000
O            0.56530710160000       -4.02867729680000        2.84965259980000
H            1.14137280130000       -4.55587878680000        2.27298066870000
H           -0.18294345690000       -3.76172116420000        2.29614360290000
O            2.36239423300000       -2.50064767110000        4.20189509950000
H            1.64103107660000       -2.99064677660000        3.75639425710000
H            2.29513325310000       -2.71545544470000        5.15186848560000
O            2.84740163970000        0.23315795370000        1.89439535170000
H            3.43174151200000        0.78245715670000        1.34280946530000
H            2.25529843640000        0.85115417490000        2.34101305290000
O            2.30112579660000       -2.39573282590000        1.24668350420000
H            2.71010585820000       -1.51468155380000        1.32420055150000
H            2.93317885550000       -3.02027385200000        1.61337555640000
O           -0.98493515550000       -3.42004209510000       -4.33351784850000
H           -0.40958657140000       -4.09710311520000       -3.91536870880000
H           -0.99924815850000       -2.66252689210000       -3.70713640390000
O            2.31895495240000       -1.60449388210000       -2.83526171400000
H            2.58942027510000       -0.68240523600000       -2.64609197380000
H            1.82654172940000       -1.58063168320000       -3.67523002460000
O           -2.12779459620000       -2.00777662500000        3.73489263540000
H           -2.48914542560000       -2.08048210590000        4.62603294050000
H           -2.76197076600000       -1.44998844200000        3.23888227360000
O           -0.36179047960000       -0.19588869400000        5.30940365820000
H           -0.43873940810000       -1.12727705470000        5.58012364380000
H            0.56730447720000       -0.06499886840000        4.98638974140000
64
 energy: -105.656794195838 gnorm: 0.035273712156 xtb: 6.7.1 (edcfbbe)
N            0.12594437398271       -1.00022576621778        2.41320458227545
C           -0.59661954037875       -0.81807568273157        1.14380316407140
C            0.29596756309286       -0.13608495809821        0.11742222598391
C           -0.49459230576533        0.32844004441328       -1.10486869781999
C           -1.11121982237805       -0.81978413239476       -1.87916486333158
O           -2.06807166624529       -1.44569342534211       -1.36451913228434
O           -0.67359139324925       -1.06822620597435       -3.03251877389681
H            0.96220889571220       -1.58449836182215        2.24338705303720
H            0.41397436493312       -0.07497000027949        2.77382433379979
H           -1.47429957187825       -0.19459990859132        1.30927245997937
H           -0.93094984717405       -1.78048763476055        0.75869985417785
H            1.08564177264526       -0.81027102138361       -0.20395854832063
H            0.74001387947601        0.75186420340503        0.56263782085904
H           -1.31509407094450        0.96992113186390       -0.78255044830720
H            0.16250454414936        0.87976688505559       -1.77373675145062
H           -0.49791751718216       -1.44913631007648        3.10346160323466
O           -3.46595346749298       -3.44353561795932       -2.40263280637306
H           -2.86073637243168       -2.74562757211174       -2.03684639885547
H           -3.84104855204533       -3.03948363490218       -3.19449518058461
O            1.01834754163522       -3.16543017423456       -1.06045314899961
H            1.45255037158119       -2.60374671079919       -1.73779173260759
H            1.52322074769709       -2.98658406528982       -0.24005222006270
O            1.13677084209466       -1.85384858588867       -5.27345608964867
H            0.94374196373020       -1.16977942472819       -5.92723816620764
H            0.31288804244145       -2.35697949533330       -5.12420509440833
O            2.17088521899802        0.13715375466424        4.68262018256621
H            2.58675145006659        0.14538677817161        5.55137691334721
H            2.37442137023481       -0.74853167122117        4.30998613786047
O           -2.03757661839166       -0.61036492752194       -5.34083947233134
H           -1.60852675792979       -1.21822575690003       -5.96539014873300
H           -1.57956586915406       -0.76685205195949       -4.48731926103141
O            0.58033346212807        1.19244855156571       -4.12716231764530
H           -0.18148411959859        1.78546793643761       -4.20447915242267
H            0.21205973906600        0.33221377288330       -3.83537429911621
O           -4.27376471724021       -0.14030744894649       -0.49692634184271
H           -4.91632516594863       -0.81452526118570       -0.21594640126316
H           -3.49588996242006       -0.64422874134504       -0.82289518739284
O            0.13704222838704        1.73740425757321        3.19771482714951
H            0.41613566276430        1.99776528842637        4.08462422598495
H           -0.81408113467717        1.58931758577679        3.25620821228110
O            0.55584682843046       -4.03588098444160        2.84905080140611
H            1.11462259061466       -4.56824837905452        2.27191483178867
H           -0.19615590346887       -3.76848266600690        2.30871222898725
O            2.35314574812234       -2.49789056722459        4.21763538537056
H            1.65450167000190       -3.00708969252628        3.75789995296720
H            2.30873752643354       -2.76308338929635        5.14506454940740
O            2.86424650945122        0.24710149573965        1.86990182978961
H            3.45262904287887        0.80844526894888        1.35483664551986
H            2.29307425294627        0.84669159642972        2.36960020044146
O            2.32336551620759       -2.40038344540101        1.26597041562088
H            2.70759496421040       -1.50889656598762        1.34776322217306
H            2.96539082464710       -3.00726874427540        1.64183545102865
O           -0.94756717184517       -3.41869059793674       -4.35315266441786
H           -0.43521795013887       -4.10642904660447       -3.89992217439673
H           -0.99523123454636       -2.67322331059827       -3.71462249278568
O            2.33858808453952       -1.58479954164893       -2.83241628978270
H            2.57308091425502       -0.65881761341860       -2.67656527321148
H            1.86308816806146       -1.60661613382062       -3.68634035494880
O           -2.12866133257083       -2.00143630253928        3.73750773196690
H           -2.49209268031218       -2.08835954121044        4.62322513331907
H           -2.76409877547909       -1.46781026444472        3.24307703850761
O           -0.39375761814816       -0.20754102388382        5.30644143717800
H           -0.43313910189104       -1.12759374462459        5.58820106941049
H            0.54355819731057       -0.04744927911127        5.02426726198985
64
 energy: -105.662526921918 gnorm: 0.028921075438 xtb: 6.7.1 (edcfbbe)
N            0.11792390886896       -1.00678919224601        2.41071100610585
C           -0.60784314541711       -0.81410261535413        1.14506676593488
C            0.28027923041719       -0.11699256449192        0.12344304920632
C           -0.50973974689309        0.35090747548609       -1.09878510693945
C           -1.13176599127038       -0.79802465194378       -1.88283233117868
O           -2.06602809160429       -1.44389955783739       -1.35722920149447
O           -0.69523054173461       -1.03819580733414       -3.03661854577809
H            0.95517166208074       -1.58983690366551        2.23615922798985
H            0.40685538964851       -0.08424894881333        2.78192109506933
H           -1.49682865348937       -0.20408489629820        1.31267883470645
H           -0.93166816046119       -1.77541795336433        0.74533156006213
H            1.06712957340598       -0.79270187488675       -0.20681536634976
H            0.72873674187166        0.76531723037593        0.57984239937580
H           -1.33513497664037        0.99610805699667       -0.78363217140162
H            0.14892581114875        0.90352294331864       -1.76917945640712
H           -0.50367133013196       -1.45649957042604        3.10364033798816
O           -3.49737838707711       -3.46306174426600       -2.41246673193393
H           -2.90253097092158       -2.77524562445584       -2.02934633183571
H           -3.83618358972187       -3.07368174815115       -3.22151655885722
O            1.02317146946552       -3.18596172596976       -1.04526978363007
H            1.45987724935558       -2.64927161868379       -1.73597372195453
H            1.52552417594904       -2.97981101967517       -0.23286665012856
O            1.18195785378266       -1.87315794530845       -5.32928529431469
H            0.91488869964304       -1.13288236793792       -5.90788642395062
H            0.36832934568483       -2.38433085395580       -5.13002872151444
O            2.16669149697939        0.14407731524718        4.69301658697652
H            2.63659541037382        0.19904203808225        5.53381293983338
H            2.35462262051366       -0.75356439727978        4.33751642250013
O           -2.04632485100292       -0.58583443631631       -5.36712572033584
H           -1.66027127707759       -1.22717411974989       -5.97440987439877
H           -1.59966229423070       -0.77197677552914       -4.51847956260543
O            0.58917568719745        1.18346899186872       -4.14125955603429
H           -0.16423945760681        1.77003979809802       -4.24269424375381
H            0.22291676703338        0.33890460283813       -3.82231748709508
O           -4.27645980905681       -0.13025778216842       -0.46890729423582
H           -4.91204656306347       -0.80850007069517       -0.22742097462343
H           -3.50405065941697       -0.62501696846569       -0.80354037750057
O            0.15095200991678        1.71502898844528        3.17475807422179
H            0.44995728589568        1.97063782516776        4.04942288443801
H           -0.81030700163733        1.63011302631859        3.25102779649659
O            0.54282459485672       -4.04987462638832        2.85203461678758
H            1.07832336421217       -4.58582470361217        2.26425665066106
H           -0.21879125872712       -3.77440227744862        2.33460215500214
O            2.34601434719342       -2.50599178598995        4.23729131680577
H            1.66712073137113       -3.02330859623033        3.75784802839786
H            2.32413931224015       -2.83006714740396        5.14090338961285
O            2.90591054899914        0.26318466119952        1.85448345140942
H            3.48219553060365        0.84706513211219        1.36574577332047
H            2.34337461485188        0.82810639192296        2.40872678544218
O            2.35724523876163       -2.40103943415745        1.29222721780133
H            2.70748713462721       -1.49434968511650        1.37017556209636
H            3.01499746387562       -2.97983167154205        1.68602286766158
O           -0.91060414239409       -3.40620599940977       -4.37093612819200
H           -0.46266032148468       -4.11785446994211       -3.90164921768200
H           -0.97426617801470       -2.68179899777912       -3.71250406485348
O            2.35841919261847       -1.56148293793944       -2.83623125156499
H            2.54994687035339       -0.62653525981186       -2.72317696687582
H            1.91414511799020       -1.64046528926244       -3.70907285240586
O           -2.13877687027340       -2.00948901731564        3.73565149068727
H           -2.49417588941812       -2.09769893785859        4.62197076992260
H           -2.76958608639881       -1.48855824230403        3.24269461803240
O           -0.42277373195116       -0.21119922339054        5.32140293644912
H           -0.43962237084881       -1.12428758579564        5.60319102344236
H            0.51644052818102       -0.04144168421043        5.06518923438857
64
 energy: -105.666202466739 gnorm: 0.043679405233 xtb: 6.7.1 (edcfbbe)
N            0.10703887741436       -1.01146762932819        2.40758778574898
C           -0.62087455556548       -0.81374053203518        1.14525673858209
C            0.26091799765553       -0.09903896269562        0.12905998607178
C           -0.52882054633570        0.37063552997191       -1.09189914757471
C           -1.14415597970226       -0.78627582069099       -1.88168159258103
O           -2.06962204651133       -1.44305123156546       -1.35728233545374
O           -0.71745110494351       -1.00467168132502       -3.04372879008825
H            0.94438324672782       -1.59315958059720        2.23160090468703
H            0.39390301935379       -0.08806124875562        2.78401490888937
H           -1.51801374481844       -0.21661787030027        1.31844689307214
H           -0.93405047026360       -1.77431841698141        0.73450613516749
H            1.05087095358433       -0.76857795671542       -0.20843509836248
H            0.70790190101188        0.77953933857172        0.59498897799538
H           -1.35832464716168        1.01566559749482       -0.78327010273509
H            0.12887048237083        0.92771703724470       -1.76067126651487
H           -0.51226768292441       -1.46079094211327        3.10308586683616
O           -3.53484980573375       -3.48181125930579       -2.41395076198256
H           -2.94449811908342       -2.80280958836792       -2.02769583617297
H           -3.82667522064647       -3.12033616122665       -3.25760892953684
O            1.03859643965524       -3.20306553252061       -1.02762653753694
H            1.47264808968550       -2.68483894974387       -1.72619430771275
H            1.54059151266550       -2.97690669943832       -0.22207117285671
O            1.20799956385564       -1.87263463184147       -5.35394128501331
H            0.92500391533448       -1.13683572307164       -5.90762394214115
H            0.41285920735210       -2.40790379662947       -5.14933511180059
O            2.16175945996317        0.15276187214716        4.70199648078933
H            2.68317165721332        0.25332670949414        5.51179826775599
H            2.32800977173207       -0.75970872881162        4.37217982875040
O           -2.04820793497738       -0.54838641809073       -5.40029721094066
H           -1.72755525207722       -1.26038735379739       -5.98244961854726
H           -1.62051999319720       -0.75798926189637       -4.54993041161292
O            0.62023155493659        1.18700558467048       -4.10601252634465
H           -0.14651812333494        1.74930603343214       -4.32622802493800
H            0.22035425386769        0.33437269386592       -3.83508404056676
O           -4.25516993717090       -0.10808086722040       -0.38915174908649
H           -4.94153592785258       -0.80632879594388       -0.28614217634770
H           -3.50391453276206       -0.60560607220875       -0.77021525938774
O            0.16525159435349        1.70614930426660        3.14691891901545
H            0.49194198092445        1.93760409241993        4.01836369501462
H           -0.79564090423133        1.65762052289030        3.24158069706055
O            0.53162863642946       -4.06167405064653        2.85601699817800
H            1.03604668037109       -4.60552963013745        2.24725000644640
H           -0.25170721246144       -3.77966402774239        2.37325188151354
O            2.33469945242923       -2.51539327782661        4.25758689445175
H            1.67093061476007       -3.03337669928600        3.75949228295467
H            2.34843084812148       -2.90835961601533        5.13900967754341
O            2.95162605017198        0.27699792122011        1.84266898491587
H            3.52296037991740        0.89271563336004        1.38607796141628
H            2.39305155211776        0.80012371813067        2.44542723536713
O            2.39083654123979       -2.39131584694045        1.32297059049690
H            2.71738839527362       -1.47430022148904        1.38665385265116
H            3.06164445404700       -2.94365617447932        1.73543809394514
O           -0.87254615060373       -3.38869243310231       -4.39027366966621
H           -0.49509226979064       -4.13091164100147       -3.89770510695034
H           -0.94798914444964       -2.67515440688383       -3.72505818402155
O            2.37675192290100       -1.54194498736487       -2.84702950635560
H            2.52812429351500       -0.59521398994025       -2.77174469047914
H            1.96051255354077       -1.66654578728007       -3.72939986075178
O           -2.14595786061804       -2.01985325178913        3.73556286619605
H           -2.49554723215803       -2.10925134072332        4.62366908602616
H           -2.78594023810303       -1.52073994704476        3.23354384620311
O           -0.44893266697961       -0.21455489356853        5.33863995102049
H           -0.44315902698184       -1.12553517896475        5.62810534751559
H            0.48824510894979       -0.03317930443727        5.10029551078227
64
 energy: -105.668929420927 gnorm: 0.039470837477 xtb: 6.7.1 (edcfbbe)
N            0.09543653945053       -1.01615539605861        2.40416632271710
C           -0.63498820315084       -0.81629739995448        1.14464999460108
C            0.23978682684884       -0.08283858595168        0.13465175094303
C           -0.55037916770837        0.38970874494267       -1.08362515879136
C           -1.15323033146142       -0.77747767576094       -1.87643536092812
O           -2.07466121277546       -1.44256287444127       -1.35760158409027
O           -0.74067087615037       -0.96835689008664       -3.05020721895880
H            0.93257542475086       -1.59658699563995        2.22886678312864
H            0.37894438922029       -0.08986426882002        2.78136819828088
H           -1.53845161066505       -0.23119023807404        1.32438986819003
H           -0.93768635742088       -1.77606272272206        0.72472323788429
H            1.03666383129066       -0.74176633006084       -0.20886858201974
H            0.68103746623481        0.79364929855750        0.60942827031350
H           -1.38342250840031        1.03201322908565       -0.77940991262650
H            0.10477548302831        0.95220293438035       -1.75019316638931
H           -0.52186655971336       -1.46429342338430        3.10217574447202
O           -3.57362880101089       -3.50045583180520       -2.42076484921663
H           -2.98800034921826       -2.82879817765212       -2.02953899975626
H           -3.82009763614588       -3.16482858435268       -3.29578486732785
O            1.05496607300413       -3.21272847045723       -1.00336133362864
H            1.48697053577124       -2.72161496703379       -1.71888130184820
H            1.57077860982690       -2.97249489376068       -0.21103360237571
O            1.24089298070445       -1.88353505863229       -5.38213660387718
H            0.93376119993846       -1.13443699491949       -5.88951594416722
H            0.45795726269909       -2.42908728841038       -5.16219198825182
O            2.16094597819596        0.16033816820725        4.70866614065009
H            2.71647012265350        0.29554430263741        5.48793360370092
H            2.30480640442237       -0.76649402138049        4.40759438672278
O           -2.07187318092611       -0.54843077232619       -5.42691696849917
H           -1.77318218123804       -1.25588846320583       -6.00478954322975
H           -1.64478201602949       -0.74173918664350       -4.58070346610802
O            0.62996337300277        1.16821004049759       -4.14103494118822
H           -0.11092728418956        1.74224402271437       -4.35681187438736
H            0.22434213991443        0.33256699816995       -3.83517876719680
O           -4.27848632301677       -0.10950451714976       -0.41018041207962
H           -4.92386908048232       -0.77515928079859       -0.23421248360732
H           -3.50393776933311       -0.58493558211434       -0.74310463836878
O            0.18055580021188        1.69921337317564        3.11892918246962
H            0.53944031566651        1.89920520504478        3.99022870716384
H           -0.77648360053085        1.68442915330043        3.23088694327319
O            0.52149950877047       -4.07187441347204        2.86052512271176
H            0.98975325802551       -4.62406041190983        2.22481939409249
H           -0.29004195057250       -3.78556619503855        2.42040551100330
O            2.32425921495811       -2.52978145771341        4.28033940042459
H            1.67100823576387       -3.04183516922580        3.76497170293383
H            2.36973415616967       -2.97770609011239        5.13884599975236
O            2.99909121931747        0.29001650534972        1.83638461576346
H            3.56810641785673        0.93566405071669        1.41020786868509
H            2.44135754258902        0.77135862400380        2.47258653140655
O            2.42262569884063       -2.37409542785466        1.35673084781008
H            2.73514309217946       -1.45200163010089        1.40338443521555
H            3.10132593069080       -2.90383272196939        1.78712481143888
O           -0.84175602855139       -3.37380784337914       -4.40278654903247
H           -0.51689643874198       -4.13474855992229       -3.89881232144870
H           -0.91822750102189       -2.65822227652520       -3.74579309205756
O            2.39532812068318       -1.52650927640549       -2.86734331510560
H            2.50204269401404       -0.56767591987714       -2.82308802344955
H            2.00580925633605       -1.68975843427806       -3.75313049025906
O           -2.14968527348668       -2.03103683453833        3.73654547443704
H           -2.49647506173326       -2.12167870138042        4.62615572670352
H           -2.80977654717493       -1.56535297138220        3.21811751258894
O           -0.47291027609785       -0.21914757293554        5.35237707351077
H           -0.44361290952234       -1.12880401931586        5.65760422780725
H            0.46149656544431       -0.02199066255171        5.13096086847510
64
 energy: -105.670200612548 gnorm: 0.055853570021 xtb: 6.7.1 (edcfbbe)
N            0.08608967880356       -1.02000776836196        2.40053213515292
C           -0.64655154292147       -0.82207541778512        1.14202640801680
C            0.22167497216944       -0.07530499371002        0.13617292223651
C           -0.57044121992050        0.39958452209048       -1.07992045620663
C           -1.17592011118523       -0.75743794147127       -1.88497288619933
O           -2.08265420535932       -1.44360799957276       -1.36528313175197
O           -0.75664332222545       -0.94476809546087       -3.05658196703525
H            0.92297226373476       -1.60006089843868        2.22796520478092
H            0.36689983697609       -0.08987929366635        2.77183626750905
H           -1.55198851810650       -0.24369525516441        1.32765337857319
H           -0.94210893331789       -1.78156655181322        0.71858464407148
H            1.02745638544193       -0.72208885287456       -0.20936566307153
H            0.65438581047954        0.80141146812926        0.61746609138680
H           -1.40225116240049        1.03861558888799       -0.77243081994303
H            0.08238663875619        0.96717053551796       -1.74306291239364
H           -0.53084568693725       -1.46565885130849        3.10043677386462
O           -3.58018229932635       -3.52750685147505       -2.44288240070033
H           -3.01013145892198       -2.85019525688514       -2.03882935221507
H           -3.84219654806893       -3.18755699245612       -3.29766277055432
O            1.07536975443036       -3.21348569600632       -0.98186992526716
H            1.50322165278323       -2.73795822309944       -1.70884678254381
H            1.59994764566740       -2.96691764764442       -0.19737638397716
O            1.29095001079293       -1.92541712037758       -5.42913180947202
H            0.91250686098353       -1.08859741623725       -5.82763084292940
H            0.50407219238428       -2.45140936370160       -5.16192243733567
O            2.16277924390904        0.16101539000417        4.70718156498041
H            2.72366296836825        0.30984867766738        5.46642177956252
H            2.29659427206769       -0.77372060310308        4.43045767662838
O           -2.07923610810665       -0.53963011273267       -5.45532355690371
H           -1.81326286796657       -1.26632549128501       -6.02344890215743
H           -1.66126317413905       -0.72455552539207       -4.60242261276524
O            0.63378699762753        1.14264172063678       -4.19244880702000
H           -0.07348797766073        1.73864600168549       -4.38063502168602
H            0.23308434537649        0.33851253892464       -3.81067848657581
O           -4.25514525187837       -0.09382120027184       -0.33800243320605
H           -4.96010097453712       -0.76097835709972       -0.27463252913584
H           -3.49730122548064       -0.57998106459837       -0.70753030226346
O            0.19934004599504        1.68752655845138        3.10306431661765
H            0.57922971438391        1.86558669389234        3.97463127279759
H           -0.75804334272495        1.71452341211742        3.21969760690725
O            0.50854791918116       -4.07828807823459        2.86775507480837
H            0.95545981816952       -4.62631320480898        2.21057467984761
H           -0.32064844107019       -3.79011193458829        2.45880009244025
O            2.32435338383863       -2.55496577567652        4.29988065507654
H            1.66576733497296       -3.04699506199452        3.77569290128645
H            2.36677216497630       -2.99581278653248        5.14418857194891
O            3.04083950974468        0.29970952588503        1.84765934012202
H            3.59965181100747        0.95540455087790        1.42457754842390
H            2.47849618962753        0.75694201813656        2.48174135390716
O            2.44268992334167       -2.35160513805862        1.38208719312916
H            2.75547775498929       -1.43092907240833        1.41516538059281
H            3.11892058987486       -2.86992374083646        1.82770178146650
O           -0.83731241004577       -3.36481488252745       -4.39951496258618
H           -0.51151448603096       -4.11806154966134       -3.91616955901530
H           -0.89894784731625       -2.63589976387178       -3.75981199817806
O            2.40161370814068       -1.52268631536871       -2.89531827411564
H            2.48320002702781       -0.56071741795539       -2.86385712376296
H            2.04064781619076       -1.70438521854886       -3.78476726694280
O           -2.15387428472053       -2.05231310958630        3.73218533726585