64
 energy: -105.722618868066 gnorm: 0.000264965203 xtb: 6.7.1 (edcfbbe)
N           -0.10508510099540       -0.57547500621056        1.86164539055100
C           -0.94053186790349       -0.49234079582142        0.65625247767126
C           -0.42940987097273        0.60952172357898       -0.26896293879800
C           -1.48108802844106        1.02171145216445       -1.30263614752188
C           -1.84952308822675       -0.13483470626053       -2.23435954319981
O           -2.91864053130835       -0.75828523016850       -2.01440571999830
O           -1.07304485411688       -0.39897787756856       -3.17880212610585
H            0.89970542906523       -0.73243680294738        1.60410321807463
H           -0.16189433413906        0.31025817705216        2.39901887075533
H           -1.97301679852484       -0.27682511923006        0.93674103263432
H           -0.92007044379179       -1.45076954882236        0.13594092279676
H            0.46969802304722        0.27885459691446       -0.79053809913836
H           -0.18004185749546        1.49301068865492        0.32066664996811
H           -2.38888934091927        1.36069255621922       -0.80132291218526
H           -1.08774826394226        1.82702456370465       -1.92590469302339
H           -0.41846096533070       -1.35025030626217        2.47733314181264
O           -3.75870676846011       -2.94753292198107       -3.42953239791581
H           -3.45093601110901       -2.18665554637735       -2.88914130885489
H           -4.67295320297484       -2.75623144512607       -3.65949494845368
O            1.06121758064383       -2.97828385000282        0.28741868747058
H            1.30021892829489       -3.52128073768381       -0.47905828076304
H            1.72858283793924       -2.27774617528665        0.33538866882661
O            1.33133249119936       -3.18196854155354       -4.32415247923484
H            1.56447789152645       -2.24003212812947       -4.44307977759674
H            0.38037480912717       -3.20901330972837       -4.52376667464200
O            2.66708933118014       -0.56480942044297        5.12098933756238
H            3.32687022202266       -0.60520774108737        5.81692488400720
H            2.85764526404134       -1.30948938315694        4.51062028850749
O           -0.47610685979165       -1.02168818454654       -6.94249400126504
H           -0.83936974027078       -1.67513476360010       -6.31523836613459
H           -1.20896588805712       -0.44874646403026       -7.18646531744023
O            1.28087431637972       -0.44590669144358       -4.79940267430815
H            0.84935499773915       -0.54267058489628       -5.66725142684006
H            0.54955091441399       -0.30176422878362       -4.17818261138782
O           -4.27547322409482       -0.23193606514040        0.33963252582563
H           -4.95170834973043       -0.90609537373887        0.45309355446417
H           -3.84877564854279       -0.42217278235803       -0.51873484285321
O           -0.23709998508289        1.60771598933682        3.59219413425751
H           -0.23459026203064        0.98362044072788        4.34836363488737
H           -0.96103354133141        2.22100731772371        3.73124264908584
O            1.07643747074180       -3.94833119489013        2.82738920594461
H            1.00606682572082       -3.72637765563896        1.87397511857704
H            0.31669828372562       -3.50537613661773        3.24470216266344
O            3.23207227477795       -2.54991612605941        3.37368869005215
H            2.42819346739777       -3.12056263678280        3.22479853268178
H            3.99306291886471       -3.13094099033832        3.32034558112548
O            2.54475960869099        1.38155448339062        3.10532049660647
H            1.62739762751687        1.68764592088380        3.18336683543484
H            2.67029659118398        0.79432727933186        3.87419665794872
O            2.58538808878758       -0.74940077937387        1.39396943596240
H            2.71870858209034        0.12047691059767        1.82346823570665
H            2.90070191110369       -1.39586102231071        2.05780062624632
O           -1.36612369912202       -2.54962661631152       -4.80306649440913
H           -2.19466111595173       -2.96111066785650       -4.50689023753654
H           -1.25707628602161       -1.77658669262603       -4.20026197747405
O            1.98412892732699       -4.35772839069687       -1.94928764829931
H            2.87339009193960       -4.69391983512460       -2.09388279467911
H            1.71376486664005       -3.94719617720437       -2.79592698299770
O           -0.95856048669895       -2.32836111012595        3.83494723544708
H           -0.67619124152536       -1.68746588118895        4.51996545762131
H           -1.89036750850724       -2.50816549596072        3.97324945214906
O           -0.01160163270474       -0.36043488869350        5.49328636582919
H           -0.15743642594072       -0.27811994671129        6.43858082321735
H            0.95676728280998       -0.46408495428715        5.36493133965787
