
                                 *****************
                                 * O   R   C   A *
                                 *****************

                                            #,                                       
                                            ###                                      
                                            ####                                     
                                            #####                                    
                                            ######                                   
                                           ########,                                 
                                     ,,################,,,,,                         
                               ,,#################################,,                 
                          ,,##########################################,,             
                       ,#########################################, ''#####,          
                    ,#############################################,,   '####,        
                  ,##################################################,,,,####,       
                ,###########''''           ''''###############################       
              ,#####''   ,,,,##########,,,,          '''####'''          '####       
            ,##' ,,,,###########################,,,                        '##       
           ' ,,###''''                  '''############,,,                           
         ,,##''                                '''############,,,,        ,,,,,,###''
      ,#''                                            '''#######################'''  
     '                                                          ''''####''''         
             ,#######,   #######,   ,#######,      ##                                
            ,#'     '#,  ##    ##  ,#'     '#,    #''#        ,####,   ,####,        
            ##       ##  ##   ,#'  ##            #'  '#       #'       #'  '#        
            ##       ##  #######   ##           ,######,      #####,   #    #        
            '#,     ,#'  ##    ##  '#,     ,#' ,#      #,     #,   #   #,  ,#        
             '#######'   ##     ##  '#######'  #'      '#     '####' # '####'        



                #########################################################
                #                        -***-                          #
                #          Department of theory and spectroscopy        #
                #                                                       #
                #                      Frank Neese                      #
                #                                                       #
                #     Directorship, Architecture, Infrastructure        #
                #                    SHARK, DRIVERS                     #
                #        Core code/Algorithms in most modules           #
                #                                                       #
                #        Max Planck Institute fuer Kohlenforschung      #
                #                Kaiser Wilhelm Platz 1                 #
                #                 D-45470 Muelheim/Ruhr                 #
                #                      Germany                          #
                #                                                       #
                #                  All rights reserved                  #
                #                        -***-                          #
                #########################################################


                         Program Version 6.0.1  -  RELEASE   -


 With contributions from (in alphabetic order):
[Max-Planck-Institut fuer Kohlenforschung]                               
  Daniel Aravena         : Magnetic Suceptibility                        
  Michael Atanasov       : Ab Initio Ligand Field Theory (pilot matlab implementation)
  Alexander A. Auer      : GIAO ZORA, VPT2 properties, NMR spectrum      
  Ute Becker             : All parallelization in ORCA, NUMFREQ, NUMCALC 
  Giovanni Bistoni       : ED, misc. LED, open-shell LED, HFLD           
  Martin Brehm           : Molecular dynamics                            
  Dmytro Bykov           : pre 5.0 version of the SCF Hessian            
  Marcos Casanova-Páez   : Triplet and SCS-CIS(D). UHF-(DLPNO)-IP/EA/STEOM-CCSD. UHF-CVS-IP/STEOM-CCSD   
  Vijay G. Chilkuri      : MRCI spin determinant printing, contributions to CSF-ICE 
  Pauline Colinet        : FMM embedding                                 
  Dipayan Datta          : RHF DLPNO-CCSD density                        
  Achintya Kumar Dutta   : EOM-CC, STEOM-CC                              
  Nicolas Foglia         : Exact transition moments, OPA infrastructure, MCD improvements    
  Dmitry Ganyushin       : Spin-Orbit,Spin-Spin,Magnetic field MRCI      
  Miquel Garcia-Rates    : C-PCM and meta-GGA Hessian, CCSD/C-PCM, Gaussian charge scheme 
  Tiago L. C. Gouveia    : GS-ROHF, GS-ROCIS                             
  Yang Guo               : DLPNO-NEVPT2, F12-NEVPT2, CIM, IAO-localization        
  Andreas Hansen         : Spin unrestricted coupled pair/coupled cluster methods 
  Ingolf Harden          : AUTO-CI MPn and infrastructure                
  Benjamin Helmich-Paris : MC-RPA, TRAH-(SCF,CASSCF), AVAS, COSX integrals, SCF dyn. polar. 
  Lee Huntington         : MR-EOM, pCC                                   
  Robert Izsak           : Overlap fitted RIJCOSX, COSX-SCS-MP3, EOM     
  Riya Kayal             : Wick's Theorem for AUTO-CI, AUTO-CI UHF-CCSDT 
  Emily Kempfer          : AUTO-CI, RHF CISDT and CCSDT                  
  Christian Kollmar      : KDIIS, OOCD, Brueckner-CCSD(T), CCSD density, CASPT2, CASPT2-K, improved NEVPT2 
  Axel Koslowski         : Symmetry handling                             
  Simone Kossmann        : meta-GGA functionals, TD-DFT gradient, OOMP2, (MP2 Hessian; deprecated post 5.0) 
  Lucas Lang             : DCDCAS                                        
  Marvin Lechner         : AUTO-CI (C++ implementation), FIC-MRCC        
  Spencer Leger          : CASSCF response                               
  Dagmar Lenk            : GEPOL surface, SMD, ORCA-2-JSON               
  Dimitrios Liakos       : Extrapolation schemes; Compound Job, initial MDCI parallelization 
  Dimitrios Manganas     : Further ROCIS development; embedding schemes. LFT, Crystal Embedding 
  Dimitrios Pantazis     : SARC Basis sets                               
  Anastasios Papadopoulos: AUTO-CI, single reference methods and gradients 
  Taras Petrenko         : pre 6.0 DFT Hessian and TD-DFT gradient, (ASA, deprecated), ECA, 1-Electron XAS/XES, NRVS 
  Peter Pinski           : DLPNO-MP2, DLPNO-MP2 Gradient                 
  Christoph Reimann      : Effective Core Potentials                     
  Marius Retegan         : Local ZFS, SOC                                
  Christoph Riplinger    : Optimizer, TS searches, QM/MM, DLPNO-CCSD(T), (RO)-DLPNO pert. Triples 
  Michael Roemelt        : Original ROCIS implementation                 
  Masaaki Saitow         : Open-shell DLPNO-CCSD energy and density      
  Barbara Sandhoefer     : DKH picture change effects                    
  Kantharuban Sivalingam : CASSCF convergence/infrastructure, NEVPT2 and variants, FIC-MRCI 
  Bernardo de Souza      : ESD, SOC TD-DFT                               
  Georgi L. Stoychev     : AutoAux, RI-MP2 NMR, DLPNO-MP2 response, X2C  
  Van Anh Tran           : RI-MP2 g-tensors                              
  Willem Van den Heuvel  : Paramagnetic NMR                              
  Zikuan Wang            : NOTCH, Electric field optimization            
  Frank Wennmohs         : Technical directorship and infrastructure     
  Hang Xu                : AUTO-CI-Response properties                   
                                                                         
[FACCTs GmbH]                                                            
  Markus Bursch, Miquel Garcia-Rates, Christoph Riplinger, Bernardo de Souza, Georgi L. Stoychev 
                                                                 
  APM, Basis sets (HGBS, AHGBS, def-TZVP (Ac-Lr), def2-XVPD (La-Lu)), CI-OPT, improved COSX, DLPNO-Multilevel,           
  DOCKER, DRACO, updates on ESD, GOAT, IRC, LR-CPCM, MBIS, meta-GGA TD-DFT gradient, ML-optimized integration grids, 
  MM, NACMEs, nearIR, NEB, NEB-TS, NL-DFT gradient (VV10), 2- and 3-layer-ONIOM, interface openCOSMO-RS, QMMM,   
  Crystal-QMMM, SF, symmetry and pop. for TD-DFT, r2SCAN hybrids, SOLVATOR                                   
                                                                         
[Other institutions]                                                     
  V. Asgeirsson          : NEB                                           
  Christoph Bannwarth    : sTDA-DFT, sTD-DFT, PBEh-3c, B97-3c, D3        
  Sebastian Ehlert       : rSCAN, r2SCAN, r2SCAN-3c, D4, dhf basis sets  
  Marvin Friede          : D4 for Fr, Ra, Ac-Lr                          
  Lars Goerigk           : TD-DFT with DH, B97 family of functionals     
  Stefan Grimme          : VdW corrections, initial TS optimization, DFT functionals, gCP, sTDA/sTD-DF 
  Waldemar Hujo          : DFT-NL                                        
  H. Jonsson             : NEB                                           
  Holger Kruse           : gCP                                           
  Marcel Mueller         : wB97X-3c, vDZP basis set                      
  Hagen Neugebauer       : wr2SCAN                                       
  Tobias Risthaus        : range-separated hybrid DFT                    
  Lukas Wittmann         : regularized MP2, r2SCAN double-hybrids, wr2SCAN        
                                                                         
We gratefully acknowledge several colleagues who have allowed us to      
interface, adapt or use parts of their codes:                            
  Ed Valeev, F. Pavosevic, A. Kumar             : LibInt (2-el integral package), F12 methods 
  Garnet Chan, S. Sharma, J. Yang, R. Olivares  : DMRG                   
  Ulf Ekstrom                                   : XCFun DFT Library      
  Mihaly Kallay                                 : mrcc  (arbitrary order and MRCC methods)
  Frank Weinhold                                : gennbo (NPA and NBO analysis)           
  Simon Mueller                                 : openCOSMO-RS                            
  Christopher J. Cramer and Donald G. Truhlar   : smd solvation model                     
  S Lehtola, MJT Oliveira, MAL Marques          : LibXC Library                           
  Liviu Ungur et al                             : ANISO software                          


 Your calculation uses the libint2 library for the computation of 2-el integrals
 For citations please refer to: http://libint.valeyev.net

 Your ORCA version has been built with support for libXC version: 6.2.2
 For citations please refer to: https://libxc.gitlab.io

 This ORCA versions uses:
   CBLAS   interface :  Fast vector & matrix operations
   LAPACKE interface :  Fast linear algebra routines
   SCALAPACK package :  Parallel linear algebra routines
   Shared memory     :  Shared parallel matrices
   BLAS/LAPACK       :  OpenBLAS 0.3.27  USE64BITINT DYNAMIC_ARCH NO_AFFINITY SkylakeX SINGLE_THREADED
        Core in use  :  SkylakeX
   Copyright (c) 2011-2014, The OpenBLAS Project


NOTE: MaxCore=5000 MB was set to SCF,MP2,MDCI,CIPSI,MRCI and CIS
      => If you want to overwrite this, your respective input block should be placed after the MaxCore statement
Your calculation utilizes the atom-pairwise dispersion correction
based on EEQ partial charges (D4)


Warning: RI is on but no J-basis has been assigned. Assigning Def2/J (nothing to worry about!)
================================================================================

----- Orbital basis set information -----
Your calculation utilizes the basis: def2-TZVP
   F. Weigend and R. Ahlrichs, Phys. Chem. Chem. Phys. 7, 3297 (2005).

----- AuxJ basis set information -----
Your calculation utilizes the auxiliary basis: def2/J
   F. Weigend, Phys. Chem. Chem. Phys. 8, 1057 (2006).

================================================================================
                                        WARNINGS
                       Please study these warnings very carefully!
================================================================================


================================================================================
                                       INPUT FILE
================================================================================
NAME = input.inp
|  1> ! SP B3LYP D4 def2-TZVP TightSCF CPCM(water)
|  2> 
|  3> %maxcore 5000
|  4> 
|  5> %pal
|  6> nprocs 30
|  7> end
|  8> 
|  9> %geom
| 10>     MaxIter 500
| 11> end
| 12> 
| 13> * xyz 0 1
| 14> N           -0.61612643870305       -0.06662315454949        1.76271896019514
| 15> C            0.38247469224743        0.73603963423235        1.03842878866593
| 16> C           -0.25947031117247        1.75155948974665        0.10222818518664
| 17> C           -0.61919639758544        1.16030959211621       -1.27023870507455
| 18> C            0.65409372879762        0.85261898792638       -2.03003249340670
| 19> O            1.03183777556084        1.60150427504879       -2.96994994720882
| 20> O            1.33327250733048       -0.13706257432748       -1.64921269816018
| 21> H           -0.11928267614262       -0.77588888747730        2.30723378943155
| 22> H           -1.14300855786996        0.56042583659145        2.40629358273994
| 23> H            0.99199084578628        1.26162449063533        1.76782809739120
| 24> H            1.02704972505703        0.07702968761779        0.46234290667871
| 25> H            0.42310338699581        2.58676916556923       -0.05549816720530
| 26> H           -1.16742193313835        2.15411489327485        0.54631484445242
| 27> H           -1.18062017173356        0.23995893220700       -1.14464311302165
| 28> H           -1.20929740123193        1.87455864100706       -1.83680580947813
| 29> H           -1.28392285623760       -0.54500613994324        1.13662268585854
| 30> *
| 31> 
| 32>                          ****END OF INPUT****
================================================================================

                       ****************************
                       * Single Point Calculation *
                       ****************************

---------------------------------
CARTESIAN COORDINATES (ANGSTROEM)
---------------------------------
  N     -0.616126   -0.066623    1.762719
  C      0.382475    0.736040    1.038429
  C     -0.259470    1.751559    0.102228
  C     -0.619196    1.160310   -1.270239
  C      0.654094    0.852619   -2.030032
  O      1.031838    1.601504   -2.969950
  O      1.333273   -0.137063   -1.649213
  H     -0.119283   -0.775889    2.307234
  H     -1.143009    0.560426    2.406294
  H      0.991991    1.261624    1.767828
  H      1.027050    0.077030    0.462343
  H      0.423103    2.586769   -0.055498
  H     -1.167422    2.154115    0.546315
  H     -1.180620    0.239959   -1.144643
  H     -1.209297    1.874559   -1.836806
  H     -1.283923   -0.545006    1.136623

----------------------------
CARTESIAN COORDINATES (A.U.)
----------------------------
  NO LB      ZA    FRAG     MASS         X           Y           Z
   0 N     7.0000    0    14.007   -1.164310   -0.125900    3.331056
   1 C     6.0000    0    12.011    0.722772    1.390913    1.962346
   2 C     6.0000    0    12.011   -0.490328    3.309968    0.193183
   3 C     6.0000    0    12.011   -1.170112    2.192667   -2.400403
   4 C     6.0000    0    12.011    1.236058    1.611216   -3.836205
   5 O     8.0000    0    15.999    1.949891    3.026404   -5.612392
   6 O     8.0000    0    15.999    2.519520   -0.259011   -3.116560
   7 H     1.0000    0     1.008   -0.225412   -1.466218    4.360040
   8 H     1.0000    0     1.008   -2.159973    1.059051    4.547236
   9 H     1.0000    0     1.008    1.874591    2.384125    3.340711
  10 H     1.0000    0     1.008    1.940843    0.145565    0.873701
  11 H     1.0000    0     1.008    0.799550    4.888285   -0.104876
  12 H     1.0000    0     1.008   -2.206108    4.070687    1.032385
  13 H     1.0000    0     1.008   -2.231049    0.453457   -2.163062
  14 H     1.0000    0     1.008   -2.285241    3.542402   -3.471060
  15 H     1.0000    0     1.008   -2.426263   -1.029912    2.147906

--------------------------------
INTERNAL COORDINATES (ANGSTROEM)
--------------------------------
 N      0   0   0     0.000000000000     0.00000000     0.00000000
 C      1   0   0     1.471756781471     0.00000000     0.00000000
 C      2   1   0     1.523103914483   112.34283633     0.00000000
 C      3   2   1     1.537089673232   113.01711131   275.24328170
 C      4   3   2     1.514340732675   109.23082942   290.91608469
 O      5   4   3     1.259747815277   120.37708972   255.72880943
 O      5   4   3     1.259276428877   117.48037002    72.92712723
 H      1   2   3     1.022940860245   108.09237616   175.21959518
 H      1   2   3     1.041625412311   108.60000774   293.96352023
 H      2   1   3     1.086173436553   108.31099098   120.53173717
 H      2   1   3     1.087035430004   109.42108796   238.57642990
 H      3   2   1     1.090119102785   109.62523318   154.48332162
 H      3   2   1     1.087952187221   110.33720844    36.46757570
 H      4   3   2     1.085364567377   110.11506195    50.22199832
 H      4   3   2     1.085987652848   109.87764424   171.15580175
 H      1   2   3     1.032859564861   113.13968654    55.17734304

---------------------------
INTERNAL COORDINATES (A.U.)
---------------------------
 N      0   0   0     0.000000000000     0.00000000     0.00000000
 C      1   0   0     2.781217252721     0.00000000     0.00000000
 C      2   1   0     2.878249271877   112.34283633     0.00000000
 C      3   2   1     2.904678525687   113.01711131   275.24328170
 C      4   3   2     2.861689258198   109.23082942   290.91608469
 O      5   4   3     2.380578368679   120.37708972   255.72880943
 O      5   4   3     2.379687577481   117.48037002    72.92712723
 H      1   2   3     1.933078077061   108.09237616   175.21959518
 H      1   2   3     1.968386763401   108.60000774   293.96352023
 H      2   1   3     2.052570329026   108.31099098   120.53173717
 H      2   1   3     2.054199260576   109.42108796   238.57642990
 H      3   2   1     2.060026557620   109.62523318   154.48332162
 H      3   2   1     2.055931680648   110.33720844    36.46757570
 H      4   3   2     2.051041787804   110.11506195    50.22199832
 H      4   3   2     2.052219248703   109.87764424   171.15580175
 H      1   2   3     1.951821712388   113.13968654    55.17734304

---------------------
BASIS SET INFORMATION
---------------------
There are 4 groups of distinct atoms

 Group   1 Type N   : 11s6p2d1f contracted to 5s3p2d1f pattern {62111/411/11/1}
 Group   2 Type C   : 11s6p2d1f contracted to 5s3p2d1f pattern {62111/411/11/1}
 Group   3 Type O   : 11s6p2d1f contracted to 5s3p2d1f pattern {62111/411/11/1}
 Group   4 Type H   : 5s1p contracted to 3s1p pattern {311/1}

Atom   0N    basis set group =>   1
Atom   1C    basis set group =>   2
Atom   2C    basis set group =>   2
Atom   3C    basis set group =>   2
Atom   4C    basis set group =>   2
Atom   5O    basis set group =>   3
Atom   6O    basis set group =>   3
Atom   7H    basis set group =>   4
Atom   8H    basis set group =>   4
Atom   9H    basis set group =>   4
Atom  10H    basis set group =>   4
Atom  11H    basis set group =>   4
Atom  12H    basis set group =>   4
Atom  13H    basis set group =>   4
Atom  14H    basis set group =>   4
Atom  15H    basis set group =>   4
---------------------------------
AUXILIARY/J BASIS SET INFORMATION
---------------------------------
There are 4 groups of distinct atoms

 Group   1 Type N   : 12s5p4d2f1g contracted to 6s4p3d1f1g pattern {711111/2111/211/2/1}
 Group   2 Type C   : 12s5p4d2f1g contracted to 6s4p3d1f1g pattern {711111/2111/211/2/1}
 Group   3 Type O   : 12s5p4d2f1g contracted to 6s4p3d1f1g pattern {711111/2111/211/2/1}
 Group   4 Type H   : 5s2p1d contracted to 3s1p1d pattern {311/2/1}

Atom   0N    basis set group =>   1
Atom   1C    basis set group =>   2
Atom   2C    basis set group =>   2
Atom   3C    basis set group =>   2
Atom   4C    basis set group =>   2
Atom   5O    basis set group =>   3
Atom   6O    basis set group =>   3
Atom   7H    basis set group =>   4
Atom   8H    basis set group =>   4
Atom   9H    basis set group =>   4
Atom  10H    basis set group =>   4
Atom  11H    basis set group =>   4
Atom  12H    basis set group =>   4
Atom  13H    basis set group =>   4
Atom  14H    basis set group =>   4
Atom  15H    basis set group =>   4
--------------------------------------------------------------------------
By default, for Open MPI 4.0 and later, infiniband ports on a device
are not used by default.  The intent is to use UCX for these devices.
You can override this policy by setting the btl_openib_allow_ib MCA parameter
to true.

  Local host:              psid09
  Local adapter:           mlx4_0
  Local port:              1

--------------------------------------------------------------------------
--------------------------------------------------------------------------
WARNING: There was an error initializing an OpenFabrics device.

  Local host:   psid09
  Local device: mlx4_0
--------------------------------------------------------------------------


           ************************************************************
           *        Program running with 30 parallel MPI-processes    *
           *              working on a common directory               *
           ************************************************************
------------------------------------------------------------------------------
                             ORCA STARTUP CALCULATIONS
                           -- RI-GTO INTEGRALS CHOSEN --
------------------------------------------------------------------------------
------------------------------------------------------------------------------
                   ___                                                        
                  /   \      - P O W E R E D   B Y -                         
                 /     \                                                     
                 |  |  |   _    _      __       _____    __    __             
                 |  |  |  | |  | |    /  \     |  _  \  |  |  /  |          
                  \  \/   | |  | |   /    \    | | | |  |  | /  /          
                 / \  \   | |__| |  /  /\  \   | |_| |  |  |/  /          
                |  |  |   |  __  | /  /__\  \  |    /   |      \           
                |  |  |   | |  | | |   __   |  |    \   |  |\   \          
                \     /   | |  | | |  |  |  |  | |\  \  |  | \   \       
                 \___/    |_|  |_| |__|  |__|  |_| \__\ |__|  \__/        
                                                                              
                      - O R C A' S   B I G   F R I E N D -                    
                                      &                                       
                       - I N T E G R A L  F E E D E R -                       
                                                                              
 v1 FN, 2020, v2 2021, v3 2022-2024                                           
------------------------------------------------------------------------------


----------------------
SHARK INTEGRAL PACKAGE
----------------------

Number of atoms                             ...     16
Number of basis functions                   ...    271
Number of shells                            ...    113
Maximum angular momentum                    ...      3
Integral batch strategy                     ... SHARK/LIBINT Hybrid
RI-J (if used) integral strategy            ... SPLIT-RIJ (Revised 2003 algorithm where possible)
Printlevel                                  ...      1
Contraction scheme used                     ... SEGMENTED contraction
Prescreening option                         ... SCHWARTZ
   Thresh                                   ... 2.500e-11
   Tcut                                     ... 2.500e-12
   Tpresel                                  ... 2.500e-12 
Coulomb Range Separation                    ... NOT USED
Exchange Range Separation                   ... NOT USED
Multipole approximations                    ... NOT USED
Finite Nucleus Model                        ... NOT USED
CABS basis                                  ... NOT available
Auxiliary Coulomb fitting basis             ... AVAILABLE
   # of basis functions in Aux-J            ...    442
   # of shells in Aux-J                     ...    150
   Maximum angular momentum in Aux-J        ...      4
Auxiliary J/K fitting basis                 ... NOT available
Auxiliary Correlation fitting basis         ... NOT available
Auxiliary 'external' fitting basis          ... NOT available

Checking pre-screening integrals            ... done (  0.0 sec) Dimension = 113
Check shell pair data                       ... done (  0.0 sec)
Shell pair information
Shell pair cut-off parameter TPreSel        ...   2.5e-12
Total number of shell pairs                 ...      6441
Shell pairs after pre-screening             ...      5919
Total number of primitive shell pairs       ...     19096
Primitive shell pairs kept                  ...     13390
          la=0 lb=0:   1749 shell pairs
          la=1 lb=0:   1733 shell pairs
          la=1 lb=1:    446 shell pairs
          la=2 lb=0:    789 shell pairs
          la=2 lb=1:    394 shell pairs
          la=2 lb=2:     99 shell pairs
          la=3 lb=0:    394 shell pairs
          la=3 lb=1:    198 shell pairs
          la=3 lb=2:     90 shell pairs
          la=3 lb=3:     27 shell pairs

Calculating one electron integrals          ... done (  0.0 sec)
Calculating RI/J V-Matrix + Cholesky decomp.... done (  0.0 sec)
Calculating Nuclear repulsion               ... done (  0.0 sec) ENN=    316.260048943325 Eh

Diagonalization of the overlap matrix:
Smallest eigenvalue                        ... 2.018e-04
Time for diagonalization                   ...    0.007 sec
Threshold for overlap eigenvalues          ... 1.000e-07
Number of eigenvalues below threshold      ... 0
Time for construction of square roots      ...    0.005 sec
Total time needed                          ...    0.016 sec

-------------------
DFT GRID GENERATION
-------------------

General Integration Accuracy     IntAcc      ... 4.388
Radial Grid Type                 RadialGrid  ... OptM3 with GC (2021)
Angular Grid (max. ang.)         AngularGrid ... 4 (Lebedev-302)
Angular grid pruning method      GridPruning ... 4 (adaptive)
Weight generation scheme         WeightScheme... mBecke (2022)
Basis function cutoff            BFCut       ... 1.0000e-11
Integration weight cutoff        WCut        ... 1.0000e-14
Partially contracted basis set               ... off
Rotationally invariant grid construction     ... off
Angular grids for H and He will be reduced by one unit

Total number of grid points                  ...    71126
Total number of batches                      ...     1120
Average number of points per batch           ...       63
Average number of grid points per atom       ...     4445

--------------------
COSX GRID GENERATION
--------------------

GRIDX 1
-------
General Integration Accuracy     IntAcc      ... 3.816
Radial Grid Type                 RadialGrid  ... OptM3 with GC (2021)
Angular Grid (max. ang.)         AngularGrid ... 1 (Lebedev-50)
Angular grid pruning method      GridPruning ... 4 (adaptive)
Weight generation scheme         WeightScheme... mBecke (2022)
Basis function cutoff            BFCut       ... 1.0000e-11
Integration weight cutoff        WCut        ... 1.0000e-14
Partially contracted basis set               ... on
Rotationally invariant grid construction     ... off
Angular grids for H and He will be reduced by one unit

Total number of grid points                  ...     9077
Total number of batches                      ...       82
Average number of points per batch           ...      110
Average number of grid points per atom       ...      567
UseSFitting                                  ... on

GRIDX 2
-------
General Integration Accuracy     IntAcc      ... 4.020
Radial Grid Type                 RadialGrid  ... OptM3 with GC (2021)
Angular Grid (max. ang.)         AngularGrid ... 2 (Lebedev-110)
Angular grid pruning method      GridPruning ... 4 (adaptive)
Weight generation scheme         WeightScheme... mBecke (2022)
Basis function cutoff            BFCut       ... 1.0000e-11
Integration weight cutoff        WCut        ... 1.0000e-14
Partially contracted basis set               ... on
Rotationally invariant grid construction     ... off
Angular grids for H and He will be reduced by one unit

Total number of grid points                  ...    19472
Total number of batches                      ...      162
Average number of points per batch           ...      120
Average number of grid points per atom       ...     1217
UseSFitting                                  ... on

GRIDX 3
-------
General Integration Accuracy     IntAcc      ... 4.338
Radial Grid Type                 RadialGrid  ... OptM3 with GC (2021)
Angular Grid (max. ang.)         AngularGrid ... 3 (Lebedev-194)
Angular grid pruning method      GridPruning ... 4 (adaptive)
Weight generation scheme         WeightScheme... mBecke (2022)
Basis function cutoff            BFCut       ... 1.0000e-11
Integration weight cutoff        WCut        ... 1.0000e-14
Partially contracted basis set               ... on
Rotationally invariant grid construction     ... off
Angular grids for H and He will be reduced by one unit

Total number of grid points                  ...    42664
Total number of batches                      ...      342
Average number of points per batch           ...      124
Average number of grid points per atom       ...     2666
UseSFitting                                  ... on
Initializing property integral containers    ... done (  0.0 sec)

SHARK setup successfully completed in   0.8 seconds

Maximum memory used throughout the entire STARTUP-calculation: 23.8 MB
[psid09:139471] 29 more processes have sent help message help-mpi-btl-openib.txt / ib port not selected
[psid09:139471] Set MCA parameter "orte_base_help_aggregate" to 0 to see all help / error messages
[psid09:139471] 29 more processes have sent help message help-mpi-btl-openib.txt / error in device init
--------------------------------------------------------------------------
By default, for Open MPI 4.0 and later, infiniband ports on a device
are not used by default.  The intent is to use UCX for these devices.
You can override this policy by setting the btl_openib_allow_ib MCA parameter
to true.

  Local host:              psid09
  Local adapter:           mlx4_0
  Local port:              1

--------------------------------------------------------------------------
--------------------------------------------------------------------------
WARNING: There was an error initializing an OpenFabrics device.

  Local host:   psid09
  Local device: mlx4_0
--------------------------------------------------------------------------


           ************************************************************
           *        Program running with 30 parallel MPI-processes    *
           *              working on a common directory               *
           ************************************************************
-------------------------------------------------------------------------------
                                 ORCA GUESS
                   Start orbitals & Density for SCF / CASSCF
-------------------------------------------------------------------------------

------------
SCF SETTINGS
------------
Hamiltonian:
 Density Functional     Method          .... DFT(GTOs)
 Exchange Functional    Exchange        .... B88
   X-Alpha parameter    XAlpha          ....  0.666667
   Becke's b parameter  XBeta           ....  0.004200
 Correlation Functional Correlation     .... LYP
 LDA part of GGA corr.  LDAOpt          .... VWN-5
 Gradients option       PostSCFGGA      .... off
 Hybrid DFT is turned on
   Fraction HF Exchange ScalHFX         ....  0.200000
   Scaling of DF-GGA-X  ScalDFX         ....  0.720000
   Scaling of DF-GGA-C  ScalDFC         ....  0.810000
   Scaling of DF-LDA-C  ScalLDAC        ....  1.000000
   Perturbative correction              ....  0.000000
   NL short-range parameter             ....  4.800000
 RI-approximation to the Coulomb term is turned on
   Number of AuxJ basis functions       .... 442
   RIJ-COSX (HFX calculated with COS-X)).... on


General Settings:
 Integral files         IntName         .... input
 Hartree-Fock type      HFTyp           .... RHF
 Total Charge           Charge          ....    0
 Multiplicity           Mult            ....    1
 Number of Electrons    NEL             ....   56
 Basis Dimension        Dim             ....  271
 Nuclear Repulsion      ENuc            ....    316.2600489433 Eh

Convergence Acceleration:
 AO-DIIS                CNVDIIS         .... on
   Start iteration      DIISMaxIt       ....    12
   Startup error        DIISStart       ....  0.200000
   # of expansion vecs  DIISMaxEq       ....     5
   Bias factor          DIISBfac        ....   1.050
   Max. coefficient     DIISMaxC        ....  10.000
 MO-DIIS                CNVKDIIS        .... off
 Trust-Rad. Augm. Hess. CNVTRAH         .... auto
   Auto Start mean grad. ratio tolernc. ....  1.125000
   Auto Start start iteration           ....    50
   Auto Start num. interpolation iter.  ....    10
   Max. Number of Micro iterations      ....    24
   Max. Number of Macro iterations      .... Maxiter - #DIIS iter
   Number of Davidson start vectors     ....     2
   Converg. threshold    (grad. norm)   ....   1.000e-05
   Grad. Scal. Fac. for Micro threshold ....   0.100
   Minimum threshold for Micro iter.    ....   1.000e-02
   NR start threshold (gradient norm)   ....   1.000e-04
   Initial trust radius                 ....   0.400
   Minimum AH scaling param. (alpha)    ....   1.000
   Maximum AH scaling param. (alpha)    .... 1000.000
   Quad. conv. algorithm                .... NR
   White noise on init. David. guess    .... on
   Maximum white noise                  ....   0.010
   Pseudo random numbers                .... off
   Inactive MOs                         .... canonical
   Orbital update algorithm             .... Taylor
   Preconditioner                       .... Diag
   Full preconditioner red. dimension   ....   250
 SOSCF                  CNVSOSCF        .... on
   Start iteration      SOSCFMaxIt      ....   150
   Startup grad/error   SOSCFStart      ....  0.003300
   Hessian update       SOSCFHessUp     .... L-BFGS
 Level Shifting         CNVShift        .... on
   Level shift para.    LevelShift      ....    0.2500
   Turn off err/grad.   ShiftErr        ....    0.0010
 Zerner damping         CNVZerner       .... off
 Static damping         CNVDamp         .... on
   Fraction old density DampFac         ....    0.7000
   Max. Damping (<1)    DampMax         ....    0.9800
   Min. Damping (>=0)   DampMin         ....    0.0000
   Turn off err/grad.   DampErr         ....    0.1000

SCF Procedure:
 Maximum # iterations   MaxIter         ....   125
 SCF integral mode      SCFMode         .... Direct
   Integral package                     .... SHARK and LIBINT hybrid scheme
 Reset frequency        DirectResetFreq ....    20
 Integral Threshold     Thresh          ....  2.500e-11 Eh
 Primitive CutOff       TCut            ....  2.500e-12 Eh

Convergence Tolerance:
 Convergence Check Mode ConvCheckMode   .... Total+1el-Energy
 Convergence forced     ConvForced      .... 0
 Energy Change          TolE            ....  1.000e-08 Eh
 1-El. energy change                    ....  1.000e-05 Eh
 Orbital Gradient       TolG            ....  1.000e-05
 Orbital Rotation angle TolX            ....  1.000e-05
 DIIS Error             TolErr          ....  5.000e-07

------------------------------
INITIAL GUESS: MODEL POTENTIAL
------------------------------
Loading Hartree-Fock densities                     ... done
Calculating cut-offs                               ... done
Initializing the effective Hamiltonian             ... done
Setting up the integral package (SHARK)            ... done
Starting the Coulomb interaction                   ... done (   0.0 sec)
Making the grid                                    ... done (   0.1 sec)
Mapping shells                                     ... done
Starting the XC term evaluation                    ... done (   0.0 sec)
  promolecular density results
     # of electrons  =     55.993696880
     EX              =    -46.223363650
     EC              =     -1.894493663
     EX+EC           =    -48.117857312
Transforming the Hamiltonian                       ... done (   0.0 sec)
Diagonalizing the Hamiltonian                      ... done (   0.0 sec)
Back transforming the eigenvectors                 ... done (   0.0 sec)
Now organizing SCF variables                       ... done
                      ------------------
                      INITIAL GUESS DONE (   0.2 sec)
                      ------------------
             **** ENERGY FILE WAS UPDATED (input.en.tmp) ****
Finished Guess after   1.0 sec
Maximum memory used throughout the entire GUESS-calculation: 15.7 MB
[psid09:139572] 29 more processes have sent help message help-mpi-btl-openib.txt / ib port not selected
[psid09:139572] Set MCA parameter "orte_base_help_aggregate" to 0 to see all help / error messages
[psid09:139572] 29 more processes have sent help message help-mpi-btl-openib.txt / error in device init
--------------------------------------------------------------------------
By default, for Open MPI 4.0 and later, infiniband ports on a device
are not used by default.  The intent is to use UCX for these devices.
You can override this policy by setting the btl_openib_allow_ib MCA parameter
to true.

  Local host:              psid09
  Local adapter:           mlx4_0
  Local port:              1

--------------------------------------------------------------------------
--------------------------------------------------------------------------
WARNING: There was an error initializing an OpenFabrics device.

  Local host:   psid09
  Local device: mlx4_0
--------------------------------------------------------------------------


           ************************************************************
           *        Program running with 30 parallel MPI-processes    *
           *              working on a common directory               *
           ************************************************************

-------------------------------------------------------------------------------------------
                                      ORCA LEAN-SCF
                              memory conserving SCF solver
-------------------------------------------------------------------------------------------

--------------------
CPCM SOLVATION MODEL
--------------------
CPCM parameters:
  Epsilon                                         ...      80.1510
  Refrac                                          ...       1.3328
  Rsolv                                           ...       1.3000
  Surface type                                    ... GAUSSIAN VDW
  Discretization scheme                           ... Constant charge density
    Threshold for H atoms                         ...       5.0000 (charges/Ang^2)
    Threshold for non-H atoms                     ...       5.0000 (charges/Ang^2)
  Epsilon function type                           ...         CPCM
Solvent:                                          ... WATER
Radii:
  Scheme                                          ... Element-dependent radii
  Radius for N  used is    3.5149 Bohr (=   1.8600 Ang.)
  Radius for C  used is    3.8550 Bohr (=   2.0400 Ang.)
  Radius for O  used is    3.4469 Bohr (=   1.8240 Ang.)
  Radius for H  used is    2.4944 Bohr (=   1.3200 Ang.)
Calculating surface                               ...        done! (  0.0s)
Cavity surface points                             ...         1381
Cavity Volume                                     ...     893.8855
Cavity Surface-area                               ...     535.9295
Calculating surface distance matrix               ...        done! (  0.0s)
Performing Cholesky decomposition & store         ...        done! (  0.0s)
Overall time for CPCM initialization              ...                 0.1s

----------------------------------------D-I-I-S--------------------------------------------
Iteration    Energy (Eh)           Delta-E    RMSDP     MaxDP     DIISErr   Damp  Time(sec)
-------------------------------------------------------------------------------------------
               ***  Starting incremental Fock matrix formation  ***
    1    -362.6876229956872635     0.00e+00  3.80e-03  3.72e-01  3.31e-01  0.700   0.7
    2    -362.8447831977259170    -1.57e-01  3.58e-03  3.92e-01  1.35e-01  0.700   0.9
                               ***Turning on AO-DIIS***
    3    -362.9006043658180829    -5.58e-02  1.23e-03  1.18e-01  3.74e-02  0.700   0.5
    4    -362.9352499758660429    -3.46e-02  1.10e-03  6.14e-02  1.61e-02  0.000   0.5
    5    -363.0136042051073559    -7.84e-02  8.71e-04  1.02e-01  7.51e-03  0.000   0.5
                              *** Initializing SOSCF ***
---------------------------------------S-O-S-C-F--------------------------------------
Iteration    Energy (Eh)           Delta-E    RMSDP     MaxDP     MaxGrad    Time(sec)
--------------------------------------------------------------------------------------
    6    -363.0140047640185799    -4.01e-04  3.22e-04  3.74e-02  1.62e-03     0.6
               *** Restarting incremental Fock matrix formation ***
    7    -363.0140445565726282    -3.98e-05  2.02e-04  2.34e-02  2.57e-04     0.6
[psid09:139668] 29 more processes have sent help message help-mpi-btl-openib.txt / ib port not selected
[psid09:139668] Set MCA parameter "orte_base_help_aggregate" to 0 to see all help / error messages
[psid09:139668] 29 more processes have sent help message help-mpi-btl-openib.txt / error in device init
    8    -363.0140465769472371    -2.02e-06  4.65e-05  5.00e-03  1.46e-04     0.5
    9    -363.0140479330489711    -1.36e-06  4.84e-05  5.51e-03  6.99e-05     0.6
   10    -363.0140480294417671    -9.64e-08  4.51e-06  1.71e-04  6.43e-05     0.6
   11    -363.0140481804731394    -1.51e-07  1.39e-05  1.60e-03  2.64e-05     0.5
   12    -363.0140481858958879    -5.42e-09  2.79e-06  3.03e-04  2.35e-05     0.5
                 **** Energy Check signals convergence ****

               *****************************************************
               *                     SUCCESS                       *
               *           SCF CONVERGED AFTER  12 CYCLES          *
               *****************************************************

Recomputing exchange energy using gridx3       ... done (    0.505 sec)
Old exchange energy                            :     -9.410892568 Eh
New exchange energy                            :     -9.410885728 Eh
Exchange energy change after final integration :      0.000006840 Eh
Total energy after final integration           :   -363.014041346 Eh
             **** ENERGY FILE WAS UPDATED (input.en.tmp) ****

----------------
TOTAL SCF ENERGY
----------------

Total Energy       :       -363.01404134626870 Eh           -9878.11426 eV

Components:
Nuclear Repulsion  :        316.26004894332465 Eh            8605.87345 eV
Electronic Energy  :       -679.15769336883022 Eh          -18480.82038 eV
One Electron Energy:      -1121.64132773577694 Eh          -30521.41221 eV
Two Electron Energy:        442.48363436694672 Eh           12040.59182 eV
CPCM Dielectric    :         -0.11640376039028 Eh              -3.16751 eV

Virial components:
Potential Energy   :       -724.48081349730774 Eh          -19714.12518 eV
Kinetic Energy     :        361.46677215103909 Eh            9836.01092 eV
Virial Ratio       :          2.00428052953809

DFT components:
N(Alpha)           :       27.999981010845 electrons
N(Beta)            :       27.999981010845 electrons
N(Total)           :       55.999962021690 electrons
E(X)               :      -37.417107884288 Eh       
E(C)               :       -2.240571193764 Eh       
E(XC)              :      -39.657679078052 Eh       

CPCM Solvation Model Properties:
Surface-charge          :         -0.02147038550162
Corrected charge        :         -0.00000000000000
Outlying charge corr.   :          0.00003606177755 Eh               0.00098 eV
Free-energy (cav+disp)  :  This term is not implemented in the current solvation scheme

---------------
SCF CONVERGENCE
---------------

  Last Energy change         ...    5.4227e-09  Tolerance :   1.0000e-08
  Last MAX-Density change    ...    3.0268e-04  Tolerance :   1.0000e-07
  Last RMS-Density change    ...    2.7944e-06  Tolerance :   5.0000e-09
  Last DIIS Error            ...    1.6161e-03  Tolerance :   5.0000e-07
  Last Orbital Gradient      ...    2.3546e-05  Tolerance :   1.0000e-05
  Last Orbital Rotation      ...    2.7304e-05  Tolerance :   1.0000e-05


----------------
ORBITAL ENERGIES
----------------

  NO   OCC          E(Eh)            E(eV) 
   0   2.0000     -19.048421      -518.3339 
   1   2.0000     -19.047769      -518.3162 
   2   2.0000     -14.428722      -392.6255 
   3   2.0000     -10.237032      -278.5638 
   4   2.0000     -10.212915      -277.9076 
   5   2.0000     -10.174280      -276.8562 
   6   2.0000     -10.155093      -276.3341 
   7   2.0000      -1.012513       -27.5519 
   8   2.0000      -0.996315       -27.1111 
   9   2.0000      -0.915833       -24.9211 
  10   2.0000      -0.792065       -21.5532 
  11   2.0000      -0.703226       -19.1358 
  12   2.0000      -0.618475       -16.8296 
  13   2.0000      -0.577041       -15.7021 
  14   2.0000      -0.568544       -15.4709 
  15   2.0000      -0.509145       -13.8545 
  16   2.0000      -0.479578       -13.0500 
  17   2.0000      -0.449299       -12.2260 
  18   2.0000      -0.441755       -12.0208 
  19   2.0000      -0.411929       -11.2092 
  20   2.0000      -0.393873       -10.7178 
  21   2.0000      -0.372304       -10.1309 
  22   2.0000      -0.369707       -10.0602 
  23   2.0000      -0.349360        -9.5066 
  24   2.0000      -0.335017        -9.1163 
  25   2.0000      -0.242055        -6.5866 
  26   2.0000      -0.234249        -6.3742 
  27   2.0000      -0.217630        -5.9220 
  28   0.0000       0.013606         0.3702 
  29   0.0000       0.052632         1.4322 
  30   0.0000       0.060905         1.6573 
  31   0.0000       0.069295         1.8856 
  32   0.0000       0.078829         2.1450 
  33   0.0000       0.104807         2.8519 
  34   0.0000       0.108655         2.9567 
  35   0.0000       0.114467         3.1148 
  36   0.0000       0.127553         3.4709 
  37   0.0000       0.132438         3.6038 
  38   0.0000       0.149461         4.0670 
*Only the first 10 virtual orbitals were printed.

                    ********************************
                    * MULLIKEN POPULATION ANALYSIS *
                    ********************************

-----------------------
MULLIKEN ATOMIC CHARGES
-----------------------
   0 N :   -0.258609
   1 C :   -0.160325
   2 C :   -0.199353
   3 C :   -0.153952
   4 C :    0.199347
   5 O :   -0.581976
   6 O :   -0.572195
   7 H :    0.333697
   8 H :    0.336241
   9 H :    0.156423
  10 H :    0.153716
  11 H :    0.116921
  12 H :    0.124357
  13 H :    0.089641
  14 H :    0.085818
  15 H :    0.330250
Sum of atomic charges:   -0.0000000

--------------------------------
MULLIKEN REDUCED ORBITAL CHARGES
--------------------------------
  0 N s       :     3.440857  s :     3.440857
      pz      :     1.269883  p :     3.769876
      px      :     1.241538
      py      :     1.258455
      dz2     :     0.004468  d :     0.045556
      dxz     :     0.011505
      dyz     :     0.011086
      dx2y2   :     0.007518
      dxy     :     0.010978
      f0      :     0.000101  f :     0.002320
      f+1     :     0.000241
      f-1     :     0.000166
      f+2     :     0.000273
      f-2     :     0.001119
      f+3     :     0.000291
      f-3     :     0.000128

  1 C s       :     3.256581  s :     3.256581
      pz      :     0.973511  p :     2.798924
      px      :     0.879150
      py      :     0.946263
      dz2     :     0.016730  d :     0.096675
      dxz     :     0.021631
      dyz     :     0.018509
      dx2y2   :     0.015279
      dxy     :     0.024527
      f0      :     0.000549  f :     0.008145
      f+1     :     0.000972
      f-1     :     0.000952
      f+2     :     0.001215
      f-2     :     0.002489
      f+3     :     0.000778
      f-3     :     0.001191

  2 C s       :     3.225009  s :     3.225009
      pz      :     0.918619  p :     2.880533
      px      :     1.005345
      py      :     0.956569
      dz2     :     0.021623  d :     0.087823
      dxz     :     0.024921
      dyz     :     0.016183
      dx2y2   :     0.006927
      dxy     :     0.018170
      f0      :     0.001034  f :     0.005987
      f+1     :     0.000717
      f-1     :     0.001320
      f+2     :     0.000870
      f-2     :     0.001082
      f+3     :     0.000546
      f-3     :     0.000419

  3 C s       :     3.173150  s :     3.173150
      pz      :     0.941052  p :     2.899189
      px      :     0.974712
      py      :     0.983425
      dz2     :     0.015565  d :     0.075864
      dxz     :     0.020005
      dyz     :     0.013755
      dx2y2   :     0.006175
      dxy     :     0.020364
      f0      :     0.001035  f :     0.005749
      f+1     :     0.001114
      f-1     :     0.000642
      f+2     :     0.000628
      f-2     :     0.001175
      f+3     :     0.000799
      f-3     :     0.000356

  4 C s       :     3.036837  s :     3.036837
      pz      :     0.819181  p :     2.523072
      px      :     0.915914
      py      :     0.787977
      dz2     :     0.052829  d :     0.214987
      dxz     :     0.035007
      dyz     :     0.039347
      dx2y2   :     0.046357
      dxy     :     0.041447
      f0      :     0.002810  f :     0.025757
      f+1     :     0.003440
      f-1     :     0.003364
      f+2     :     0.004220
      f-2     :     0.004218
      f+3     :     0.002583
      f-3     :     0.005121

  5 O s       :     3.767026  s :     3.767026
      pz      :     1.468221  p :     4.787505
      px      :     1.726923
      py      :     1.592361
      dz2     :     0.007470  d :     0.025805
      dxz     :     0.004354
      dyz     :     0.007082
      dx2y2   :     0.003074
      dxy     :     0.003825
      f0      :     0.000291  f :     0.001640
      f+1     :     0.000152
      f-1     :     0.000371
      f+2     :     0.000286
      f-2     :     0.000309
      f+3     :     0.000127
      f-3     :     0.000105

  6 O s       :     3.778402  s :     3.778402
      pz      :     1.654877  p :     4.766440
      px      :     1.638080
      py      :     1.473483
      dz2     :     0.003453  d :     0.025725
      dxz     :     0.003205
      dyz     :     0.005152
      dx2y2   :     0.007053
      dxy     :     0.006862
      f0      :     0.000145  f :     0.001628
      f+1     :     0.000114
      f-1     :     0.000228
      f+2     :     0.000140
      f-2     :     0.000295
      f+3     :     0.000333
      f-3     :     0.000372

  7 H s       :     0.633337  s :     0.633337
      pz      :     0.010321  p :     0.032966
      px      :     0.009300
      py      :     0.013344

  8 H s       :     0.631993  s :     0.631993
      pz      :     0.011467  p :     0.031766
      px      :     0.009552
      py      :     0.010747

  9 H s       :     0.821897  s :     0.821897
      pz      :     0.007638  p :     0.021680
      px      :     0.007543
      py      :     0.006499

 10 H s       :     0.820822  s :     0.820822
      pz      :     0.009913  p :     0.025462
      px      :     0.008171
      py      :     0.007378

 11 H s       :     0.861167  s :     0.861167
      pz      :     0.004491  p :     0.021912
      px      :     0.007415
      py      :     0.010006

 12 H s       :     0.853843  s :     0.853843
      pz      :     0.005683  p :     0.021800
      px      :     0.010247
      py      :     0.005870

 13 H s       :     0.888358  s :     0.888358
      pz      :     0.004641  p :     0.022000
      px      :     0.006963
      py      :     0.010396

 14 H s       :     0.892026  s :     0.892026
      pz      :     0.007013  p :     0.022156
      px      :     0.007241
      py      :     0.007903

 15 H s       :     0.636945  s :     0.636945
      pz      :     0.011021  p :     0.032804
      px      :     0.012469
      py      :     0.009315



                     *******************************
                     * LOEWDIN POPULATION ANALYSIS *
                     *******************************

----------------------
LOEWDIN ATOMIC CHARGES
----------------------
   0 N :    0.190934
   1 C :   -0.261412
   2 C :   -0.249876
   3 C :   -0.245443
   4 C :   -0.687124
   5 O :   -0.153113
   6 O :   -0.141718
   7 H :    0.228990
   8 H :    0.236865
   9 H :    0.145664
  10 H :    0.143532
  11 H :    0.148613
  12 H :    0.142247
  13 H :    0.138052
  14 H :    0.135536
  15 H :    0.228253

-------------------------------
LOEWDIN REDUCED ORBITAL CHARGES
-------------------------------
  0 N s       :     2.975978  s :     2.975978
      pz      :     1.221375  p :     3.664380
      px      :     1.224781
      py      :     1.218225
      dz2     :     0.013815  d :     0.158465
      dxz     :     0.042154
      dyz     :     0.039362
      dx2y2   :     0.022916
      dxy     :     0.040217
      f0      :     0.001415  f :     0.010243
      f+1     :     0.001549
      f-1     :     0.001269
      f+2     :     0.001050
      f-2     :     0.001442
      f+3     :     0.002205
      f-3     :     0.001313

  1 C s       :     2.792366  s :     2.792366
      pz      :     1.012868  p :     2.985213
      px      :     0.962517
      py      :     1.009828
      dz2     :     0.056872  d :     0.431684
      dxz     :     0.106991
      dyz     :     0.098514
      dx2y2   :     0.058495
      dxy     :     0.110811
      f0      :     0.006854  f :     0.052149
      f+1     :     0.007047
      f-1     :     0.006924
      f+2     :     0.006970
      f-2     :     0.008271
      f+3     :     0.007132
      f-3     :     0.008950

  2 C s       :     2.778656  s :     2.778656
      pz      :     1.000472  p :     3.044215
      px      :     1.028742
      py      :     1.015001
      dz2     :     0.097186  d :     0.387820
      dxz     :     0.087027
      dyz     :     0.081440
      dx2y2   :     0.034054
      dxy     :     0.088112
      f0      :     0.007436  f :     0.039185
      f+1     :     0.005609
      f-1     :     0.007229
      f+2     :     0.006987
      f-2     :     0.004797
      f+3     :     0.003899
      f-3     :     0.003229

  3 C s       :     2.785907  s :     2.785907
      pz      :     1.011198  p :     3.060598
      px      :     1.023872
      py      :     1.025528
      dz2     :     0.075945  d :     0.361281
      dxz     :     0.092850
      dyz     :     0.065584
      dx2y2   :     0.036998
      dxy     :     0.089904
      f0      :     0.007039  f :     0.037656
      f+1     :     0.006994
      f-1     :     0.004581
      f+2     :     0.005864
      f-2     :     0.005590
      f+3     :     0.004935
      f-3     :     0.002653

  4 C s       :     2.775769  s :     2.775769
      pz      :     0.885082  p :     2.741336
      px      :     0.950288
      py      :     0.905965
      dz2     :     0.193526  d :     1.006145
      dxz     :     0.179455
      dyz     :     0.210763
      dx2y2   :     0.226904
      dxy     :     0.195497
      f0      :     0.020455  f :     0.163874
      f+1     :     0.023356
      f-1     :     0.020037
      f+2     :     0.025672
      f-2     :     0.023394
      f+3     :     0.017790
      f-3     :     0.033171

  5 O s       :     3.434058  s :     3.434058
      pz      :     1.478778  p :     4.654946
      px      :     1.620759
      py      :     1.555409
      dz2     :     0.012206  d :     0.058940
      dxz     :     0.012343
      dyz     :     0.018979
      dx2y2   :     0.007927
      dxy     :     0.007484
      f0      :     0.000544  f :     0.005169
      f+1     :     0.000553
      f-1     :     0.001269
      f+2     :     0.001128
      f-2     :     0.001068
      f+3     :     0.000280
      f-3     :     0.000326

  6 O s       :     3.428747  s :     3.428747
      pz      :     1.567970  p :     4.647598
      px      :     1.581025
      py      :     1.498602
      dz2     :     0.008615  d :     0.060136
      dxz     :     0.005780
      dyz     :     0.012803
      dx2y2   :     0.013375
      dxy     :     0.019563
      f0      :     0.000516  f :     0.005238
      f+1     :     0.000359
      f-1     :     0.000703
      f+2     :     0.000479
      f-2     :     0.000935
      f+3     :     0.001145
      f-3     :     0.001101

  7 H s       :     0.671498  s :     0.671498
      pz      :     0.030343  p :     0.099512
      px      :     0.029827
      py      :     0.039342

  8 H s       :     0.668232  s :     0.668232
      pz      :     0.033287  p :     0.094903
      px      :     0.027488
      py      :     0.034127

  9 H s       :     0.792784  s :     0.792784
      pz      :     0.022408  p :     0.061552
      px      :     0.019928
      py      :     0.019216

 10 H s       :     0.785328  s :     0.785328
      pz      :     0.027313  p :     0.071140
      px      :     0.022199
      py      :     0.021627

 11 H s       :     0.791972  s :     0.791972
      pz      :     0.012970  p :     0.059415
      px      :     0.021562
      py      :     0.024882

 12 H s       :     0.797389  s :     0.797389
      pz      :     0.016086  p :     0.060364
      px      :     0.028306
      py      :     0.015972

 13 H s       :     0.801312  s :     0.801312
      pz      :     0.014104  p :     0.060636
      px      :     0.018160
      py      :     0.028372

 14 H s       :     0.804810  s :     0.804810
      pz      :     0.018478  p :     0.059654
      px      :     0.018508
      py      :     0.022668

 15 H s       :     0.673956  s :     0.673956
      pz      :     0.035301  p :     0.097791
      px      :     0.036000
      py      :     0.026490



                      *****************************
                      * MAYER POPULATION ANALYSIS *
                      *****************************

  NA   - Mulliken gross atomic population
  ZA   - Total nuclear charge
  QA   - Mulliken gross atomic charge
  VA   - Mayer's total valence
  BVA  - Mayer's bonded valence
  FA   - Mayer's free valence

  ATOM       NA         ZA         QA         VA         BVA        FA
  0 N      7.2586     7.0000    -0.2586     3.5326     3.5326    -0.0000
  1 C      6.1603     6.0000    -0.1603     3.7744     3.7744     0.0000
  2 C      6.1994     6.0000    -0.1994     3.8652     3.8652    -0.0000
  3 C      6.1540     6.0000    -0.1540     3.5852     3.5852    -0.0000
  4 C      5.8007     6.0000     0.1993     4.6208     4.6208     0.0000
  5 O      8.5820     8.0000    -0.5820     1.8177     1.8177     0.0000
  6 O      8.5722     8.0000    -0.5722     1.7867     1.7867     0.0000
  7 H      0.6663     1.0000     0.3337     0.8852     0.8852    -0.0000
  8 H      0.6638     1.0000     0.3362     0.8853     0.8853    -0.0000
  9 H      0.8436     1.0000     0.1564     0.9608     0.9608     0.0000
 10 H      0.8463     1.0000     0.1537     1.0288     1.0288     0.0000
 11 H      0.8831     1.0000     0.1169     0.9801     0.9801    -0.0000
 12 H      0.8756     1.0000     0.1244     0.9647     0.9647    -0.0000
 13 H      0.9104     1.0000     0.0896     0.9925     0.9925     0.0000
 14 H      0.9142     1.0000     0.0858     1.0008     1.0008    -0.0000
 15 H      0.6697     1.0000     0.3303     0.8924     0.8924    -0.0000

  Mayer bond orders larger than 0.100000
B(  0-N ,  1-C ) :   0.8985 B(  0-N ,  7-H ) :   0.8761 B(  0-N ,  8-H ) :   0.8691 
B(  0-N , 15-H ) :   0.8717 B(  1-C ,  2-C ) :   0.9659 B(  1-C ,  9-H ) :   0.9584 
B(  1-C , 10-H ) :   0.9447 B(  2-C ,  3-C ) :   0.9529 B(  2-C , 11-H ) :   0.9618 
B(  2-C , 12-H ) :   0.9636 B(  3-C ,  4-C ) :   0.9258 B(  3-C ,  6-O ) :  -0.1003 
B(  3-C , 13-H ) :   0.9460 B(  3-C , 14-H ) :   0.9540 B(  4-C ,  5-O ) :   1.8552 
B(  4-C ,  6-O ) :   1.7890 

-------
TIMINGS
-------

Total SCF time: 0 days 0 hours 0 min 8 sec 

Total time                  ....       8.770 sec
Sum of individual times     ....       8.638 sec  ( 98.5%)

SCF preparation             ....       1.024 sec  ( 11.7%)
Fock matrix formation       ....       6.348 sec  ( 72.4%)
  Startup                   ....       0.177 sec  (  2.8% of F)
  Split-RI-J                ....       0.524 sec  (  8.2% of F)
  Chain of spheres X        ....       3.031 sec  ( 47.7% of F)
  XC integration            ....       1.633 sec  ( 25.7% of F)
    XC Preparation          ....       0.000 sec  (  0.0% of XC)
    Basis function eval.    ....       0.147 sec  (  9.0% of XC)
    Density eval.           ....       0.103 sec  (  6.3% of XC)
    XC-Functional eval.     ....       0.028 sec  (  1.7% of XC)
    XC-Potential eval.      ....       0.174 sec  ( 10.7% of XC)
  CPCM terms                ....       0.705 sec  ( 11.1% of F)
Diagonalization             ....       0.000 sec  (  0.0%)
Density matrix formation    ....       0.356 sec  (  4.1%)
Total Energy calculation    ....       0.226 sec  (  2.6%)
Population analysis         ....       0.062 sec  (  0.7%)
Orbital Transformation      ....       0.051 sec  (  0.6%)
Orbital Orthonormalization  ....       0.000 sec  (  0.0%)
DIIS solution               ....       0.358 sec  (  4.1%)
SOSCF solution              ....       0.213 sec  (  2.4%)
Finished LeanSCF after   8.8 sec

Maximum memory used throughout the entire LEANSCF-calculation: 26.6 MB


-------------------------------------------------------------------------------
                          DFT DISPERSION CORRECTION                            
                                                                               
                                DFTD4 V3.4.0                                   
-------------------------------------------------------------------------------
The B3LYP functional is recognized
Active option DFTDOPT                   ...         5   

-------------------------   ----------------
Dispersion correction           -0.019060356
-------------------------   ----------------


-------------------------   --------------------
FINAL SINGLE POINT ENERGY      -363.033101702404
-------------------------   --------------------

--------------------------------------------------------------------------
By default, for Open MPI 4.0 and later, infiniband ports on a device
are not used by default.  The intent is to use UCX for these devices.
You can override this policy by setting the btl_openib_allow_ib MCA parameter
to true.

  Local host:              psid09
  Local adapter:           mlx4_0
  Local port:              1

--------------------------------------------------------------------------
--------------------------------------------------------------------------
WARNING: There was an error initializing an OpenFabrics device.

  Local host:   psid09
  Local device: mlx4_0
--------------------------------------------------------------------------


           ************************************************************
           *        Program running with 30 parallel MPI-processes    *
           *              working on a common directory               *
           ************************************************************

------------------------------------------------------------------------------
                              ORCA PROPERTY CALCULATIONS
------------------------------------------------------------------------------

GBWName                                 ... input.gbw
Number of atoms                         ...     16
Number of basis functions               ...    271
Max core memory                         ...   5000 MB

Electric properties:
Dipole moment                           ... YES
Quadrupole moment                       ...  NO
Static polarizability (Dipole/Dipole)   ...  NO
Static polarizability (Dipole/Quad.)    ...  NO
Static polarizability (Quad./Quad.)     ...  NO
Static polarizability (Velocity)        ...  NO

Atomic electric properties:
Dipole moment                           ...  NO
Quadrupole moment                       ...  NO
Static polarizability                   ...  NO

Choice of electric origin               ... Center of mass
Position of electric origin             ...     0.502392     1.540158    -1.273909

General magnetic properties:
Magnetizability                         ...  NO

EPR properties:
g-Tensor (aka g-matrix)                 ...  NO
Zero-Field splitting spin-orbit         ...  NO
Zero-field splitting spin-spin          ...  NO
Hyperfine couplings                     ...  NO (   0 nuclei)
Quadrupole couplings                    ...  NO (   0 nuclei)
Contact density                         ...  NO (   0 nuclei)

NMR properties:
Chemical shifts                         ...  NO (   0 nuclei)
Spin-rotation constants                 ...  NO (   0 nuclei)
Spin-spin couplings                     ...  NO (   0 nuclei,    0 pairs)

Choice of magnetic origin               ... GIAO
Position of magnetic origin             ...     0.000000     0.000000     0.000000

Properties with geometric perturbations:
SCF Hessian                             ...  NO
IR spectrum                             ...  NO
VCD spectrum                            ...  NO
X-ray spectroscopy properties:
SCF XES/XAS/RIXS spectra                ...  NO


-------------
DIPOLE MOMENT
-------------

Method             : SCF
Type of density    : Electron Density
Multiplicity       :   1
Irrep              :   0
Energy             :  -363.0140413462686979 Eh
Relativity type    : 
Basis              : AO
                                X                 Y                 Z
Electronic contribution:      1.882379971      -1.221233676      -3.221275667
Nuclear contribution   :     -5.657555282       0.085049338      10.901180219
                        -----------------------------------------
Total Dipole Moment    :     -3.775175310      -1.136184338       7.679904552
                        -----------------------------------------
Magnitude (a.u.)       :      8.632716687
Magnitude (Debye)      :     21.942622010



--------------------
Rotational spectrum 
--------------------
 
Rotational constants in cm-1:             0.187540             0.049106             0.043931 
Rotational constants in MHz :          5622.312252          1472.154501          1317.029022 

Dipole components along the rotational axes: 
x,y,z [a.u.] :     8.539549     0.907582     0.881023 
x,y,z [Debye]:    21.705808     2.306890     2.239382 

 

Dipole moment calculation done in   0.0 sec 

Maximum memory used throughout the entire PROP-calculation: 13.1 MB
[psid09:139774] 29 more processes have sent help message help-mpi-btl-openib.txt / ib port not selected
[psid09:139774] Set MCA parameter "orte_base_help_aggregate" to 0 to see all help / error messages
[psid09:139774] 29 more processes have sent help message help-mpi-btl-openib.txt / error in device init
--------------------------------------------------------------------------
By default, for Open MPI 4.0 and later, infiniband ports on a device
are not used by default.  The intent is to use UCX for these devices.
You can override this policy by setting the btl_openib_allow_ib MCA parameter
to true.

  Local host:              psid09
  Local adapter:           mlx4_0
  Local port:              1

--------------------------------------------------------------------------
--------------------------------------------------------------------------
WARNING: There was an error initializing an OpenFabrics device.

  Local host:   psid09
  Local device: mlx4_0
--------------------------------------------------------------------------
[psid09:139869] 29 more processes have sent help message help-mpi-btl-openib.txt / ib port not selected
[psid09:139869] Set MCA parameter "orte_base_help_aggregate" to 0 to see all help / error messages
[psid09:139869] 29 more processes have sent help message help-mpi-btl-openib.txt / error in device init

--------------------------------
SUGGESTED CITATIONS FOR THIS RUN
--------------------------------

Below you find a list of papers that are relevant to this ORCA run
We neither can nor want to force you to cite these papers, but we appreciate if you do
You receive ORCA, which is the product of decades of hard work by many enthusiastic individuals, for free
The only thing we kindly ask in return is that you cite our papers,
We deeply appreciate it, if you show your appreciation for ORCA by not just citing the generic ORCA reference.

Please note that relegating all ORCA citations to the supporting information does *not* help us.
SI sections are not indexed - citations you put there will not count into any citation statistics
But we need these citations in order to attract the funding resources that allow us to do what we are doing

Therefore, if you are a happy ORCA user, please consider citing a few of the papers listed below in the main body of your paper

In addition to the list printed below, the program has created the file input.bibtex that contains the list in bibtex format
You can import this file easily into all common literature databanks and citation aid programs


List of essential papers. We consider these as the minimum necessary citations

  1. Neese,F.
     Software update: the ORCA program system, version 5.0
     WIRES Comput. Molec. Sci., 2022 12(1)e1606
     doi.org/10.1002/wcms.1606

List of papers to cite with high priority. The work reported in these papers was absolutely
necessary for this run to complete.
Our perspective: the developers of density functionals and basis sets usually get cited in chemistry papers
Good! But without the algorithms to do something with them, the functionals or basis sets would not do anything.
Hence, in our opinion, the algorithm design and method developments papers are equally worthy of getting cited

  1. Neese,F.
     An improvement of the resolution of the identity approximation for the formation of the Coulomb matrix
     J. Comp. Chem., 2003 24(14)1740-1747
     doi.org/10.1002/jcc.10318
  2. Neese,F.; Wennmohs,F.; Hansen,A.; Becker,U.
     Efficient, approximate and parallel Hartree-Fock and hybrid DFT calculations. A 'chain-of-spheres' algorithm for the Hartree-Fock exchange
     Chem. Phys., 2009 356(1-3)98-109
     doi.org/10.1016/j.chemphys.2008.10.036
  3. Garcia-Rates,M.; Neese,F.
     Effect of the Solute Cavity on the Solvation Energy and its Derivatives within the Framework of the Gaussian Charge Scheme
     J. Comput. Chem., 2020 41 922-939
     doi.org/10.1002/jcc.26139
  4. Helmich-Paris,B.; de Souza,B.; Neese,F.; Izsák,R.
     An improved chain of spheres for exchange algorithm
     J. Chem. Phys., 2021 155 104109
     doi.org/doi: 10.1063/5.0058766.
  5. Neese,F.
     The SHARK Integral Generation and Digestion System
     J. Comp. Chem., 2022  1-16
     doi.org/10.1002/jcc.26942
  6. Caldeweyher,E.; Bannwarth,C.; Grimme,S.
     Extension of the D3 dispersion coefficient model
     J. Chem. Phys., 2017 147 034112
     doi.org/10.1063/1.4993215
  7. Caldeweyher,E.; Ehlert,S.; Hansen,A.; Neugebauer,H.; Spicher,S.; Bannwarth,C.; Grimme,S.
     A generally applicable atomic-charge dependent London dispersion correction
     J. Chem. Phys., 2019 150 154122
     doi.org/10.1063/1.5090222
  8. Caldeweyher,E.; Mewes,J.; Ehlert,S.; Grimme,S.
     Extension and evaluation of the D4 London-dispersion model for periodic systems
     Phys. Chem. Chem. Phys., 2020 22(16)8499-8512
     doi.org/10.1039/D0CP00502A
  9. Wittmann,L.; Gordiy,I.; Friede,M.; Helmich-Paris,B.; Grimme,S.; Hansen,A.; Bursch,M.
     Extension of the D3 and D4 London Dispersion Corrections to the full Actinides Series
     Phys. Chem. Chem. Phys., 2024 26(32)21379-21394
     doi.org/https://doi.org/10.1039/D4CP01514B 

List of suggested additional citations. These are papers that are important in the 'surrounding' of 
of this run, or papers that preceded the highly important papers. If you like your results we are grateful for a citation.

  1. Izsak,R.; Neese,F.
     An overlap fitted chain of spheres exchange method
     J. Chem. Phys., 2011 135 144105
     doi.org/10.1063/1.3646921
  2. Izsak,R.; Hansen,A.; Neese,F.
     The resolution of identity and chain of spheres approximations for the LPNO-CCSD singles Fock term
     Molec. Phys., 2012 110 2413-2417
     doi.org/10.1080/00268976.2012.687466
  3. Neese,F.
     The ORCA program system
     WIRES Comput. Molec. Sci., 2012 2(1)73-78
     doi.org/10.1002/wcms.81
  4. Izsak,R.; Neese,F.; Klopper,W.
     Robust fitting techniques in the chain of spheres approximation to the Fock exchange: The role of the complementary space
     J. Chem. Phys., 2013 139 
     doi.org/10.1063/1.4819264
  5. Neese,F.
     Software update: the ORCA program system, version 4.0
     WIRES Comput. Molec. Sci., 2018 8(1)1-6
     doi.org/10.1002/wcms.1327
  6. Neese,F.; Wennmohs,F.; Becker,U.; Riplinger,C.
     The ORCA quantum chemistry program package
     J. Chem. Phys., 2020 152 Art. No. L224108
     doi.org/10.1063/5.0004608

List of optional additional citations

  1. Neese,F.
     Approximate second-order SCF convergence for spin unrestricted wavefunctions
     Chem. Phys. Lett., 2000 325(1-3)93-98
     doi.org/10.1016/s0009-2614(00)00662-x

Timings for individual modules:

Sum of individual times          ...       12.844 sec (=   0.214 min)
Startup calculation              ...        1.718 sec (=   0.029 min)  13.4 %
SCF iterations                   ...       10.139 sec (=   0.169 min)  78.9 %
Property calculations            ...        0.988 sec (=   0.016 min)   7.7 %
                             ****ORCA TERMINATED NORMALLY****
TOTAL RUN TIME: 0 days 0 hours 0 minutes 14 seconds 85 msec
