49
 energy: -80.227885431766 gnorm: 0.026013561012 xtb: 6.7.1 (edcfbbe)
N           -0.39530173150000        0.80721798410000        1.07377878510000
C            0.52981432620000        0.14816903970000        0.13516188450000
C            0.36789754300000        0.73591752400000       -1.26149110230000
C            1.29842005530000        0.03326978790000       -2.25705976900000
C            1.59209530910000        0.92214067760000       -3.45663550470000
O            2.26042906610000        1.96775718280000       -3.27173627250000
O            1.15691879330000        0.57874508000000       -4.58794538130000
H           -0.25271585930000        1.81816042440000        1.04450435520000
H           -1.38886214720000        0.59545911310000        0.80098149290000
H            0.31406491130000       -0.91941691510000        0.11554772850000
H            1.55939037780000        0.30358141190000        0.46126504350000
H            0.61388863920000        1.79865872330000       -1.23166716770000
H           -0.66258554040000        0.63356074530000       -1.60124458490000
H            0.86940091950000       -0.90758614030000       -2.60121148050000
H            2.25907312160000       -0.16729830500000       -1.77782923270000
H           -0.24246871740000        0.46926026490000        2.04626400330000
O           -0.00489755100000       -0.17120384240000        3.63771353780000
H            0.84978396430000       -0.22096385930000        4.07378038200000
H           -0.52542120640000       -0.92898547780000        3.91968851550000
O            1.40393662470000        1.99085194520000       -6.96714560900000
H            0.53466639130000        2.12474340760000       -7.35786971250000
H            1.25240660340000        1.53187513190000       -6.11827472000000
O            2.92782655000000        3.74737195240000       -5.33046369200000
H            2.57262954090000        3.34861674230000       -6.13942706500000
H            2.64319873940000        3.14104046080000       -4.62173019050000
O           -1.67509168470000        0.07637715990000       -4.48291656520000
H           -0.75273343820000        0.37237078100000       -4.51304305440000
H           -1.63255273570000       -0.86749873590000       -4.68379735730000
O            2.62290592330000       -1.03403626430000       -6.57454245710000
H            2.30178816900000       -0.37708706980000       -5.94298232120000
H            2.78570389160000       -0.54966300130000       -7.39047617330000
O            5.05218970240000        2.80274944880000       -3.04639602990000
H            5.20552306210000        3.49744859590000       -3.69476872510000
H            4.17189505410000        2.45858055810000       -3.25062123330000
O            1.04558811240000        4.09105399300000       -1.74436848890000
H            1.49901446050000        4.93913135410000       -1.73620260720000
H            1.52816778060000        3.53111923840000       -2.36715472870000
O            0.23311741330000       -2.11605643690000       -4.94155250920000
H            0.63524409230000       -1.23602428700000       -4.85143020660000
H            0.75506473110000       -2.55582659070000       -5.61997970830000
O            0.31600945490000        3.33608063270000        2.00803135310000
H            1.22440015630000        3.34695690790000        2.35746152940000
H           -0.07999552860000        4.17520430810000        2.25891173940000
O           -2.93552305770000        0.19262246860000        0.30529508410000
H           -3.70416275490000        0.56171064590000        0.74925429150000
H           -3.01275948830000        0.43156650860000       -0.63423725820000
H            4.42189522500000        2.14388954320000       -0.82023633710000
O            3.53856006730000        1.82494155960000       -0.60890898560000
H            3.03441719890000        1.93800925940000       -1.42867069380000
49
 energy: -80.228842959001 gnorm: 0.012403781971 xtb: 6.7.1 (edcfbbe)
N           -0.38899451815247        0.79849289198990        1.07907427666344
C            0.53010395774362        0.14409439796847        0.13327320079749
C            0.36998985235769        0.73656680257047       -1.26186839775658
C            1.30132409403257        0.03611386406605       -2.25792036038189
C            1.59336740337003        0.92487311505717       -3.45782460815110
O            2.26215618044668        1.97021203762703       -3.27254684413581
O            1.16503544620553        0.57769985634862       -4.59032651242422
H           -0.23453071689440        1.81426928263307        1.07702347656009
H           -1.38144884581056        0.60035351506271        0.80712503030573
H            0.31564540119082       -0.92400183086643        0.10748196547194
H            1.55946945196449        0.29878138584233        0.45863148505977
H            0.61148558546191        1.80007784664641       -1.22718533152874
H           -0.65724678031297        0.63218077775885       -1.61174433396601
H            0.87242963000784       -0.90433539746493       -2.60353721331280
H            2.26134415909263       -0.16409889542824       -1.77756788835574
H           -0.23806137935068        0.45017715907914        2.04637472551654
O           -0.00742450828261       -0.18382676379157        3.64599967805507
H            0.84818952426814       -0.24942322363124        4.07777142667657
H           -0.53496988782833       -0.93918884721823        3.92054710932719
O            1.40415713804989        1.98943529403276       -6.96923700306655
H            0.53440059806658        2.12529352829392       -7.35815495168887
H            1.25215962861620        1.53306381942843       -6.11912868915092
O            2.93413482325270        3.74471933290273       -5.33323151261418
H            2.56938955655067        3.35079660287208       -6.14030092774570
H            2.64227376881438        3.14381236759856       -4.62281972230553
O           -1.67775885575373        0.07996296892507       -4.44462799078870
H           -0.75939210095429        0.38100945780416       -4.52865574229452
H           -1.64366177640978       -0.85499361983714       -4.68945418082342
O            2.63101509898507       -1.03316323824556       -6.57338176121305
H            2.29916808301710       -0.37909779194755       -5.94441420273119
H            2.78355022066377       -0.54954225198487       -7.39173056985699
O            5.05234273162765        2.80474608371653       -3.04620654529477
H            5.20431909510560        3.49827121140076       -3.69613356107934
H            4.17243672035331        2.45891268145543       -3.24929703030356
O            1.04748608656790        4.09675290348009       -1.74814858086204
H            1.50369451370588        4.94348557199284       -1.75057170393644
H            1.52432783697871        3.53001030193331       -2.36877895308148
O            0.25211649219906       -2.12998088931843       -4.92722765231003
H            0.62657282331438       -1.23529062915385       -4.85679733005808
H            0.76094453883193       -2.55369441814344       -5.62623941952033
O            0.31767044231069        3.34206666809151        2.02666595512204
H            1.23056585951792        3.38034049752265        2.33752671981532
H           -0.08898002481725        4.17968981414757        2.26258834189605
O           -2.94517430611229        0.20806910942037        0.29188000559419
H           -3.71102907697682        0.56385804263140        0.75356294706621
H           -3.05406782426759        0.41940805350493       -0.64378960507954
H            4.42455321193610        2.14786734389776       -0.82880520215472
O            3.54582984084058        1.82052298842519       -0.61089922252363
H            3.03134533667609        1.93921385750276       -1.42334999263076
49
 energy: -80.229609007091 gnorm: 0.008102373339 xtb: 6.7.1 (edcfbbe)
N           -0.37696717696462        0.78449548204835        1.08761932160787
C            0.53168086851481        0.13817480991798        0.12860848648316
C            0.37281438063259        0.73818909347279       -1.26394945495343
C            1.30759515723051        0.04129580916195       -2.26017865007444
C            1.60139465756078        0.92535256596757       -3.46309726865630
O            2.25892583615931        1.97795480256864       -3.27642572757831
O            1.17447342562638        0.57618132225174       -4.59537684581090
H           -0.19806841959905        1.80529382543735        1.13845008830132
H           -1.36695363446755        0.61694797160373        0.81181943579583
H            0.31632695481754       -0.92996194134707        0.09258610827290
H            1.56229617974789        0.28824360961965        0.45084340212639
H            0.60830102081023        1.80259220366017       -1.22174359631544
H           -0.65084638544068        0.63157492770153       -1.62549833153965
H            0.87917469429895       -0.89925927419469       -2.60608687484800
H            2.26742088732430       -0.15782505688405       -1.77930880001323
H           -0.23358139915891        0.41293489355214        2.04629101846562
O           -0.01148202003756       -0.21500398659719        3.65840576550963
H            0.84466459645032       -0.30696819035773        4.08527724142328
H           -0.55440533935635       -0.96238417110255        3.92486567485322
O            1.40319192208709        1.98915993139583       -6.97384372644014
H            0.53109815367491        2.12697528123843       -7.35705354772812
H            1.25506959522546        1.53519166081329       -6.12166553446936
O            2.93542191568087        3.74644712064004       -5.33876404950047
H            2.57346422471417        3.34915854965332       -6.14516418711929
H            2.64526550771877        3.14576067150556       -4.62756318497463
O           -1.68868766659661        0.09827082311062       -4.44343400529841
H           -0.76880202010565        0.38844649552084       -4.49508004983940
H           -1.65568835194084       -0.84142157922410       -4.65953738801002
O            2.62947153265232       -1.03382538795843       -6.57795620731372
H            2.30305141121639       -0.38467203562607       -5.94098059174195
H            2.78369795523745       -0.54248050672254       -7.39126809114909
O            5.04981966092702        2.81092324465461       -3.04440259446486
H            5.20149576547045        3.49814906045941       -3.70113203040882
H            4.17189082798142        2.45960151921583       -3.24728500366746
O            1.05170756281063        4.10863549547444       -1.75757198843653
H            1.51178754313164        4.95349418859625       -1.78164167677026
H            1.51945619704892        3.52811850151300       -2.37226238420359
O            0.25090047605766       -2.13202105514936       -4.94126779562981
H            0.63069808110748       -1.24452085935884       -4.83370960671694
H            0.78752942267229       -2.55056872668525       -5.62177782182988
O            0.32732276903765        3.35324739662385        2.04361564185083
H            1.24509492666167        3.43777157946240        2.30596525054469
H           -0.11132877035202        4.17847216002099        2.26668607422468
O           -2.96570342762737        0.23642621034283        0.27054399392208
H           -3.72515088650577        0.56799140901753        0.76456015779620
H           -3.12944981168872        0.40368989349965       -0.66041340997243
H            4.43235643493195        2.14803751956477       -0.84850575662756
O            3.55663879667417        1.82462179049095       -0.61228127936556
H            3.02787049814875        1.93765458802812       -1.41628739890944
49
 energy: -80.229930239776 gnorm: 0.014482274925 xtb: 6.7.1 (edcfbbe)
N           -0.36635623804480        0.77749794088033        1.09393724578321
C            0.53593938653352        0.13489779736959        0.12703862699383
C            0.37471253171923        0.74050043979379       -1.26289977204673
C            1.31277456704831        0.04647654566513       -2.25900741282277
C            1.59963112026372        0.93240818177427       -3.46235577100112
O            2.25722413152350        1.98556094261600       -3.27809733077872
O            1.18232340341183        0.57453836694964       -4.59530741550287
H           -0.16828585267370        1.79539581811509        1.17950575005875
H           -1.35456992229498        0.63741092557541        0.80817087840800
H            0.31579018196972       -0.93217536125569        0.08555638350174
H            1.56901903197409        0.27845407147647        0.44519603489176
H            0.60834466195422        1.80507048342568       -1.21810308664602
H           -0.64925562709813        0.63388014698230       -1.62337019245237
H            0.88700631220283       -0.89593217847771       -2.60346208041265
H            2.27477826816108       -0.14975566105148       -1.78113258807280
H           -0.23416395017873        0.38462213758412        2.04723722319456
O           -0.01547663918742       -0.25269435408270        3.66083944291782
H            0.83837284816452       -0.35873760359708        4.08933600956621
H           -0.57381307116644       -0.98747705171469        3.93180154472923
O            1.40271182606822        1.99188094156664       -6.97526243535961
H            0.52886115860709        2.12700349387260       -7.35545802704995
H            1.25919228217447        1.53072109792932       -6.12606648718667
O            2.93955250418145        3.74703913062207       -5.34464069292722
H            2.57683383924438        3.34905775778744       -6.15030529604076
H            2.64851256399412        3.14791747869784       -4.63228244804700
O           -1.69141149297774        0.10418163946564       -4.40220397561895
H           -0.77420909846259        0.39788742807321       -4.49436226686032
H           -1.66773326844031       -0.82928905037875       -4.64984736130901
O            2.63609348710664       -1.03350705029343       -6.57820187049747
H            2.30081860435497       -0.38937053307816       -5.94027583907419
H            2.78122801412075       -0.53926035798997       -7.39156696476290
O            5.04913455470639        2.81262948056235       -3.04603366708683
H            5.20066175617357        3.49932877880411       -3.70328963874528
H            4.16894125629316        2.46494459120196       -3.24541025666763
O            1.05813301550589        4.11792559022230       -1.76595513691141
H            1.51596259050315        4.96364275346873       -1.80982133084945
H            1.51922707077234        3.52909252303547       -2.37808961284314
O            0.26188400086861       -2.13435141213052       -4.93568634081382
H            0.62721404595421       -1.23996880084412       -4.83548930494391
H            0.80026143892388       -2.54626395973964       -5.61910544600399
O            0.32619301186234        3.34185042795923        2.06897235508530
H            1.26366363829982        3.48946060443650        2.26578511866915
H           -0.13891512087180        4.16281914120180        2.26098899035441
O           -2.98119438852847        0.26370122185521        0.26121275493495
H           -3.73574831073105        0.57741541470863        0.77417683934660
H           -3.19052878535077        0.38705473412518       -0.67191083030429
H            4.43957219630803        2.14973368658744       -0.86371226825888
O            3.56667761132483        1.82677890933162       -0.61582651819639
H            3.02666938393375        1.94456638750778       -1.41159273154007
49
 energy: -80.230141320460 gnorm: 0.012333363495 xtb: 6.7.1 (edcfbbe)
N           -0.35900127190743        0.77359496249479        1.09955358070359
C            0.54049308260713        0.13227900515855        0.12889074881611
C            0.37727224072739        0.74130687028102       -1.25942105321343
C            1.31731587188096        0.04980578811406       -2.25599851496690
C            1.60085219489956        0.93588547887902       -3.46028843444031
O            2.25433874446344        1.99197352660851       -3.27777320469796
O            1.18684927489380        0.57320209043093       -4.59272459032416
H           -0.14820972305670        1.78480802874094        1.20478127706760
H           -1.34545776920895        0.65461833549261        0.80278377785716
H            0.31597089393629       -0.93368261518389        0.08538351182649
H            1.57550603793234        0.27066567362570        0.44419054993356
H            0.61086700636023        1.80581156488066       -1.21444747502975
H           -0.64803290265522        0.63509452548621       -1.61515739067181
H            0.89475442457862       -0.89493488326240       -2.59829338047824
H            2.28106544078727       -0.14315764283085       -1.78013400831601
H           -0.23868426738958        0.36393238157692        2.04915205783385
O           -0.01951805194265       -0.29104948374989        3.65783587968884
H            0.83106960600603       -0.40009841689772        4.09067709418679
H           -0.59011535629083       -1.01144208644528        3.94311386576764
O            1.40319167183032        1.99347967153157       -6.97460998926799
H            0.52746909805015        2.12777940867408       -7.35081048372539
H            1.26435280458293        1.52854315665270       -6.12663378550698
O            2.94458326290381        3.74741520744240       -5.34780497326095
H            2.57762850526521        3.35151803482455       -6.15268169279856
H            2.65025385795138        3.15084435125250       -4.63438113953105
O           -1.69131603889943        0.10538011703271       -4.36168548225926
H           -0.77688515247616        0.40403048575283       -4.48804111191677
H           -1.67487801041570       -0.82291159991219       -4.63495701864643
O            2.64021986716460       -1.03309413410965       -6.57920247908040
H            2.29968946234145       -0.39361308153153       -5.93897088716709
H            2.77826627365310       -0.53529335821545       -7.39180093984240
O            5.04826849628456        2.81212952189945       -3.04696731344003
H            5.20134201229525        3.49921561550966       -3.70338216019289
H            4.16471284998255        2.47102114448248       -3.24307632943800
O            1.06298000088653        4.12502199405569       -1.77508433707954
H            1.51505709744036        4.97291954883885       -1.83749217913217
H            1.52077255830230        3.52985920136616       -2.38392762331623
O            0.26964723805043       -2.13237281623630       -4.93090413538428
H            0.62295147404573       -1.23150292204436       -4.84188709039319
H            0.80709004956367       -2.54002926876198       -5.61791442555632
O            0.34139207343963        3.35291275754482        2.02883494971545
H            1.25629115658261        3.50356299631057        2.26019048184525
H           -0.15622204038473        4.15046401686613        2.23861716541037
O           -2.99628228898308        0.28520078516541        0.25550624819123
H           -3.74591732773685        0.58978889158760        0.77733552637204
H           -3.22978876951329        0.38262641677016       -0.67592934240958
H            4.44715920227292        2.14857045874992       -0.87543286072108
O            3.57551841039131        1.82937054766103       -0.61816992406181
H            3.02737125870876        1.95311338403613       -1.40723815814867
49
 energy: -80.230396994366 gnorm: 0.007052798718 xtb: 6.7.1 (edcfbbe)
N           -0.35413454330966        0.77047345105218        1.10452582596405
C            0.54529857675648        0.13028814232139        0.13226062452876
C            0.38158395034619        0.74307910012815       -1.25454858002746
C            1.32030804438044        0.05435470952096       -2.25395432166825
C            1.60350966843471        0.93815458784411       -3.46021302182668
O            2.24991001123772        1.99878823245750       -3.27907046274368
O            1.18558459983448        0.57518993058538       -4.59099440690324
H           -0.13578754577170        1.77395938582270        1.21751037281006
H           -1.33891944265256        0.66563507956188        0.79808775124933
H            0.31874419752486       -0.93499667887089        0.08738189969225
H            1.58065623736956        0.26607388799012        0.44754853728018
H            0.61596942399346        1.80749750622716       -1.20873907851152
H           -0.64477195385769        0.63727674855877       -1.60658987549283
H            0.90051282912688       -0.89229968309136       -2.59444390297310
H            2.28498691246667       -0.13550291735514       -1.77866216808290
H           -0.24483506228792        0.34692264271330        2.04994120401998
O           -0.02777989386720       -0.33265155652296        3.64933925417620
H            0.81989845410007       -0.44101367809101        4.08671646631261
H           -0.60692390815796       -1.04051379805674        3.94888595432705
O            1.40403687801740        1.99025890334835       -6.97653935998621
H            0.52665889434566        2.12881749333276       -7.34739255068815
H            1.26812097060623        1.53098850013759       -6.12518223708229
O            2.95120665243153        3.74571359687075       -5.35402940800202
H            2.57804571941598        3.35262283873793       -6.15762966167762
H            2.65115710611942        3.15371052277366       -4.63896149582204
O           -1.69305625452666        0.11070644800303       -4.35291668179992
H           -0.77866888304241        0.40629822459698       -4.45769807572598
H           -1.67713987712956       -0.82020515182223       -4.60821259706309
O            2.63949829941703       -1.03304835917701       -6.57970545301521
H            2.30306523704773       -0.39572313786715       -5.93532013395807
H            2.77698466225340       -0.53188928995079       -7.39023397379990
O            5.04656767572141        2.81155050178876       -3.05006300444191
H            5.20271170597178        3.49951966087960       -3.70480177255645
H            4.15966925577363        2.47781356429532       -3.24436238598139
O            1.06691479409722        4.13368309628801       -1.78604511253693
H            1.51565718593618        4.98178311294852       -1.86077640132509
H            1.52367185656928        3.53263814006797       -2.39022546429437
O            0.27115317929440       -2.12491456933204       -4.92951728852484
H            0.62097738497763       -1.22209841853576       -4.84329161628405
H            0.81405910093323       -2.53306976062822       -5.61217654010608
O            0.33987191552263        3.33618838048762        2.02729583187737
H            1.25742939267636        3.52223562267408        2.23694096103165
H           -0.17188255087951        4.12968472994694        2.21329886214901
O           -3.00803548336685        0.30025799368992        0.25195715523401
H           -3.75382978596234        0.60066020506578        0.77728076295903
H           -3.24266482472412        0.39993682798714       -0.67019163009237
H            4.45356368088914        2.15187072931916       -0.88556539375903
O            3.58370928440076        1.83318036005314       -0.62215300555290
H            3.02899080174925        1.96467777781883       -1.40514160050592
49
 energy: -80.230550648551 gnorm: 0.010860053028 xtb: 6.7.1 (edcfbbe)
N           -0.34524956183753        0.76492368345022        1.11038448354282
C            0.55314599042016        0.12574520894662        0.13595780836247
C            0.38913308104744        0.74546879256784       -1.24786610036501
C            1.32520633064810        0.06099547225697       -2.25176567910982
C            1.60268185362237        0.94466025758251       -3.45955582331351
O            2.24575150989751        2.00757099000121       -3.28113470413911
O            1.18466347596199        0.57878774407903       -4.58955112071500
H           -0.11349149106716        1.76159333972657        1.23673598066467
H           -1.32731817237868        0.68112334871226        0.79206106856911
H            0.32467271467672       -0.93890412791044        0.08702138205055
H            1.58789184922572        0.25853938484810        0.45353701925220
H            0.62408836164122        1.80980233872178       -1.19808687945485
H           -0.63783515263304        0.64051550528232       -1.59868761771913
H            0.90876785313918       -0.88743765270230       -2.59141929730380
H            2.29161773716818       -0.12460310292299       -1.77801144596534
H           -0.25203449620201        0.32134957666546        2.04829999541478
O           -0.04276139283637       -0.38768711732375        3.63770540119778
H            0.80291631345114       -0.49431172061295        4.07904085644261
H           -0.62814747014766       -1.08376733121641        3.95068304075081
O            1.40443434319394        1.98830042021517       -6.97712886938367
H            0.52590961683850        2.12992241296846       -7.34398176088019
H            1.27077294718063        1.53251246825155       -6.12377614603801
O            2.95480089413957        3.74643509683859       -5.36155208631247
H            2.58433232558887        3.35149300896327       -6.16528766217652
H            2.65391252563589        3.15539014502085       -4.64635303417582
O           -1.69400724986254        0.11486449332081       -4.32305772143497
H           -0.78065773626778        0.40984129650694       -4.42534780781995
H           -1.68144464694060       -0.81618762786768       -4.57386002322634
O            2.63710210852592       -1.03239204381396       -6.58038784716747
H            2.31078391992970       -0.39668464982922       -5.92956023170035
H            2.77508065514491       -0.52710397396206       -7.38810393644951
O            5.04283075715197        2.81429180526292       -3.05195475937147
H            5.20518288315264        3.49827387805308       -3.70953693213237
H            4.15551538808390        2.48314190772897       -3.24888275986525
O            1.07272255501542        4.14605168821635       -1.79971678174894
H            1.51813024541367        4.99392637409083       -1.89359570156736
H            1.52438031403581        3.53601400012128       -2.39940422989906
O            0.26499629731568       -2.11079753978642       -4.93542279640308
H            0.62270202186548       -1.21321708858231       -4.83408838557568
H            0.82470859480478       -2.52274620953981       -5.60262976317893
O            0.33630287283434        3.31774564849620        2.02657416832128
H            1.25674532798691        3.54756891383774        2.20655698313542
H           -0.19092202008382        4.10781231764080        2.17834366065341
O           -3.01383293917695        0.33903903368738        0.25110893186922
H           -3.76251469734099        0.61487486090648        0.78806993425028
H           -3.28811766488232        0.39631176530276       -0.67214077504470
H            4.46332328677017        2.15446314884602       -0.90002677953512
O            3.59343583065618        1.84550873012461       -0.62443701140001
H            3.03194643969621        1.97554476542039       -1.40214544310506
49
 energy: -80.230716133256 gnorm: 0.006178526368 xtb: 6.7.1 (edcfbbe)
N           -0.34440854166347        0.75707727184437        1.11286066254411
C            0.55705781475085        0.12077790186459        0.13878857331528
C            0.39487134580279        0.74650087682900       -1.24237731457421
C            1.32953882713897        0.06529633848344       -2.24914074029106
C            1.59955042623102        0.95137126585461       -3.45676389120398
O            2.24510940861445        2.01292716045740       -3.28116640240862
O            1.18291494817444        0.58301130456791       -4.58673088930719
H           -0.10699187976468        1.75198194944688        1.24402176928066
H           -1.32450864105288        0.68130810714324        0.78901650169284
H            0.33032427912474       -0.94402750499190        0.08542982886809
H            1.59011065933041        0.25395489739852        0.46098496779065
H            0.63118656539389        1.81044390281744       -1.18751546700215
H           -0.63229822755876        0.64399233395612       -1.59414398956438
H            0.91476570047596       -0.88358740113071       -2.58938092600102
H            2.29769262078587       -0.11782524094412       -1.77760475223726
H           -0.26058920626259        0.30281513025871        2.04486429914730
O           -0.05734250927135       -0.42526119332124        3.62687124854646
H            0.78826464448832       -0.52487552930920        4.07067767250741
H           -0.64074885154128       -1.11800681446406        3.94676624341801
O            1.40453388967251        1.98907015051810       -6.97438077570031
H            0.52684673910368        2.13046194182182       -7.34277902378207
H            1.26960280871063        1.53095586667895       -6.12262896878797
O            2.95514455139750        3.74841860885671       -5.36516999689425
H            2.59122914730620        3.34983111553362       -6.16985294228809
H            2.65536617699704        3.15665387370093       -4.65056483241658
O           -1.69255593934008        0.11306982602670       -4.28812577387767
H           -0.78069266664985        0.41084315641754       -4.40840564255959
H           -1.68371044403173       -0.81522021192131       -4.55238900557277
O            2.63705354584056       -1.03079379821423       -6.57907969663868
H            2.31527263421221       -0.39468743638210       -5.92673224831740
H            2.77201772670637       -0.52564346367823       -7.38733777068484
O            5.04152609059777        2.81530958683163       -3.05423873006771
H            5.20806975920519        3.49694373726478       -3.71328418068434
H            4.15431162222822        2.48539767254796       -3.25350169186212