49
 energy: -80.222467271780 gnorm: 0.024984601592 xtb: 6.7.1 (edcfbbe)
N           -0.08460848450000        0.42271120010000        1.33848371320000
C            0.23479353040000       -0.20434641750000        0.04521821030000
C            0.19010543860000        0.84529384700000       -1.05679484720000
C            0.57609207510000        0.25250576030000       -2.41076142390000
C            0.78408857600000        1.34334647280000       -3.45391391710000
O            1.60996838800000        2.25706422370000       -3.21162297010000
O            0.11542468380000        1.28990842090000       -4.51973341610000
H            0.52078587900000        1.25649797230000        1.48795587160000
H           -1.07800109340000        0.74528682920000        1.34201445410000
H           -0.48596967950000       -0.99541653880000       -0.16063026120000
H            1.23320721540000       -0.64301117890000        0.08138044710000
H            0.89778205350000        1.63773027800000       -0.81845206070000
H           -0.80696074630000        1.28178282390000       -1.12425610990000
H           -0.18318148420000       -0.44210808250000       -2.77014000240000
H            1.52240942410000       -0.28474427390000       -2.31195153790000
H            0.05082769410000       -0.24883555590000        2.11364322270000
O            0.25620973980000       -1.47151731390000        3.37960149750000
H            0.97018783760000       -1.42730212410000        4.02153756090000
H           -0.51352993990000       -1.84665582650000        3.81620982110000
O            0.88675296090000        2.46650910800000       -6.90146562520000
H            0.07688749840000        2.63857321700000       -7.39299040980000
H            0.61071220550000        2.04085946450000       -6.06489986180000
O            2.27782585380000        4.19470210090000       -5.12634021220000
H            1.96075858130000        3.78959154870000       -5.94865841440000
H            2.04479961450000        3.54220458870000       -4.43859015670000
O           -1.45228690110000       -0.97852468630000       -5.02233033180000
H           -0.82585166150000       -0.23745758800000       -4.92925255310000
H           -1.24836470770000       -1.40199905350000       -5.86078801190000
O            1.45447007170000        2.74311842440000        1.59891538070000
H            1.40122654040000        3.24897165440000        0.77293402130000
H            2.38426012600000        2.71434310460000        1.84029880550000
O            3.95792103580000        1.15859653960000       -4.46428728950000
H            4.17770609840000        1.84972975970000       -5.09590675840000
H            3.11067396810000        1.42113949730000       -4.06215272670000
O            1.53702230270000        4.04548343350000       -0.92932275350000
H            1.84493373960000        4.92581758690000       -1.16233459050000
H            1.54098710490000        3.52777363450000       -1.74706210720000
O            1.56345758900000       -1.12244887350000       -4.97482023940000
H            1.14708180340000       -0.24312483090000       -4.99436023890000
H            1.54459274740000       -1.44679101370000       -5.87945445250000
O           -2.65470653350000        1.45481474610000       -3.79987230530000
H           -2.88548805180000        0.56319990850000       -4.09029030830000
H           -1.72612685460000        1.56199366420000       -4.05673670940000
O           -2.70063244620000        1.30686401730000        1.29236396490000
H           -2.90956842560000        2.02795203350000        1.89351107120000
H           -2.86655760000000        1.63909637940000        0.39479180780000
H            4.59146485020000        1.96545101690000       -2.11518668360000
O            3.82184496990000        1.62111429430000       -1.65341341620000
H            3.04878992830000        1.84547756060000       -2.20305945200000
49
 energy: -80.225866066502 gnorm: 0.016752596840 xtb: 6.7.1 (edcfbbe)
N           -0.08197495959692        0.42110326862643        1.34398059069910
C            0.23451180688784       -0.20497301422057        0.05002888307600
C            0.18947124649509        0.84656810995718       -1.04974149028832
C            0.57198317653221        0.25649339713389       -2.40343512182640
C            0.76514601827776        1.35460541856307       -3.43590821812899
O            1.61489401784060        2.25171292389416       -3.21255370268342
O            0.13252516102286        1.27530834650633       -4.52429964241700
H            0.52370555619719        1.25559704043999        1.49320658640557
H           -1.07444051552703        0.74196195966387        1.34993248692988
H           -0.48431092844174       -0.99785185232283       -0.15722546678021
H            1.23344419480342       -0.64059847070829        0.08737542328577
H            0.89602334278468        1.64071945721695       -0.81267743006029
H           -0.80878426951934        1.27932875465130       -1.12547942166830
H           -0.18133719003245       -0.44256708471411       -2.76572659109403
H            1.52607804976272       -0.27071791396706       -2.32224837362798
H            0.05465690511452       -0.25055247283195        2.11929277499871
O            0.25622684023831       -1.47122639005075        3.37848630468048
H            0.97102009212401       -1.42869679473184        4.01955571588592
H           -0.51250737371772       -1.84836780959986        3.81538303737460
O            0.89093732336357        2.45763109259863       -6.90191341951948
H            0.09067697833869        2.64308258827543       -7.40409006712870
H            0.59219532955316        2.06167235566249       -6.05932408911170
O            2.31988877094944        4.17324707229421       -5.13527324091317
H            1.93555934149845        3.80115918499658       -5.94806554327654
H            2.01996444359743        3.55764742284129       -4.43606120576540
O           -1.49905926487855       -0.97991701338590       -5.02812373264322
H           -0.87646624843149       -0.23957554889170       -4.91779126715065
H           -1.26854051037645       -1.40579382805442       -5.85841397667409
O            1.45412317435829        2.73957536473354        1.59527214518738
H            1.40462996785740        3.25162400677377        0.77284558910668
H            2.38344208837590        2.70755643339719        1.83817303491717
O            3.97672610409445        1.17239475462288       -4.50937756402734
H            4.20413064332437        1.86068401812832       -5.14087138857079
H            3.12174469548070        1.43259578097168       -4.13792473792209
O            1.51363432773721        4.05201612276853       -0.93115977534781
H            1.84917768836499        4.92526576899554       -1.15441910856083
H            1.55146332161468        3.52993802968887       -1.74524204442414
O            1.57336760867337       -1.16378543045477       -5.00039086702165
H            1.18697933089757       -0.27712937156246       -5.02358465338778
H            1.59683243991074       -1.46688023846248       -5.91317858011278
O           -2.65241631651812        1.45376843407158       -3.78093108008293
H           -2.88993252889289        0.57009813857417       -4.09083753493987
H           -1.73293842441336        1.56905516163325       -4.06276687812337
O           -2.69290600072392        1.32020775685398        1.28541754836869
H           -2.91441981973730        2.03008988182667        1.89669392375550
H           -2.89513206054869        1.64210786370709        0.39845238101014
H            4.58783297467899        1.91948267712070       -2.10693047153645
O            3.82478560900132        1.66062329521599       -1.57084097567032
H            3.04160535740372        1.86493310535370       -2.11026107009564
49
 energy: -80.227882888244 gnorm: 0.029806233591 xtb: 6.7.1 (edcfbbe)
N           -0.07926995393663        0.42135419927153        1.35251776783856
C            0.23359200600325       -0.20258425593109        0.05705463754942
C            0.18849796211954        0.84825483707692       -1.04351772151630
C            0.56918851015751        0.25992300272183       -2.39727301895307
C            0.78171853925792        1.33556675035489       -3.44394218147119
O            1.60068038097941        2.25717625068764       -3.21028562010461
O            0.14225620169645        1.26100243304678       -4.52908242067115
H            0.52773791610978        1.25606784391975        1.50112572670389
H           -1.06988852949904        0.74173690498517        1.36127788471509
H           -0.48338999887950       -0.99721562851165       -0.15082092661354
H            1.23291460863691       -0.63603213055660        0.09533611469071
H            0.89371885086339        1.64336233115051       -0.80577937603207
H           -0.81037249059497        1.27879654244265       -1.12623407029492
H           -0.18030860936407       -0.44326959403512       -2.75850327721810
H            1.52720803202676       -0.26227734304065       -2.32750748181362
H            0.05842048186758       -0.25096082846253        2.12811400430565
O            0.25606246184724       -1.47068107659827        3.37738463268655
H            0.97165471713365       -1.42969564381388        4.01763146353558
H           -0.51164768163960       -1.84969938469684        3.81470006671476
O            0.88540922995525        2.46754391297682       -6.89575705790806
H            0.09461006182207        2.64702754585394       -7.41490729517940
H            0.57164402941349        2.07704989975450       -6.05667516482152
O            2.32394374929284        4.16795537921921       -5.14381576437005
H            1.93605892668485        3.79162351928060       -5.95020511913301
H            2.03495112665195        3.56214133464710       -4.43623819531320
O           -1.56631948299697       -0.96900938364619       -5.03728714506569
H           -0.92147426981221       -0.25266637318399       -4.90357271799431
H           -1.30175012206399       -1.41751839355623       -5.84708482865597
O            1.45612257365520        2.73533794616944        1.59201527134365
H            1.40872261716664        3.25224500347301        0.77236019708779
H            2.38622988648680        2.69495903556533        1.83123380950572
O            3.99991569658347        1.20332196596737       -4.54675836410882
H            4.22741041627633        1.87491013628491       -5.19741186892811
H            3.15101176229043        1.47936374219430       -4.18693354597065
O            1.48938277078572        4.05981288184014       -0.93090760419632
H            1.85716874695758        4.92460544904106       -1.14206057256713
H            1.55860943773322        3.53491274470580       -1.74179214878006
O            1.57895818352680       -1.22008244062613       -5.03847462274988
H            1.22445468437386       -0.32497817524318       -5.06743772996165
H            1.68834825940072       -1.48649092637840       -5.96520582609921
O           -2.65673914068584        1.45520081140372       -3.75959707539807
H           -2.89853905855079        0.57827336679794       -4.08701601883996
H           -1.74454224639432        1.57755030956148       -4.05737215334217
O           -2.68879222419191        1.33922247881471        1.27798562092454
H           -2.92063944263225        2.03573872687609        1.90217753986074
H           -2.93584855822692        1.64847685163579        0.40298645963738
H            4.58109294727312        1.85930899214363       -2.08287636762421
O            3.81491235276894        1.71098469658278       -1.48292087475233
H            3.04113119746960        1.86357550563397       -2.05161934555177
49
 energy: -80.228957392135 gnorm: 0.031168203305 xtb: 6.7.1 (edcfbbe)
N           -0.07671261676333        0.42255681025903        1.36031594980442
C            0.23451619798996       -0.20073895722854        0.06434424986972
C            0.18823950362830        0.84820161818279       -1.03809519477871
C            0.56847991781864        0.26089353159496       -2.39190852831388
C            0.78379372041883        1.32702908649760       -3.44587194459648
O            1.58783933991136        2.26202050195121       -3.21057039021317
O            0.15286877403436        1.24254087943594       -4.53631691725827
H            0.53185276507579        1.25728874156266        1.50799749904172
H           -1.06506212845456        0.74406011216480        1.36995219326863
H           -0.48161379203329       -0.99633855636464       -0.14288730269773
H            1.23427087306809       -0.63287221984930        0.10333242318478
H            0.89019800101101        1.64564463715052       -0.79917981342747
H           -0.81133991385683        1.27681333713225       -1.12330449667579
H           -0.17872515432235       -0.44620321018680       -2.75008698039683
H            1.52951135949047       -0.25849340617566       -2.32980835574009
H            0.06082651337631       -0.25020150804039        2.13686243033543
O            0.25696491071267       -1.47139773456948        3.37588250963738
H            0.97297487902932       -1.43057805716578        4.01570191299522
H           -0.51008646463389       -1.85116927129972        3.81382523086369
O            0.87995969161213        2.48189999831698       -6.88891259562735
H            0.09608621726059        2.64591775538748       -7.42393191705300
H            0.56003801179561        2.08251178615606       -6.05701475263040
O            2.33720777693285        4.15862261765204       -5.15427647641856
H            1.93464388650338        3.78361668883567       -5.95295418592562
H            2.04632788515639        3.56871706741253       -4.43653490799883
O           -1.63221121747350       -0.95239710813415       -5.04478149281316
H           -0.95464984795161       -0.26820364561535       -4.89574053000637
H           -1.34487266638001       -1.43147309008269       -5.83158739248184
O            1.45908748290664        2.73185766601612        1.59048773837724
H            1.40977272232333        3.25028932413804        0.77169442562071
H            2.39148812883895        2.68029536853907        1.81984566879664
O            4.02830557930578        1.24760526371883       -4.57365469882633
H            4.25640181035589        1.88966916483268       -5.25752608114609
H            3.18010736588358        1.54397367622396       -4.23276590694099
O            1.47717357748232        4.06472571372331       -0.92780347297385
H            1.86109195767889        4.92469326765417       -1.13007855420761
H            1.55304304929540        3.54232135575607       -1.73844492490251
O            1.59898024956796       -1.27325037526236       -5.08620067011383
H            1.25345569998148       -0.37843233232240       -5.12004139476868
H            1.77529298130519       -1.51815448699003       -6.01521089348187
O           -2.66286107571234        1.46149264687184       -3.73941617829740
H           -2.90785758044184        0.58897180127738       -4.07706309532469
H           -1.75537663805312        1.58800287154003       -4.04518764820215
O           -2.68845066275465        1.35929349474577        1.27309606044045
H           -2.92530130192758        2.04440275765920        1.90831917126827
H           -2.98283635532448        1.65414348062117        0.40806668923146
H            4.56043688744303        1.87633490016223       -1.99432538045722
O            3.81040341285733        1.65298210568433       -1.46235940221806
H            3.04053380183020        1.88173568423164       -1.99885398072056
49
 energy: -80.230218827381 gnorm: 0.015098770136 xtb: 6.7.1 (edcfbbe)
N           -0.07591029561001        0.42540393615247        1.36279255596656
C            0.23726558061100       -0.19996328968643        0.06802941496781
C            0.18900007095416        0.84650031767915       -1.03687344340953
C            0.57195059003998        0.25806503949941       -2.39011228990790
C            0.77133313527350        1.33282229308273       -3.44144072853074
O            1.58150337217717        2.26520466337443       -3.21325726222335
O            0.16075501769950        1.22557856300620       -4.54281593518678
H            0.53366452370151        1.25976095377856        1.50990206987900
H           -1.06268456875805        0.74951419202287        1.36999167092562
H           -0.47930392033360       -0.99553510171368       -0.13694342117974
H            1.23741764453811       -0.63205733177623        0.10726556259148
H            0.88737014277561        1.64661160504505       -0.79738369822550
H           -0.81133089634148        1.27399029279710       -1.11838152311702
H           -0.17567512007128       -0.45091522616799       -2.74485146765130
H            1.53336269106553       -0.26153350311881       -2.32480195654825
H            0.05980827010934       -0.24721796048592        2.14056455828642
O            0.25867419130360       -1.47220569888664        3.37510616305120
H            0.97466819748634       -1.43031819024667        4.01496730351786
H           -0.50832844742505       -1.85149059390099        3.81346623094160
O            0.87561166751564        2.49318272171224       -6.88561387211687
H            0.09137240732323        2.64005830109372       -7.42492393880984
H            0.56401905234932        2.07383788521139       -6.06028267557977
O            2.35738987728335        4.14786554288693       -5.16221747982772
H            1.93206164655423        3.78118271431734       -5.95539617145257
H            2.04757641621234        3.57350800937365       -4.43758624965788
O           -1.65650338688742       -0.94518240519906       -5.03894798144898
H           -0.96456842547587       -0.27418656186286       -4.90394849658708
H           -1.38722481405647       -1.43927429223758       -5.81911971865900
O            1.46258880113746        2.73105907374431        1.59216281014511
H            1.40662383184049        3.24735958556414        0.77229698986073
H            2.39800597807307        2.66990466290082        1.80831721617544
O            4.04412589131660        1.28381310188622       -4.58284990396633
H            4.27574206861701        1.90338316760019       -5.28889185430198
H            3.20255967085119        1.60320957872827       -4.23845663578738
O            1.49068604842244        4.06216112132034       -0.92252101404603
H            1.85721456429274        4.92614868726576       -1.12538971355870
H            1.52863141361859        3.55008951916926       -1.73914635668394
O            1.64207578795312       -1.29303092945573       -5.12882486922513
H            1.26789077526877       -0.41044282725004       -5.15848096938451
H            1.79650045089848       -1.55598284040907       -6.03845008759299
O           -2.66724166686272        1.47026608845169       -3.72621814395076
H           -2.91481734350624        0.59854534882333       -4.06267479075940
H           -1.76006713901960        1.59563204654697       -4.03120770467282
O           -2.69319278766347        1.37203463885735        1.27462377602250
H           -2.92619481140007        2.05458478998997        1.91205778347185
H           -3.01731443409194        1.65533560200762        0.41314877437121
H            4.55913982559855        1.83018933278778       -1.96909658098443
O            3.79025200657856        1.67704219030228       -1.42164045741554
H            3.03773396386079        1.86671293921930       -1.99891779262384
49
 energy: -80.230476132710 gnorm: 0.039623329145 xtb: 6.7.1 (edcfbbe)
N           -0.07619404859735        0.43042542963704        1.36343273005649
C            0.24117250396808       -0.19888099948010        0.07107644084286
C            0.19189053219469        0.84413308392568       -1.03793829111316
C            0.57871544839793        0.25051321344695       -2.38935193854664
C            0.76895550039014        1.32803485995212       -3.44506872687334
O            1.57504882516044        2.26543904443080       -3.21855624364098
O            0.17182204839598        1.19917369748930       -4.55082963792660
H            0.53462786136924        1.26424849197263        1.51053208362822
H           -1.06108129838497        0.75813272221126        1.36579943093718
H           -0.47528503263273       -0.99530504235797       -0.13038179458171
H            1.24187617217438       -0.63053183673308        0.11252604113383
H            0.88727623026037        1.64701824138760       -0.79923861691671
H           -0.80956058373543        1.27010268420541       -1.11507192764921
H           -0.17136508916413       -0.45887632499322       -2.73973606574712
H            1.53783832834862       -0.27160695094485       -2.31371960282896
H            0.05632659976340       -0.24190172020687        2.14267838449280
O            0.26111819903676       -1.47398840254771        3.37311101010668
H            0.97732455395110       -1.43087961638312        4.01279779644562
H           -0.50559340286871       -1.85316763993579        3.81196391223109
O            0.86831430160251        2.50431852703766       -6.88296356021510
H            0.08113702288447        2.63458542265756       -7.42131438931976
H            0.57112597012279        2.06193225310254       -6.06267668697138
O            2.38333707047999        4.13415017374408       -5.17080496728129
H            1.93089361038812        3.77945387795733       -5.95775044344915
H            2.04724214804153        3.57906621036861       -4.43943081314140
O           -1.68329666013936       -0.93691107812978       -5.02364925774193
H           -0.98078729659541       -0.27495138403382       -4.91948848306356
H           -1.44907307928995       -1.45304943220004       -5.79743135989382
O            1.46843456734513        2.72945142520761        1.59466622677601
H            1.40276050086117        3.24468316328577        0.77457108351757
H            2.40797564347527        2.65341871075384        1.79037061887500
O            4.06075196807206        1.33751216151863       -4.59761877022532
H            4.30599430557199        1.93282530113293       -5.31882150544321
H            3.22558215255079        1.68563905237542       -4.25297995767190
O            1.48657965125992        4.06264885030534       -0.91682797679220
H            1.85910501835120        4.92508744197335       -1.11492421497587
H            1.50610932340333        3.55524088805434       -1.73813855991477
O            1.62289929946112       -1.35581035799435       -5.16879130763998
H            1.29498274390521       -0.44672535223839       -5.20404626812286
H            1.89661835730261       -1.56930108917076       -6.08882888504781
O           -2.67124923501765        1.48515878255069       -3.70492485329492
H           -2.92598497603168        0.61691485293873       -4.04462352066499
H           -1.76525530594817        1.60887300255215       -4.01366770185230
O           -2.70572219018570        1.38597782814130        1.27836738786564
H           -2.92783967287866        2.06858449215613        1.91693149595700
H           -3.05538551955346        1.65727613115673        0.42303541342836
H            4.55881579083770        1.74885489671986       -1.94008910797434
O            3.75838470301079        1.71066550736670       -1.36577673290245
H            3.02685395448172        1.86356855943518       -1.98937019176828
49
 energy: -80.231556978866 gnorm: 0.011894396163 xtb: 6.7.1 (edcfbbe)
N           -0.07727391104272        0.43411197040164        1.36257739466851
C            0.24187552660503       -0.19748416424117        0.07157142937498
C            0.19353848665376        0.84370767338264       -1.03975728209350
C            0.58148012439824        0.24561601535670       -2.38955267112598
C            0.78455640337905        1.31245028981020       -3.45515685681466
O            1.57348975596979        2.26246488289068       -3.21927296422854
O            0.17650221800488        1.18855591495785       -4.55195668351865
H            0.53406984510481        1.26772957362189        1.50998903953380
H           -1.06161099522314        0.76281148984084        1.36254370986992
H           -0.47356947975690       -0.99519051229985       -0.12870200482855
H            1.24278011448183       -0.62833521862062        0.11548189262016
H            0.88971366271688        1.64661664833093       -0.80280299164466
H           -0.80817409853587        1.26921045194471       -1.11784843748786
H           -0.16973337831900       -0.46264556317772       -2.73992430524653
H            1.53811407161536       -0.27840432635049       -2.30755566318552
H            0.05373442019084       -0.23776729905099        2.14229004998070
O            0.26152628296475       -1.47288828084861        3.37231132206634
H            0.97817074274714       -1.43009915605864        4.01156332979065
H           -0.50468245203901       -1.85302490648781        3.81123287131913
O            0.86361381326620        2.50417603323926       -6.88257099164130
H            0.07469842311031        2.63409791871039       -7.41745757270266
H            0.57117414513233        2.05890367828674       -6.06148475173457
O            2.37996316652179        4.13320928349985       -5.17183972614506
H            1.93872304617702        3.77446220881446       -5.95922863565555
H            2.05324315688078        3.57594963676090       -4.44191580229284
O           -1.69584691098149       -0.93011090127561       -5.01589770718022
H           -0.98436541492273       -0.27531726343654       -4.92338729604502
H           -1.47334081089708       -1.46216823320393       -5.78419219802486
O            1.47314817876431        2.72803816263975        1.59418039550607
H            1.40385634374572        3.24543208067111        0.77567137041702
H            2.41396207647458        2.64507486707469        1.78092233196823
O            4.06377605435040        1.36017546340399       -4.60894205209076
H            4.32031052378716        1.95464288203059       -5.32181465335268
H            3.23119149866761        1.71613609314284       -4.26600952351851
O            1.47094010346894        4.06561587241884       -0.91659903277405
H            1.86507610138344        4.92243826812311       -1.10987390835795
H            1.50539101987328        3.55390676410481       -1.73674130939774
O            1.66107787648307       -1.35715902019620       -5.19692400876078
H            1.30500091812896       -0.46064021230522       -5.21955329373529
H            1.88778113148524       -1.58922245714104       -6.10085524900530
O           -2.67116138643678        1.49048125481139       -3.69222431128580
H           -2.93044413269062        0.62450137130756       -4.03495738633186
H           -1.76668015820475        1.61352850361839       -4.00676045444685
O           -2.71203942701391        1.39081315520097        1.28076239407459
H           -2.93001212874782        2.07507942394648        1.91889814448376
H           -3.06670101939269        1.65823108232721        0.42897499512692
H            4.54862996357608        1.75248731117087       -1.91582046672447
O            3.75268246428896        1.67953270677989       -1.36713575177350
H            3.01606155960274        1.87149033587384       -1.96722703254693
49
 energy: -80.232059528028 gnorm: 0.014148635500 xtb: 6.7.1 (edcfbbe)
N           -0.07810231263454        0.43984552761340        1.36169944642582
C            0.24389860091354       -0.19570208879775        0.07312720879953
C            0.19537712053409        0.84159836287154       -1.04197212008347
C            0.58529135293409        0.23920066814671       -2.38938114949021
C            0.79134116019176        1.30180667860522       -3.46014014155662
O            1.57231131000337        2.25739111708110       -3.22154010566599
O            0.19178375596278        1.16712351994276       -4.55985316762182
H            0.53408335229453        1.27335110865211        1.50924965360479
H           -1.06116939992778        0.76976252517151        1.35787517465118
H           -0.46930841796764       -0.99577013389338       -0.12582585628848
H            1.24550170149311       -0.62415749911441        0.12116855118222
H            0.89111519501528        1.64563824458956       -0.80755953622515
H           -0.80677961631664        1.26560375742497       -1.12313515442458
H           -0.16505608378332       -0.46952004446466       -2.74059372909528
H            1.54162719871699       -0.28419310755469       -2.30326902005722
H            0.05035828129618       -0.23076752672220        2.14262455547070
O            0.26224183956314       -1.47007349900892        3.37047834392789
H            0.98009935444869       -1.42880367633081        4.00849017163071
H           -0.50247706073190       -1.85317140304901        3.80949365102790
O            0.85576822682765        2.50610231616083       -6.88124574009218
H            0.06342164672155        2.63176120515876       -7.41168770048660
H            0.57227266535154        2.05311105425976       -6.06096434476617
O            2.38944753218115        4.12468705785875       -5.17583911796187
H            1.94362112696573        3.77088198748356       -5.96193109926053
H            2.05703039889555        3.57389773445777       -4.44505147505503
O           -1.73266015444395       -0.91074772648506       -5.00538863238621
H           -0.98963554414634       -0.28327089226723       -4.92147455998683
H           -1.51935292723187       -1.47759526577140       -5.75679903319497
O            1.48006293609326        2.72566653305168        1.59295003006465
H            1.40346824780395        3.24649125461457        0.77704502269837
H            2.42301314986076        2.63141541531144        1.76364809408891
O            4.07732403433081        1.40723498377053       -4.61693115692681
H            4.33855849452454        1.98929199914953       -5.33772193115073
H            3.25082279675266        1.77496346254509       -4.27507859026262