49
 energy: -80.235055846781 gnorm: 0.000329180873 xtb: 6.7.1 (edcfbbe)
N           -0.39530173145031        0.80721798413047        1.07377878508956
C            0.52981432621709        0.14816903970197        0.13516188448023
C            0.36789754296762        0.73591752401759       -1.26149110227696
C            1.29842005526680        0.03326978794623       -2.25705976902365
C            1.59209530910980        0.92214067758374       -3.45663550473277
O            2.26042906614428        1.96775718278143       -3.27173627253514
O            1.15691879333983        0.57874507999135       -4.58794538129927
H           -0.25271585928167        1.81816042442187        1.04450435522226
H           -1.38886214716179        0.59545911311468        0.80098149288544
H            0.31406491129529       -0.91941691508509        0.11554772849840
H            1.55939037784720        0.30358141187037        0.46126504352226
H            0.61388863915120        1.79865872334190       -1.23166716767355
H           -0.66258554036030        0.63356074526435       -1.60124458487243
H            0.86940091945417       -0.90758614025075       -2.60121148050360
H            2.25907312159045       -0.16729830495987       -1.77782923265293
H           -0.24246871736476        0.46926026489870        2.04626400334775
O           -0.00489755100768       -0.17120384235246        3.63771353775241
H            0.84978396432971       -0.22096385932917        4.07378038197461
H           -0.52542120640113       -0.92898547783174        3.91968851553493
O            1.40393662467635        1.99085194517603       -6.96714560896987
H            0.53466639126243        2.12474340764097       -7.35786971247272
H            1.25240660338840        1.53187513193687       -6.11827471998938
O            2.92782655004380        3.74737195238687       -5.33046369203367
H            2.57262954088411        3.34861674226827       -6.13942706504260
H            2.64319873943339        3.14104046076294       -4.62173019047231
O           -1.67509168474016        0.07637715988245       -4.48291656519604
H           -0.75273343816881        0.37237078098262       -4.51304305439642
H           -1.63255273572698       -0.86749873591895       -4.68379735731646
O            2.62290592325887       -1.03403626434290       -6.57454245706361
H            2.30178816896021       -0.37708706978515       -5.94298232119621
H            2.78570389163869       -0.54966300128995       -7.39047617328766
O            5.05218970235212        2.80274944882910       -3.04639602992740
H            5.20552306213367        3.49744859589248       -3.69476872511312
H            4.17189505410104        2.45858055809225       -3.25062123329392
O            1.04558811241266        4.09105399301245       -1.74436848892981
H            1.49901446052209        4.93913135407838       -1.73620260723033
H            1.52816778055116        3.53111923839851       -2.36715472866993
O            0.23311741332065       -2.11605643690124       -4.94155250922686
H            0.63524409233668       -1.23602428704328       -4.85143020664219
H            0.75506473112052       -2.55582659072698       -5.61997970832353
O           -3.00228976843836        1.13860410190582       -2.29392389039057
H           -2.61640772094463        0.71261945715495       -3.07943362027145
H           -3.18008779050879        2.05033139012519       -2.54096775925698
O           -2.93552305765694        0.19262246859903        0.30529508411109
H           -3.70416275490271        0.56171064589494        0.74925429154414
H           -3.01275948829384        0.43156650858851       -0.63423725819818
H            4.42189522499637        2.14388954315814       -0.82023633707452
O            3.53856006726778        1.82494155957415       -0.60890898560386
H            3.03441719893890        1.93800925943313       -1.42867069378845
