49
 energy: -80.227818585824 gnorm: 0.033493208567 xtb: 6.7.1 (edcfbbe)
N           -0.12654822260000        0.48000738910000        0.95420425800000
C            0.49454676390000       -0.33053110180000       -0.10480648950000
C            0.31673240020000        0.36736117990000       -1.44879067640000
C            1.23221439160000       -0.21464655700000       -2.53166281280000
C            1.44384939680000        0.82104412540000       -3.62870108880000
O            2.11751710080000        1.84182739880000       -3.33708157190000
O            0.92808304280000        0.63764836880000       -4.75879046290000
H            0.34618135020000        1.41536908490000        0.97871657500000
H           -1.14239258180000        0.61690412100000        0.76190856020000
H            0.04272329190000       -1.32183076350000       -0.12599267710000
H            1.55908067460000       -0.43186826040000        0.11110813900000
H            0.56357274110000        1.42148584190000       -1.32272002320000
H           -0.71966768480000        0.30314115270000       -1.77882066160000
H            0.82021235610000       -1.12726381230000       -2.96073178560000
H            2.21365521690000       -0.43218900110000       -2.10547798370000
H           -0.01334536570000        0.02523291220000        1.87854241390000
O            0.26703865190000       -0.73064519300000        3.44030656030000
H            0.88798445420000       -0.27731859010000        4.01807010520000
H           -0.48800557860000       -0.99836962210000        3.97206815900000
O            1.13929432530000        2.52453217020000       -6.80268775620000
H            0.27604366230000        2.54224411980000       -7.22819705390000
H            1.08561135340000        1.83739898680000       -6.10967724960000
O            2.44916270430000        4.15569799140000       -4.85563498770000
H            2.13416508080000        3.92445827410000       -5.74063023850000
H            2.30866364540000        3.33917138940000       -4.34117776990000
O           -1.80021715770000       -0.10338652480000       -4.38617210520000
H           -0.90147536300000        0.23287832540000       -4.53044970240000
H           -1.76286694580000       -1.03116416540000       -4.64561987980000
O            3.66415034260000       -0.55665195940000       -5.46725860240000
H            2.85602567170000       -0.06509968970000       -5.25269445230000
H            4.37976601210000       -0.01477212950000       -5.08703543520000
O            4.88875474970000        2.78778940670000       -3.10381562820000
H            4.95427745340000        3.64187992400000       -3.54294124910000
H            4.03624371520000        2.42537038580000       -3.37994409490000
O            0.93251408070000        3.94465279760000       -1.76526180450000
H            1.14425841000000        4.80391196100000       -2.14060452200000
H            1.34533123170000        3.29447752840000       -2.35205789760000
O            0.31428583170000       -2.03759202490000       -5.41521409720000
H            0.63496235280000       -1.12790685350000       -5.28935414770000
H            0.64339582690000       -2.32566251620000       -6.27155264530000
O           -3.14720096020000        1.24333265090000       -2.33947697040000
H           -2.76110533620000        0.70190667460000       -3.04783675530000
H           -3.30436607860000        2.11051491220000       -2.72383571650000
O           -2.80876409210000        0.89013059640000        0.41610418830000
H           -3.19381604290000        1.68708490960000        0.79250915420000
H           -2.97613866200000        0.92681148880000       -0.54045807530000
H            4.26510710560000        2.10310338500000       -0.97315978670000
O            3.40180744470000        1.73562612600000       -0.75637990020000
H            2.91175240660000        1.75177992290000       -1.59594044660000
49
 energy: -80.229305222576 gnorm: 0.020348735160 xtb: 6.7.1 (edcfbbe)
N           -0.12933862008383        0.47991313395278        0.95710690385699
C            0.49646840518289       -0.32735502185367       -0.10291937879220
C            0.31561029873789        0.37431896255696       -1.44395324482873
C            1.22888663618561       -0.21044239962833       -2.52581188774215
C            1.43453551238183        0.82839878794680       -3.61877866339818
O            2.12267427236971        1.84102390816795       -3.33883561383873
O            0.94953258223268        0.62580270752596       -4.76227331502281
H            0.32660285748009        1.40327526963261        0.98138788366999
H           -1.14813847938576        0.61371068158330        0.76175044647732
H            0.04265440190149       -1.31731428845870       -0.12306726056177
H            1.56164139327434       -0.42847189576736        0.11040465580932
H            0.56750051802427        1.42905719480185       -1.31832192864185
H           -0.72065978700318        0.31037583135058       -1.77492893362089
H            0.81982433821800       -1.12369123456308       -2.95677876037883
H            2.21125695169439       -0.42502337985201       -2.10079210143784
H           -0.01512526179964        0.02444837393521        1.88397402132493
O            0.25900506716406       -0.71114948088952        3.43626028405068
H            0.89052863837751       -0.28834690363578        4.02643371637021
H           -0.48694895787585       -1.00627935198504        3.96731711465559
O            1.13710882559100        2.52439123060007       -6.79801938106234
H            0.28299369981194        2.54828155233751       -7.24114904676826
H            1.06298424931341        1.83689453467698       -6.10821196574419
O            2.46321215467058        4.15396622517016       -4.86351299936894
H            2.12964149326929        3.92201835337301       -5.74188564787446
H            2.30019863496318        3.35036275937907       -4.33495171566252
O           -1.79521498610128       -0.10470682695234       -4.38176433666646
H           -0.89815842583351        0.23070029369873       -4.53657750805283
H           -1.76296690177421       -1.03112093566699       -4.64713011336419
O            3.67742412893609       -0.58134976961236       -5.44213001569849
H            2.87886388380268       -0.04479926142061       -5.31612892598832
H            4.40028782352292       -0.02523900068010       -5.11631773923015
O            4.91393617515253        2.75746011800894       -3.16252707454445
H            4.96078126847742        3.64911838669631       -3.53134805538437
H            4.00208498728769        2.46775019204425       -3.34874590372725
O            0.90290544314674        3.93875532775257       -1.78057118048681
H            1.14850578533348        4.80324904055086       -2.12522040216169
H            1.36213467386601        3.29857176754098       -2.34421281326380
O            0.28729962252972       -2.03948530243881       -5.42204691610953
H            0.62760429987487       -1.13898411425622       -5.28710957888619
H            0.65372079315639       -2.34213712019974       -6.25874442283992
O           -3.14073270235534        1.24474067860355       -2.33756954828134
H           -2.76094909780359        0.70227934079812       -3.04862257740830
H           -3.30415724098815        2.11033083567042       -2.72303786893601
O           -2.79663321583483        0.89498737573286        0.41512536789332
H           -3.19882753152443        1.68336283923983        0.79209530129982
H           -2.97443434758933        0.92385888438019       -0.53992209922422
H            4.25566772917512        2.11161388985373       -0.95752506678326
O            3.41078156905032        1.69275291961927       -0.75528876559107
H            2.90048160969657        1.77800162767923       -1.58023002903467
49
 energy: -80.229973924953 gnorm: 0.013577763624 xtb: 6.7.1 (edcfbbe)
N           -0.13489631274084        0.48072363071290        0.96153940256083
C            0.49610412172273       -0.32075199693589       -0.10150729739265
C            0.31608742752725        0.38510429751526       -1.44031150542451
C            1.22824879547830       -0.20286755340046       -2.52128397689050
C            1.45836485558407        0.82268957029784       -3.61988985774079
O            2.12150474071418        1.84952161457499       -3.33575918409165
O            0.97247722146671        0.62003322415938       -4.76498360762145
H            0.30400710531355        1.39542833578962        0.98655862771480
H           -1.15733918692702        0.60947871444700        0.76319997556013
H            0.04233039975191       -1.31026126225212       -0.12321838612728
H            1.56168458953998       -0.42072194183004        0.11046540178267
H            0.57306006458303        1.43954858600113       -1.31304258966620
H           -0.72012735402700        0.32458118776360       -1.77213410702850
H            0.81789291008124       -1.11539305437000       -2.95234966610015
H            2.20814948639933       -0.42054373150962       -2.09302157751625
H           -0.01912920644840        0.02328495105368        1.89044230355125
O            0.25310252232204       -0.69152539768284        3.43231258107142
H            0.89446610089275       -0.30015684116329        4.03556427757666
H           -0.48397803481254       -1.01526224981456        3.96105814091491
O            1.13747316562966        2.52768693226541       -6.79383848900012
H            0.29556862205030        2.54887735230808       -7.26115858817877
H            1.04580400925418        1.83969118285295       -6.10685704283184
O            2.45671409757640        4.15947757604010       -4.86613297404236
H            2.13816665323896        3.92378983414513       -5.74889407623662
H            2.30129322951879        3.35325979975105       -4.34123474675489
O           -1.79031501492473       -0.10636800708469       -4.37588993821800
H           -0.89348444516231        0.22664865293259       -4.53404243692999
H           -1.76168989325681       -1.03208920359042       -4.64470202462074
O            3.69233819487578       -0.58674503744288       -5.44721467469890
H            2.90330548796469       -0.03368385253842       -5.35580049662589
H            4.42445945301747       -0.04897371220727       -5.13252206615406
O            4.89428966990452        2.76779319191331       -3.15711468095234
H            4.96795660603334        3.64006887887632       -3.55471431244199
H            3.98769578965025        2.48264960715485       -3.34651479592323
O            0.89604895868498        3.93414681875449       -1.77881046495939
H            1.14480446272837        4.80232731893470       -2.11181203625810
H            1.34881624333258        3.30141897115840       -2.35244462475924
O            0.24736829137014       -2.03552546205448       -5.43707332013147
H            0.61926528070975       -1.14918959465056       -5.28588836407026
H            0.66473559497831       -2.35809453083719       -6.24634465454224
O           -3.13860613773840        1.24385828272656       -2.33363665613005
H           -2.75949214789475        0.70103782291714       -3.04477046401151
H           -3.30606878588694        2.10795475560306       -2.72078817468813
O           -2.78640201299988        0.89861287098087        0.41703765573952
H           -3.20184764723051        1.68080305427887        0.79307476711041
H           -2.96754843137361        0.92238818575865       -0.53753751910892
H            4.25841311706665        2.08106409607916       -0.95013049619861
O            3.39625628821255        1.71119865807778       -0.73949262930324
H            2.90572622214878        1.75088221053976       -1.57349772121178
49
 energy: -80.230251179410 gnorm: 0.007844687020 xtb: 6.7.1 (edcfbbe)
N           -0.14096783484338        0.48176878446435        0.96531530797911
C            0.49424752404403       -0.31540458137005       -0.09889538328432
C            0.31720312593557        0.39237866992859       -1.43706879176462
C            1.22794601525646       -0.19658690020458       -2.51895246040644
C            1.46024761642312        0.82689175651104       -3.61868037371399
O            2.12128966321797        1.85561383322690       -3.33535809322156
O            0.98743445072809        0.61633121365299       -4.76849947199176
H            0.29206240568880        1.40170926206429        0.99073570756246
H           -1.16548357884601        0.60476219615832        0.76577061115106
H            0.04369004136407       -1.30625736189437       -0.12454258160628
H            1.55947949556669       -0.41213240616718        0.11571936212871
H            0.57571469342162        1.44592296328639       -1.30832574964979
H           -0.71908218599578        0.33574750141467       -1.76877152558294
H            0.81444346027625       -1.10788721037417       -2.94928351726862
H            2.20747861716818       -0.41809646753477       -2.09075168718459
H           -0.02369747554113        0.02375270546217        1.89470330108062
O            0.25425544982793       -0.69218430745628        3.43239049864469
H            0.89274476677187       -0.30263111785269        4.03739678484224
H           -0.48451300782816       -1.01722327417051        3.95592350321571
O            1.13973296896709        2.52845899432951       -6.79696214150615
H            0.30144954468777        2.54018689790085       -7.27051267395719
H            1.05070289435096        1.84289018327511       -6.10755197728199
O            2.45851038203897        4.16245147038007       -4.87136329543977
H            2.13852763946488        3.92750118131877       -5.75381533517096
H            2.30143956851452        3.35649936305973       -4.34704059360552
O           -1.78649531816180       -0.10763424366051       -4.37064522205921
H           -0.89007081784154        0.22482032273132       -4.52904418421523
H           -1.75948974584629       -1.03181266037238       -4.64547568788988
O            3.70194741062446       -0.59298592310864       -5.45206634681526
H            2.92116849407840       -0.02936711485012       -5.37647674462248
H            4.44577148150247       -0.05861362567446       -5.15587205697350
O            4.88443409994497        2.76761111713557       -3.15894385276403
H            4.96613019624107        3.63419161927981       -3.56702482620937
H            3.97956359975226        2.48371863543542       -3.34487274658916
O            0.89226464051324        3.93282047974892       -1.77506402135893
H            1.14056333466899        4.80255336498951       -2.10265575020016
H            1.33557726522667        3.30268050998418       -2.35802799903275
O            0.24796591973016       -2.04205207211377       -5.43249484969294
H            0.60794138767727       -1.15089475979349       -5.29320671120443
H            0.65165970141185       -2.36531032468229       -6.24274807297131
O           -3.14109147976316        1.24244263785200       -2.33103665705820
H           -2.75602543937474        0.70022014459583       -3.03929564514932
H           -3.30478109460052        2.10694521175880       -2.71862578871440
O           -2.78790306637738        0.89571822006875        0.41946297333090
H           -3.20008381400122        1.67970229246723        0.79405339777822
H           -2.95865189115292        0.92408091235495       -0.53664896978499
H            4.26015572633441        2.06438674995941       -0.94052054305528
O            3.39604582756205        1.69568894494250       -0.73379308406261
H            2.90160250909077        1.75450294854223       -1.56566312565377
49
 energy: -80.230595490616 gnorm: 0.010871379669 xtb: 6.7.1 (edcfbbe)
N           -0.15559984813212        0.48603757574228        0.97243243768650
C            0.49113805558989       -0.30037869163212       -0.09337473138047
C            0.32114050094880        0.41224939512861       -1.43004892048957
C            1.22644815249395       -0.18183366796233       -2.51458299792153
C            1.46769402484717        0.83394269777082       -3.61939155869376
O            2.11381977781993        1.87284859260315       -3.33401472253907
O            1.01905251193185        0.60836803654501       -4.77657378954224
H            0.26474047480964        1.41956285996561        0.99914298818108
H           -1.18452166276427        0.59522494183849        0.77130036188686
H            0.04843567712459       -1.29459699751683       -0.12897944959525
H            1.55536793287839       -0.38957821517808        0.12890033013196
H            0.58527672621687        1.46314971977894       -1.29781988937770
H           -0.71572762254014        0.36535702489949       -1.76098511227635
H            0.80403711412844       -1.09024922303498       -2.94208060938896
H            2.20515265656404       -0.41339035134004       -2.08743212071069
H           -0.03380452154871        0.02746329998660        1.90215151470463
O            0.25510792384540       -0.69361499598569        3.43253169184305
H            0.88902825540337       -0.31111094684047        4.04275947750300
H           -0.48704226059423       -1.02491688625893        3.94406034479618
O            1.14494983019248        2.52884967256404       -6.80563735801218
H            0.31424548394945        2.51380079688188       -7.29186439257753
H            1.06838127960267        1.84764081838750       -6.11101999067385
O            2.46271632599984        4.17045607258876       -4.88628607018708
H            2.13760672199731        3.93682023724247       -5.76725429772243
H            2.30316839826111        3.36517075676125       -4.36226114292679
O           -1.77850808028602       -0.10932433623724       -4.35791706335091
H           -0.88203444185910        0.22116342823543       -4.51186891036332
H           -1.75432491551456       -1.03068835132937       -4.64348279558340
O            3.72605368924076       -0.60836891928314       -5.46466068594634
H            2.96459241034828       -0.01992708881736       -5.42612428017817
H            4.49701430381923       -0.07957935505528       -5.21599961710076
O            4.87484175412363        2.75312310971877       -3.18454049323166
H            4.95752576700071        3.62137560685260       -3.59246958496882
H            3.95139692332133        2.49086422111160       -3.32475949076587
O            0.87074615270168        3.92962281056278       -1.77125088047324
H            1.13132465711484        4.80480618345299       -2.07487227710230
H            1.31168796038364        3.30769033320079       -2.36601440090221
O            0.20192146554731       -2.03708852240532       -5.44371657789217
H            0.60534964898467       -1.16332744235974       -5.29456675611085
H            0.64913311907289       -2.39485102747320       -6.21990108840400
O           -3.14013422816691        1.24181557894117       -2.32266845622996
H           -2.74950127729874        0.69824902515173       -3.02659846108904
H           -3.30336649748347        2.10475057557549       -2.71375574001104
O           -2.79344678839937        0.88824878130349        0.42477748810044
H           -3.19749918796220        1.67581661075413        0.79880319427517
H           -2.94501402123259        0.92802105133983       -0.53434591669667
H            4.26538531937678        2.01976386273949       -0.91502232488929
O            3.39467037274996        1.65740578456841       -0.71979454206529
H            2.89442915329148        1.76104229351646       -1.54802942273808
49
 energy: -80.230802174333 gnorm: 0.009832298129 xtb: 6.7.1 (edcfbbe)
N           -0.16429808266348        0.49199809126820        0.97464003783353
C            0.49131618138851       -0.28760794437864       -0.09028744869051
C            0.32408940040452        0.42910417913832       -1.42516781027234
C            1.22328270795052       -0.17156647020837       -2.51114044150293
C            1.47058774063866        0.84061899083891       -3.61827607706238
O            2.10739878848339        1.88555094550511       -3.33061158922360
O            1.03850989108793        0.60562993159264       -4.77900027886407
H            0.24877331924108        1.43003015880842        1.00264992406627
H           -1.19480874352100        0.59416608198039        0.77377987200237
H            0.05256197444692       -1.28343938863230       -0.13186311540634
H            1.55494156721153       -0.37328669539145        0.13701725355594
H            0.59527592508606        1.47793996758240       -1.29165182955008
H           -0.71352132950006        0.38868696324713       -1.75539508261173
H            0.79368709629116       -1.07770823293387       -2.93683520772868
H            2.20124130041223       -0.41031104285151       -2.08588953495366
H           -0.03887777050602        0.03423061766570        1.90365078606790
O            0.25172626034479       -0.69118588089787        3.43193725440508
H            0.88789907521473       -0.32223295948810        4.04971104506814
H           -0.48956433702886       -1.03632583876109        3.93715445915771
O            1.14931513818756        2.52580590397588       -6.81119619951670
H            0.32395229427537        2.49187154225027       -7.30603248324327
H            1.08186235712311        1.84444143011651       -6.11580419427455
O            2.46594154520391        4.17629949123175       -4.89826083760047
H            2.13371393895823        3.94333074025814       -5.77683962360668
H            2.30371833294180        3.37290519376518       -4.37156600774436
O           -1.77094915179180       -0.11127256546208       -4.34396380309981
H           -0.87760685191616        0.22299863549249       -4.50474842915542
H           -1.74769520631245       -1.02897992692933       -4.64232125634842
O            3.74954929622773       -0.62276893835438       -5.47371361617958
H            2.99809017638255       -0.01348279468630       -5.47647033739355
H            4.52977445862521       -0.09267422568616       -5.25685973334213
O            4.86344517344803        2.74744736104117       -3.19227577134738
H            4.94276747286273        3.61076971134449       -3.61197825897606
H            3.94140729922069        2.48221793145477       -3.31780891483581
O            0.85288788126441        3.92773318108516       -1.76825923570519
H            1.12253710352312        4.80689542005403       -2.05352783431902
H            1.30013741792207        3.31288060369307       -2.36746377612037
O            0.19619974358959       -2.03864210120543       -5.43600819130547
H            0.59863414084657       -1.16411561041385       -5.30255825741493
H            0.63086991083762       -2.41150914027119       -6.20625009677932
O           -3.13084321493386        1.24354041112797       -2.31410426528658
H           -2.74692569087880        0.69613118580494       -3.01858178298919
H           -3.30545500517038        2.10209100445372       -2.71041238539084
O           -2.79902121416053        0.88284791628112        0.42777019393303
H           -3.20013718301242        1.67068007348009        0.80507563780254
H           -2.94936411090834        0.92778831880414       -0.53166146426381
H            4.27058282842493        1.98310610667770       -0.89903368054164
O            3.38843499528039        1.64612706337818       -0.70687137147346
H            2.89701032685648        1.74912134015404       -1.53780333077206
49
 energy: -80.230648689475 gnorm: 0.025255393977 xtb: 6.7.1 (edcfbbe)
N           -0.17666972060273        0.50471214786107        0.97632773084155
C            0.49212686176147       -0.26496451012574       -0.08635817369920
C            0.32831047797689        0.45805405974513       -1.41816251276807
C            1.21486135770544       -0.15509662781572       -2.50720457898651
C            1.47247180014523        0.85266111875820       -3.61726079161197
O            2.09707205607499        1.90492661489571       -3.32492220781564
O            1.06649406014201        0.60419822323022       -4.78234334629051
H            0.22736160096482        1.44562374543414        1.00657797119585
H           -1.20820284910703        0.59846441035658        0.77687071458575
H            0.05863001178948       -1.26281851520838       -0.13674971718859
H            1.55481145535949       -0.34651680311095        0.14816544499770
H            0.61362850990802        1.50311653575377       -1.28368219919986
H           -0.71102126944373        0.42941894696702       -1.74576950414884
H            0.77193589456202       -1.05655672240475       -2.93036718868314
H            2.19097204677038       -0.40730704758538       -2.08591881234204
H           -0.04537690818000        0.04887395927954        1.90337155304031
O            0.24600830996062       -0.68897430501411        3.43144458352799
H            0.88672249878265       -0.34096504930098        4.06030127910595
H           -0.49255938403148       -1.05671140764576        3.92840606618294
O            1.16447367264189        2.51275451853635       -6.82463919899897
H            0.34714749639979        2.45371004301332       -7.33072936597113
H            1.10680279204026        1.83394637569037       -6.12535279375184
O            2.47041911213634        4.18515881823881       -4.91887817958115
H            2.12848817830214        3.95038208055664       -5.79336486825214
H            2.30273664859081        3.38708374028970       -4.38425024822920
O           -1.76090170578183       -0.11333223275078       -4.32284635765129
H           -0.87296151771424        0.23023634455133       -4.49161593745648
H           -1.73178659375436       -1.02817409262727       -4.62870346213733
O            3.79420888562920       -0.62000289607971       -5.53613892852230
H            3.05213262717925       -0.03306846789476       -5.51504484902674
H            4.57987830005647       -0.12213571552314       -5.31234021491378
O            4.84609831445035        2.73533522423356       -3.20497436236746
H            4.91403869161861        3.59226867615723       -3.64068379570389
H            3.92786649468179        2.46294876637581       -3.30880399705665
O            0.82622192011413        3.92712584798996       -1.76031877753202
H            1.10365572290913        4.81082505046331       -2.02145829323475
H            1.28101168719231        3.32263771606661       -2.36665476503262
O            0.17635139883537       -2.02956666331176       -5.43220548843241
H            0.59403940243688       -1.16128194830538       -5.31584439600728
H            0.60854516959335       -2.43794702985433       -6.18281847699385
O           -3.11751775988972        1.24535607342179       -2.29842012642807
H           -2.74189789178463        0.69207198195918       -3.00273849401858
H           -3.30992543840801        2.09673915113042       -2.70310986588155
O           -2.81224950694641        0.87382937233145        0.43475230638913
H           -3.20695102833322        1.66317961031863        0.81759680921726
H           -2.96506517248500        0.92514223323222       -0.52453926946798
H            4.27679182579836        1.92957620902145       -0.87388128623285
O            3.38388916116494        1.61644948144218       -0.68978046172236
H            2.89993747068768        1.73648969425735       -1.52004625674530
49
 energy: -80.231060337343 gnorm: 0.010628359667 xtb: 6.7.1 (edcfbbe)
N           -0.17757768560035        0.50918244028897        0.97628973749921
C            0.49210010446900       -0.26021775892056       -0.08574467142416
C            0.32945338006898        0.46216039673536       -1.41777212645172
C            1.21312411714532       -0.15303098989649       -2.50772185446078
C            1.47555161649488        0.85331335764541       -3.61854494294801
O            2.09697112200460        1.90653505709884       -3.32333830727923
O            1.06913848822710        0.60639907511176       -4.78247347683976
H            0.22645785898557        1.44754357854136        1.00690552710331
H           -1.20817032580825        0.60307743418441        0.77620563842097
H            0.05919825940786       -1.25819635001644       -0.13666047071737
H            1.55459716283470       -0.34157729655118        0.14921839233402
H            0.61792062120976        1.50640023402867       -1.28410984259787
H           -0.71033879472452        0.43677716380427       -1.74377960571832
H            0.76707920958047       -1.05286158676930       -2.93078454024322
H            2.18827553212734       -0.40876384372429       -2.08704698937153
H           -0.04650208266768        0.05372917422726        1.90294454842723
O            0.24449280288275       -0.69316596306652        3.43204801756374
H            0.88347643936474       -0.34261705884595        4.05959893306089
H           -0.49380925150212       -1.05956199025414        3.92867016331158
O            1.16561144665453        2.50687179158792       -6.82761989143401
H            0.34776312629888        2.44845229078891       -7.33059352659852
H            1.10722031954407        1.83091274966635       -6.12546429126190
O            2.46524874585475        4.18550750254503       -4.92100339520539
H            2.12898337632899        3.94771417685764       -5.79653526864978
H            2.30389782792048        3.38662846691306       -4.38629928009389
O           -1.76144574457127       -0.10996244520846       -4.32673063440789
H           -0.87269267432553        0.23469335605229       -4.48850083835865
H           -1.72628898602104       -1.02748167030994       -4.62127082107123
O            3.79255276798373       -0.64094379933329       -5.51508502869794
H            3.06218087597596       -0.01319451710665       -5.53986353105148
H            4.59151940767175       -0.12318892129575       -5.34758900906228
O            4.84454872184457        2.73185569350464       -3.20654449419711
H            4.90926609271665        3.58697271577210       -3.64472378323478
H            3.92614152134445        2.45862275465924       -3.30753814652610