49
 energy: -80.250775536323 gnorm: 0.000247975712 xtb: 6.7.1 (edcfbbe)
N           -0.11001968407548        0.18973227926556        0.75151021337472
C            0.89431489828658       -0.38486956212326       -0.15730059748248
C            0.78913177639702        0.28754125344220       -1.52150396985475
C            1.99894825498299       -0.01767032792859       -2.41101167426793
C            2.13422704180184        1.05747543111420       -3.48152898995658
O            2.44057680496189        2.21663066990224       -3.10278878513153
O            1.91963051073812        0.76222021419731       -4.68301058145381
H            0.08171145123330        1.21467095024621        0.85577166753907
H           -1.06734849799302        0.05519495240777        0.36108420271462
H            0.73799605088467       -1.45940485164815       -0.24851713704363
H            1.88685473070237       -0.20569787857211        0.25845711841124
H            0.73742345095179        1.36548854358954       -1.37027606406790
H           -0.12246986222221       -0.02334469664523       -2.03095006239041
H            1.91595612594627       -0.99678239627868       -2.88158277049677
H            2.91155555774408        0.01448014823699       -1.81216269838815
H           -0.05852551043634       -0.26064986270351        1.68247625616505
O            0.11951049426261       -1.06271497554298        3.24574489234787
H            0.46297460001727       -0.54021896645046        3.97609310573681
H           -0.59358725110062       -1.61185612810610        3.58401227493277
O            1.98749862668323        2.66606596312214       -6.71555160146544
H            1.31776922559177        2.38610902512631       -7.34728053396458
H            2.00242461156685        1.98261036687067       -6.01678214653710
O            2.20543561599935        4.56299019938980       -4.59313346904647
H            2.13908573456151        4.27523238325167       -5.51443148332077
H            2.29235730953322        3.72809077049986       -4.09675592271790
O           -2.48655575130986        0.22395580673079       -3.09427959956535
H           -2.81150591796527        1.03685438392975       -3.49171011898927
H           -1.87484953286062       -0.16509172583553       -3.74232638959151
O            2.09171576814255       -1.97124330428357       -5.35788818247656
H            2.15814918078606       -1.01446103986025       -5.19377970385089
H            2.66353484339081       -2.15920884095715       -6.10755450242340
O            4.78154478024997        3.83447997256028       -2.53087269093740
H            4.65297923717629        4.67714121866342       -2.97791790043293
H            4.10219906479884        3.24805165602983       -2.89102004849207
O            0.45489081367382        3.88318607870007       -1.78730164590289
H            0.43979124328486        4.76489085645492       -2.16979637729932
H            1.13008279897207        3.39675418542626       -2.28113290897428
O           -0.56131950963896       -0.61642180168089       -4.92026508215771
H            0.22843543061034       -0.05571291274256       -4.86031930784632
H           -0.22295948379164       -1.49821935356245       -5.11627660490880
O            0.71402162239361        2.81609076703983        0.82626503886192
H            1.66344982895573        2.68792736963103        0.64817976728821
H            0.39351314788877        3.30882269852966        0.05491641870361
O           -2.62056534662048       -0.20995252858976       -0.33732440860347
H           -3.34394003666115        0.35491605184660       -0.05089913435923
H           -2.58902003310994       -0.14929250913295       -1.30652132016287
H            3.98042807697850        3.01631808224602       -0.38316103390741
O            3.22438211366403        2.42301283753849       -0.33358891251817
H            2.92042012418624        2.33044218333416       -1.25238379426071
