37
	Energy:      -0.5804721
N         -0.10913        0.94865        0.88545
C          0.05293        1.94084       -0.17921
C          0.12067        1.29568       -1.57703
C          1.32511        0.36267       -1.78718
C          2.63217        1.09380       -1.67026
O          2.89355        2.00966       -2.43347
O          3.52739        0.73425       -0.73125
H         -0.23049        1.44578        1.79716
H         -0.95664        0.36196        0.70756
H         -0.82254        2.62717       -0.16201
H          0.96308        2.55058        0.01053
H          0.16121        2.10573       -2.33712
H         -0.81446        0.72123       -1.74946
H          1.28961       -0.47467       -1.06116
H          1.26367       -0.08161       -2.80279
H          0.73768        0.34203        0.95789
O          0.65180       -1.81391        2.93383
H         -0.01818       -1.14117        3.21520
H          0.34624       -2.10934        2.03940
O          3.32463       -2.32856        0.05219
H          4.22466       -1.91553        0.05693
H          2.79300       -1.77182        0.67510
O          3.34499        4.48640       -0.46547
H          2.53890        4.46056       -1.04012
H          4.08337        4.19979       -1.05990
O         -1.40281       -2.05144       -1.39287
H         -0.62587       -2.19882       -0.79696
H         -1.00340       -1.83775       -2.27349
O         -2.03445        2.41873       -4.29774
H         -1.39820        2.87085       -4.90702
H         -2.05246        2.99077       -3.48966
O          5.05713       -0.11362       -3.86488
H          5.56267        0.63519       -3.45961
H          4.48177        0.31652       -4.54621
O          1.08672        0.94602       -5.44681
H          1.99344        0.61791       -5.22235
H          0.91482        1.66539       -4.78881
