37
 energy: -59.732196220157 gnorm: 0.183160932730 xtb: 6.7.1 (edcfbbe)
N            0.05814800000000       -0.92758300000000        1.46960700000000
C            0.21195900000000        0.51002000000000        1.25738900000000
C           -0.42029600000000        1.02660100000000       -0.05399500000000
C            0.23290900000000        0.51099500000000       -1.35178600000000
C           -0.12525300000000       -0.89643600000000       -1.75561800000000
O            0.43258500000000       -1.42088200000000       -2.86197900000000
O           -0.94795900000000       -1.55110300000000       -1.13717200000000
H            0.42854800000000       -1.16686800000000        2.41684100000000
H           -0.95187600000000       -1.19383100000000        1.43153800000000
H           -0.27873900000000        1.04478500000000        2.10014800000000
H            1.29199600000000        0.77262900000000        1.27882300000000
H           -0.26331200000000        2.12751800000000       -0.03828000000000
H           -1.51695700000000        0.85134800000000       -0.07337000000000
H            1.33463900000000        0.61768200000000       -1.26361400000000
H           -0.10456000000000        1.15854300000000       -2.18948000000000
H            0.61816600000000       -1.46341800000000        0.77094700000000
O            2.05531200000000       -2.94489400000000        2.77589900000000
H            1.32028500000000       -2.96414100000000        3.43920600000000
H            2.85428400000000       -2.68194000000000        3.29850000000000
O            3.34859700000000       -3.30730900000000       -0.81360600000000
H            3.25836500000000       -2.33197700000000       -0.66802100000000
H            2.72585500000000       -3.50577600000000       -1.55752500000000
O           -1.17044500000000       -4.84853100000000        3.82978800000000
H           -1.79904300000000       -4.08355900000000        3.81264600000000
H           -0.28614300000000       -4.44739200000000        3.63559800000000
O           -1.88355400000000       -3.17435200000000        1.30934400000000
H           -1.08954900000000       -3.48189300000000        1.81489800000000
H           -2.61711100000000       -3.17586700000000        1.97455400000000
O           -2.36326400000000       -5.30008100000000        0.36226500000000
H           -3.16014200000000       -4.71279800000000        0.38862200000000
H           -2.07412000000000       -5.36847600000000        1.30689800000000
O           -1.36757600000000       -3.21952100000000       -2.51606700000000
H           -1.92422600000000       -3.07979000000000       -3.32305300000000
H           -0.99991200000000       -4.13271600000000       -2.62335500000000
O           -0.83775200000000       -2.48274600000000       -5.97496400000000
H           -1.56591200000000       -2.94791300000000       -5.49121600000000
H           -0.53644500000000       -1.77623800000000       -5.34992500000000
37
 energy: -59.768188929786 gnorm: 0.099401696123 xtb: 6.7.1 (edcfbbe)
N            0.05893770854349       -0.92674420866006        1.46899311979440
C            0.20957118863285        0.51997839095270        1.25449037012510
C           -0.40806041774639        1.03973715866154       -0.04958317909716
C            0.24671936030040        0.53960074314823       -1.34602687367818
C           -0.12764936071232       -0.87200018841186       -1.75550438144921
O            0.44390112286813       -1.35329047303510       -2.81704049307382
O           -0.92858386291091       -1.51223833100025       -1.07002100886224
H            0.42874019888230       -1.17876283669465        2.39992033024779
H           -0.93625104953210       -1.21293320672593        1.40270725843317
H           -0.27729154284667        1.04469886853068        2.08733804737701
H            1.27729741306484        0.77468482947860        1.26964910558233
H           -0.27821918961969        2.12942692898868       -0.03789202841436
H           -1.48656347126713        0.83415555502038       -0.07585565873262
H            1.33794477708144        0.62529995255813       -1.28161032401283
H           -0.08564219391098        1.16835638429642       -2.18304829869131
H            0.59116802926752       -1.46238407212354        0.76798671783288
O            2.03134531755361       -2.90080440806853        2.78673892320747
H            1.33943440935637       -2.96826114551209        3.46756130212352
H            2.84619855808013       -2.70016357143179        3.28172530923510
O            3.33653166605321       -3.30312258038438       -0.81387632453167
H            3.26531663337270       -2.34326734515685       -0.68477266020843
H            2.73275136695217       -3.50125631690521       -1.54796619020405
O           -1.17472232259678       -4.84221358782934        3.80745662276792
H           -1.78452918719258       -4.08307355761312        3.83674379212419
H           -0.29317324587733       -4.46593035361728        3.64251081922200
O           -1.85233481291652       -3.01328250146552        1.37881741519852
H           -1.10064396152529       -3.49758837676716        1.80890342322552
H           -2.60896034612100       -3.16949673274238        1.99095530824202
O           -2.40976118929235       -5.39353754161219        0.35545735991380
H           -3.13586394669919       -4.73965657964187        0.36343022744543
H           -2.08396525735552       -5.40338237625640        1.27648705485477
O           -1.41314320554302       -3.29444075883279       -2.54094264241738
H           -1.93446187947651       -3.12139367795548       -3.34112976872256
H           -1.01594075575323       -4.17263440344087       -2.65775937377384
O           -0.85019934152115       -2.46310613108128       -5.97536888458419
H           -1.55048080333908       -2.94328901983840       -5.50275618023700
H           -0.52191440625325       -1.80559452883107       -5.33623323626251
37
 energy: -59.781230716977 gnorm: 0.044478117466 xtb: 6.7.1 (edcfbbe)
N            0.06353253886133       -0.91908757758171        1.46118607907040
C            0.21334683236928        0.53727513792854        1.25062317913689
C           -0.39858482757681        1.05749752639157       -0.04487332182285
C            0.26369646747476        0.56734143594927       -1.33486148018979
C           -0.09401061662290       -0.87616505921286       -1.73820213101609
O            0.41395189632297       -1.27639073424790       -2.79850791953521
O           -0.90960553174692       -1.47672653425277       -1.01197288048854
H            0.43695240014290       -1.19109022590216        2.37297205353892
H           -0.91778123714986       -1.23620426160640        1.35995113810257
H           -0.27599100718405        1.04494504885828        2.07725210868595
H            1.27254085829988        0.77932647304539        1.26209771692738
H           -0.30428124087724        2.13998891693375       -0.02942671645180
H           -1.45815640878675        0.80612590876676       -0.08471672847821
H            1.34575704209280        0.64063913396339       -1.28990504566394
H           -0.06408613084437        1.18147714580029       -2.17276867075786
H            0.56114108312543       -1.45293583938767        0.74796945810945
O            1.99492747573354       -2.84934749113833        2.80810005979622
H            1.35624147820721       -2.96597993408631        3.51814369632793
H            2.83839655833130       -2.70989287369206        3.25417478982634
O            3.32377373442442       -3.29877915121860       -0.81531846804152
H            3.27773617676415       -2.35047560229399       -0.70680796092193
H            2.73693226012975       -3.50359201977699       -1.53995275279276
O           -1.18503784230623       -4.83651516829137        3.75988541739899
H           -1.76451829392097       -4.07183209393921        3.88598747447106
H           -0.29449489993369       -4.49406422318890        3.65262924715386
O           -1.86623090169233       -3.02636463482872        1.42008643818797
H           -1.11228093307390       -3.46148320170599        1.80833749351625
H           -2.59664115321189       -3.11507358056667        2.01522938283607
O           -2.43198128421336       -5.44648154709002        0.36364591287935
H           -3.10450226242169       -4.75373142196298        0.34270659079065
H           -2.09914492181525       -5.44082941069626        1.26523060608681
O           -1.45217762617481       -3.36763207559645       -2.57127267317863
H           -1.95742076652859       -3.16852014924826       -3.35401176961935
H           -1.03501634817978       -4.21792475243735       -2.68820624568303
O           -0.85060859478446       -2.44510642559755       -5.97131161841364
H           -1.53888820744950       -2.93676652754548       -5.52556191166431
H           -0.49998376578392       -1.83353421054453       -5.31804554812443
37
 energy: -59.788175583353 gnorm: 0.077026793593 xtb: 6.7.1 (edcfbbe)
N            0.06783871248010       -0.91583970924743        1.44158148096052
C            0.21971253181471        0.54548104226541        1.25242178681052
C           -0.39746634969311        1.07151246370849       -0.03726633675392
C            0.27171386318305        0.59354854623987       -1.32496279896773
C           -0.10203147503543       -0.85883934375958       -1.75634722584923
O            0.41935226150888       -1.25340910778867       -2.80184805831151
O           -0.87564506617295       -1.47260741274073       -0.98983271799206
H            0.45178325105273       -1.20927346156016        2.34353064972424
H           -0.91045883997370       -1.24801439447032        1.32462558095920
H           -0.27407423991342        1.04121730359106        2.08519344764640
H            1.28146474487456        0.78212237922127        1.26408474233409
H           -0.33066029779359        2.15849161313690       -0.00941592030462
H           -1.45010335212281        0.78640353089969       -0.09022425236489
H            1.35744990770043        0.65921615303230       -1.28315907357795
H           -0.05252069070245        1.21609216817462       -2.15937446117168
H            0.54967487469198       -1.43884855147149        0.70587892828279
O            1.93475344171370       -2.76508365117046        2.82747046539492
H            1.37082282342402       -2.97366913324866        3.60964439391479
H            2.84201423621089       -2.72258288254463        3.21223119158501
O            3.30279307126685       -3.30286865720396       -0.79850405312523
H            3.30577187538898       -2.34109617946877       -0.74152993187444
H            2.73886517679791       -3.51930001294790       -1.54205634533612
O           -1.20592826743437       -4.84376103170898        3.69334625383693
H           -1.74088372419907       -4.04878492752194        3.95400574390138
H           -0.28550230023943       -4.53181777413338        3.67144503288247
O           -1.85921995001098       -2.91106706779195        1.47668103118659
H           -1.12898772006351       -3.52104644842833        1.78468961696020
H           -2.61248337523443       -3.12378183570120        2.04757135661880
O           -2.44006491405330       -5.47270203413618        0.36927500021514
H           -3.08001711659160       -4.74861189909354        0.31877935396690
H           -2.11343109129536       -5.47799563161720        1.26987265028723
O           -1.49349992354611       -3.43279345884648       -2.57859452878145
H           -1.98420314492494       -3.20604567416315       -3.36741178302574
H           -1.04325091960188       -4.26724742037279       -2.72606858208248
O           -0.85758021511430       -2.40572238736903       -5.98407093151509
H           -1.52963803593846       -2.94288996412382       -5.55511590942710
H           -0.45885776245279       -1.86629514763949       -5.27606079700903
37
 energy: -59.792191893954 gnorm: 0.068617432969 xtb: 6.7.1 (edcfbbe)
N            0.07777241765073       -0.91131089335455        1.42089682168869
C            0.22734360074150        0.55297019116726        1.25733308108788
C           -0.39878549825619        1.08318824939144       -0.02750399107398
C            0.28119465501624        0.62415266053650       -1.31359126053049
C           -0.10548232178639       -0.83508555107567       -1.77336865603551
O            0.42539251354569       -1.22554553404402       -2.82670925556982
O           -0.84013351883889       -1.46783426731971       -0.98547629165586
H            0.48362334804834       -1.23192993923711        2.30927712682713
H           -0.89961259438740       -1.25259662567325        1.30309660218433
H           -0.26736943159811        1.03798188174755        2.10042334389034
H            1.29263181778124        0.78903996808963        1.26663328835073
H           -0.36348484152197        2.17646928366227        0.01198730714252
H           -1.44517385905333        0.76626823987675       -0.08957121745429
H            1.37199659120927        0.68412239160322       -1.26739308011543
H           -0.03788449831350        1.25617501156520       -2.14714381944779
H            0.54075492507698       -1.41855334937637        0.65381764080401
O            1.92286010625329       -2.82555401163997        2.88867200279120
H            1.35786170573162       -2.90960885639297        3.64900822663695
H            2.80807887208041       -2.64123358596982        3.19956447029741
O            3.28203258154896       -3.30585443063564       -0.77932493452397
H            3.33591132720403       -2.32928892749169       -0.78409077210663
H            2.74122889516117       -3.53988345195297       -1.54427492572731
O           -1.20426162822285       -4.83016085472066        3.73957560679066
H           -1.73121552027135       -4.05708545900367        3.93571643816053
H           -0.28404290457233       -4.56406008474394        3.65932263258253
O           -1.85912334889391       -2.86503725434381        1.51970431996870
H           -1.14335751653175       -3.48574502772325        1.80745652880713
H           -2.63830096933279       -3.11966843982637        2.06311352336604
O           -2.47420529320329       -5.55953746592331        0.38174355714815
H           -3.03889843846291       -4.74692504859987        0.28749957438831
H           -2.11444998324472       -5.51233638776486        1.27988280716594
O           -1.55178669826901       -3.51544593750158       -2.58445635672431
H           -2.01437559534207       -3.25080418149923       -3.39079411507245
H           -1.05621097248626       -4.32910169448461       -2.77939676701640
O           -0.83601001142479       -2.38201540064567       -5.98027726143448
H           -1.51932029639538       -2.94627944126376       -5.58894682974104
H           -0.43769561663915       -1.87979577543262       -5.24192036585277
37
 energy: -59.796744945485 gnorm: 0.063509353255 xtb: 6.7.1 (edcfbbe)
N            0.09077724609768       -0.90815139676738        1.40709052720063
C            0.23184669428407        0.55540784379459        1.26180050423211
C           -0.40313397017718        1.08513756907889       -0.02125894465097
C            0.28953126608222        0.64680365581983       -1.30765527863165
C           -0.08399337685866       -0.81900486477506       -1.77188884832154
O            0.41817304352908       -1.19076529979119       -2.87034825068927
O           -0.82393347751647       -1.45735317480450       -1.01412669728514
H            0.52161233897013       -1.25090597161303        2.28064073574676
H           -0.88813051334734       -1.24679909883276        1.30951499890782
H           -0.25758541643549        1.03494233339661        2.11449094645784
H            1.29787919124075        0.79910903356399        1.26715077622314
H           -0.38971102741214        2.18115058864500        0.02411812300770
H           -1.44520812012460        0.75572998002090       -0.08096889786822
H            1.38146259209128        0.70813184114296       -1.24654505984353
H           -0.02261705884588        1.28385338400475       -2.14369128328112
H            0.53672980026365       -1.39895813029078        0.61238234245424
O            1.86624873955478       -2.77733918566956        2.92315707691594
H            1.37061474644878       -2.89171854203913        3.74538708366678
H            2.79565757119823       -2.62364418856241        3.15684618922641
O            3.30045433737030       -3.29941987768474       -0.79808031229291
H            3.33056390629909       -2.33405933757403       -0.79583789870903
H            2.73719151771763       -3.55569715231175       -1.54099954303784
O           -1.21778488985766       -4.83492983757728        3.68338803534698
H           -1.70295252243913       -4.04431806814260        3.98642170994916
H           -0.27658743789355       -4.59700123799692        3.67081272017640
O           -1.87049495232112       -2.88910048292789        1.54786839590330
H           -1.15332422624762       -3.40538668193895        1.84733244128406
H           -2.64420324553269       -3.06681553088021        2.08643121601589
O           -2.47048360379558       -5.58633067962460        0.37190307497406
H           -3.05169482680479       -4.82968343790824        0.28415274526120
H           -2.10800618357707       -5.55601067549166        1.27172946402143
O           -1.59062900147563       -3.57922669623068       -2.60172577424735
H           -2.04344552510252       -3.29697089286884       -3.41174396938323
H           -1.09010455681303       -4.38521948092791       -2.81543561531227
O           -0.79204043150197       -2.38751166544066       -5.95774720611131
H           -1.51276169305387       -2.93582930451436       -5.61004462030201
H           -0.44241493401264       -1.87002533628222       -5.23403590700783
37
 energy: -59.801308800811 gnorm: 0.061859950632 xtb: 6.7.1 (edcfbbe)
N            0.10747119230987       -0.90958498350018        1.39741120550547
C            0.23645171674202        0.55407479692517        1.26168549484877
C           -0.40622783874267        1.08185854146276       -0.01883573144712
C            0.29723205669610        0.66391429941510       -1.30843297528933
C           -0.05490351275522       -0.80666428750866       -1.77794070858752
O            0.40429307829853       -1.14302239140749       -2.90516929518453
O           -0.81078548508714       -1.44671075379935       -1.05034502234370
H            0.56729529158021       -1.27064343459478        2.24988782380070
H           -0.87185309422683       -1.25057178872575        1.32855505078640
H           -0.24657072584203        1.02641852373783        2.11983417184718
H            1.29854579309951        0.80747264860885        1.26392740021587
H           -0.40840119500035        2.17477814915247        0.03315151803010
H           -1.44245231135706        0.74485049780816       -0.07417991431715
H            1.38480713066323        0.72648213414660       -1.22960224248013
H           -0.00329684762729        1.30948846066220       -2.14026359670252
H            0.52941626542461       -1.38459800803918        0.57988133106789
O            1.81691602817008       -2.70719675867442        2.95541807254261
H            1.37333673267831       -2.87645126544259        3.81606160733083
H            2.76627291399903       -2.60728290123014        3.15533808659326
O            3.31197925451513       -3.29736322184001       -0.80919620054369
H            3.33270358869812       -2.34292706934977       -0.81518101913697
H            2.73805648742116       -3.57090419035761       -1.53208221915625
O           -1.21027978173173       -4.82660510570146        3.68995160981681
H           -1.68729119324032       -4.05160459089519        4.00118099299267
H           -0.27730567021452       -4.61075738890620        3.65183612813928
O           -1.89387433038038       -2.82070005235585        1.59029881201620
H           -1.18925279925076       -3.47993330589238        1.80729050841419
H           -2.65212675097630       -3.03632668297945        2.12596510791328
O           -2.46221485666377       -5.58997444342849        0.38262714282474
H           -3.02920739582685       -4.83906856910180        0.27507591938146
H           -2.12626828927957       -5.58829943441444        1.28396440362871
O           -1.60036788529497       -3.62808782498963       -2.63753382378314
H           -2.07684028082845       -3.35333648480262       -3.42080879702176
H           -1.13777616023865       -4.43911504804781       -2.83122246147274
O           -0.77855897358391       -2.36348800404237       -5.95605634200899
H           -1.49753350259846       -2.92319288227886       -5.63333634743027
H           -0.41388664954761       -1.89283717961523       -5.19867069079488
37
 energy: -59.800738806626 gnorm: 0.108181994603 xtb: 6.7.1 (edcfbbe)
N            0.12619843972894       -0.91310113345208        1.38640110691206
C            0.24211296090200        0.55058049862319        1.25776348018967
C           -0.40921771353108        1.07834869239879       -0.01839522927554
C            0.29688550800265        0.68299862312287       -1.31712793355800
C           -0.07102314789036       -0.76931019128623       -1.82312902320660
O            0.41431341121838       -1.10537260207657       -2.91077158209446
O           -0.78083050179624       -1.44968102624534       -1.07212010903933
H            0.62084770322978       -1.29385164741540        2.21151371060722
H           -0.85471754545025       -1.25402345489125        1.35909122662671
H           -0.23595308320053        1.01469576327141        2.11889485273200
H            1.29815109036076        0.81644306171434        1.25802928782482
H           -0.42438726097573        2.16534696499844        0.04180236433803
H           -1.43905614403932        0.73319263261021       -0.06939448260743
H            1.38038168787958        0.73709719580656       -1.22248200356094
H            0.01191590269584        1.34875590384444       -2.13304657103973
H            0.51610112444707       -1.37111718358369        0.54758836898001
O            1.78932939978998       -2.63864023264748        2.99336192778931
H            1.36010520618380       -2.84034969730728        3.83783094312407
H            2.71945081027892       -2.59109119239875        3.20467817890873
O            3.29412487120194       -3.30144079683141       -0.79165721109297
H            3.35905898680165       -2.34140602712242       -0.86591307160000
H            2.74864620213290       -3.58844453407100       -1.52510871836954
O           -1.22708235626094       -4.83624711023301        3.57777836131092
H           -1.64955001270058       -4.03346770170235        4.08756416268319
H           -0.26707956881671       -4.63905669942737        3.67407193945353
O           -1.90831898663289       -2.78622396482451        1.62395190169248
H           -1.22422391062395       -3.49364159056386        1.81336070615110
H           -2.68331170421544       -3.04130157156296        2.12690144035811
O           -2.49223859428510       -5.67114496111927        0.41641170107646
H           -2.95009754088138       -4.78290285542664        0.24325202687366
H           -2.14264123293826       -5.60501828399076        1.31199695948298
O           -1.63458018344174       -3.69669268250499       -2.65370728978639
H           -2.10633810102755       -3.40139140979684       -3.42409565991039
H           -1.16742777663411       -4.49314467688263       -2.87061061736014
O           -0.77179222948992       -2.32754215417820       -5.95840278456105
H           -1.47504889822915       -2.90617583328437       -5.65461884861412
H           -0.37520481179167       -1.92358812156708       -5.15117851144428
37
 energy: -59.804928464971 gnorm: 0.088141290758 xtb: 6.7.1 (edcfbbe)
N            0.13626363697654       -0.91738618460666        1.37810340833567
C            0.24677274095497        0.54665997507221        1.25489332533939
C           -0.40990274845678        1.07826491523293       -0.01712378185592
C            0.29504202150746        0.69113906448432       -1.32030522732389
C           -0.10348131838687       -0.73520205938225       -1.86531203493145
O            0.42258842602267       -1.08532409982195       -2.91482931434890
O           -0.74999492725615       -1.46436771894467       -1.07056005390741
H            0.65148818126434       -1.30867950090008        2.18701207040906
H           -0.84703882770394       -1.25456082732746        1.38144171335886
H           -0.23323451396878        1.00662488460339        2.11629176700360
H            1.30050621431881        0.82054765089336        1.25460009011723
H           -0.43222134231498        2.16360292671061        0.04732239777562
H           -1.43759620518500        0.72204600214888       -0.07042638034289
H            1.37909676494314        0.73940970255781       -1.22300250102772
H            0.01510447262194        1.37145850756411       -2.12330243159717
H            0.50570669040240       -1.36610310498295        0.52933871193816
O            1.75523007095892       -2.56533055304911        3.01028407534574
H            1.35986942309037       -2.82271724289622        3.87025855178408
H            2.70937636597892       -2.61162504769012        3.21364807308684
O            3.28253416352013       -3.30363576828781       -0.77849441403183
H            3.37527879630893       -2.33553251187172       -0.89785254709488
H            2.75687948414264       -3.59958018685858       -1.52389008629688
O           -1.20242858224776       -4.81786733566652        3.67527809168777
H           -1.65594419161133       -4.06647748516531        4.00984777466556
H           -0.26665875405956       -4.64193862269881        3.65133359529125
O           -1.89804521778758       -2.77839728093904        1.63863168547239
H           -1.23586242666710       -3.43548494173346        1.85648532848111
H           -2.70924061202818       -3.05833658528726        2.10735013864772
O           -2.47510866675325       -5.66746888300062        0.41495719149421
H           -2.95795604210376       -4.83081055800317        0.25173803670611
H           -2.13448958529869       -5.62160397870659        1.31081510529656
O           -1.67955327195686       -3.74647665059845       -2.63965536428589
H           -2.12013532530736       -3.41204793759898       -3.42581818280272
H           -1.16762835717088       -4.52302431575019       -2.91223224926328
O           -0.74841010223217       -2.32680792565331       -5.94493187309632
H           -1.46457522723503       -2.89313102308637       -5.65882431868652
H           -0.37472920727896       -1.91774529876396       -5.14258537134989
37
 energy: -59.802680534056 gnorm: 0.134230574581 xtb: 6.7.1 (edcfbbe)
N            0.14286725558348       -0.91961916758040        1.37014662178219
C            0.25153289456970        0.54499094934029        1.25668708808066
C           -0.41303673083152        1.08079349152706       -0.01115637832022
C            0.30270712538088        0.69303615761653       -1.30561929497635
C           -0.04020082209347       -0.75174027733725       -1.82388749265787
O            0.38057084903688       -1.03545464123077       -2.99480374540858
O           -0.74953448664305       -1.45694828529009       -1.09909943680771
H            0.68106815727508       -1.31865067426274        2.16877016243701
H           -0.84212847135987       -1.25160715010195        1.39985935894581
H           -0.23163544230116        1.00276778435878        2.12308720729490
H            1.30910123896664        0.82110583697410        1.25101725315191
H           -0.44729868413549        2.17246291668229        0.05397145110756
H           -1.44051035734902        0.70522827602760       -0.07122859115359
H            1.38952521493245        0.75269412473204       -1.21027750461119
H            0.01681978432106        1.36813871617266       -2.11717660122667
H            0.49175603642852       -1.36392122947317        0.50183343133421
O            1.76823797669861       -2.64886323226817        3.06077744403722
H            1.32957361356887       -2.74957339093186        3.86224474177137
H            2.68893424309543       -2.54637442448871        3.22335949166118
O            3.31464002938776       -3.29615091100057       -0.80474523345866
H            3.35348531430995       -2.34653295762395       -0.88261094743961
H            2.75483417915500       -3.61428699135678       -1.52328928688496
O           -1.20750709108058       -4.81666550346610        3.64928430032349
H           -1.64280338445349       -4.05857238345636        4.03076001333325
H           -0.25983034559351       -4.65797470820389        3.65029823957318
O           -1.90358275210555       -2.74788973370832        1.65876383308581
H           -1.25371310988604       -3.45455301394413        1.84854383062628
H           -2.71116505796672       -3.02395516116434        2.13058749215128
O           -2.44278545804542       -5.61522353039785        0.39612730670710
H           -2.99880518014734       -4.91639526734436        0.27734324148429
H           -2.12314568151330       -5.63509023078448        1.30145311832954
O           -1.70378840215578       -3.78002967514897       -2.64103152929187
H           -2.13630315867478       -3.42688968896748       -3.43737492963747
H           -1.18446606138948       -4.55631914672183       -2.93151931213039
O           -0.70599457515209       -2.33626747081775       -5.91932068578513
H           -1.46109832899681       -2.88913899484514       -5.66605969029589
H           -0.38881833083493       -1.89444041151866       -5.14522996713849
37
 energy: -59.806389138413 gnorm: 0.103421653826 xtb: 6.7.1 (edcfbbe)
N            0.14795880342921       -0.92248604820137        1.36585447739542
C            0.25381674546091        0.54222278128694        1.25679429049901
C           -0.41552548376279        1.07664619802791       -0.00999029504809
C            0.30190381271443        0.69683847660638       -1.30615261372212