37
 energy: -59.870820172541 gnorm: 0.000734222565 xtb: 6.7.1 (edcfbbe)
N            0.56926004203041       -0.61018149982750        1.29906023080744
C           -0.20948219537697        0.63082849640639        1.11076982010969
C           -1.27753715528253        0.43211791194584        0.04208661581611
C           -0.74550469865760        0.44710102763642       -1.39702075887214
C           -0.15287117033652       -0.86398364839719       -1.92722357853569
O           -0.50540338706815       -1.26347351206070       -3.05384066576815
O            0.69551228464421       -1.46994451374863       -1.21603113671487
H            1.43173087755868       -0.45211867120974        1.81851275434782
H           -0.00836831414897       -1.32355429320951        1.78988481526419
H           -0.68663174312860        0.90249285002706        2.05212618914126
H            0.45946655796496        1.43683379135859        0.80768336027609
H           -1.99942277909699        1.24566248010925        0.11776871612625
H           -1.80967711842211       -0.50196360599906        0.22563590583169
H            0.03726245302596        1.20374870575845       -1.49799658960123
H           -1.55255356256541        0.72391110219856       -2.07392732042184
H            0.78299869603266       -0.99814796287601        0.33730193931602
O           -1.04545754887570       -2.47275528468546        2.59327662698535
H           -1.11519539473585       -2.54907477258779        3.55017149127795
H           -1.03377124271398       -3.36325132047645        2.23231971518210
O            1.68333990286381       -3.88706439672095       -2.00810740550326
H            1.15598810598991       -4.13085169741897       -2.77361885092291
H            1.35963802364862       -2.99902401540282       -1.73704742141052
O           -2.92548050123547       -0.49906015922699       -4.10190530867826
H           -3.52829231065033       -1.07745202219869       -3.60307043606406
H           -2.02689811492332       -0.77466422103177       -3.82606057075091
O           -4.65930136362164       -2.10360889006054       -2.53114194793137
H           -5.38748595567496       -1.65799400666283       -2.08471914803924
H           -4.98877665502265       -2.95577429527054       -2.83361884823486
O           -3.49718166891411        2.79318319201083       -0.77113029082277
H           -3.44446263544265        2.57477822645810       -1.71657478176518
H           -4.35491341819955        3.21004475702255       -0.64629056948153
O           -3.37383931706809        2.13395256639116       -3.51893820598495
H           -2.98813888989568        2.64279380815619       -4.23793073051598
H           -3.25761127009870        1.19152339626963       -3.76288869502103
O            2.45219759041574       -5.61452570205559        0.07200141003827
H            3.41188610929339       -5.54889342073388        0.04768055898750
H            2.13447776777879       -5.04156539990944       -0.64887388849255
