34
 energy: -56.564879220542 gnorm: 0.197102691763 xtb: 6.7.1 (edcfbbe)
H            1.42053100000000       -0.69343900000000       -0.45759400000000
C            0.31562500000000       -0.64091500000000       -0.57275600000000
H            0.37944700000000        0.34125600000000       -2.37510200000000
H           -0.02020400000000       -1.57726700000000       -1.06978300000000
N           -0.04283300000000        0.48932200000000       -1.43082700000000
H           -0.10434400000000       -1.52577500000000        1.34227500000000
C           -0.35607200000000       -0.58177200000000        0.80987700000000
O           -0.15503900000000        1.84564400000000        1.27779400000000
C            0.09900500000000        0.57829600000000        1.65429800000000
H            0.33459400000000        1.38391400000000       -1.05046800000000
O            0.66999200000000        0.37333800000000        2.71201200000000
H           -1.08151800000000        0.54834700000000       -1.53303300000000
H           -1.45918500000000       -0.54094800000000        0.69330800000000
O           -0.52719900000000       -2.31618500000000        5.52826800000000
H           -0.52206700000000       -3.30416300000000        5.46130500000000
H           -1.10585500000000       -2.12339500000000        6.30839800000000
O            1.39862500000000        1.15885400000000       -5.81469600000000
H            1.90589400000000        0.47100800000000       -6.31485300000000
H            0.63413600000000        1.38057600000000       -6.40377100000000
O            1.61684300000000       -0.57762900000000       -4.41094400000000
H            1.90090100000000       -1.41033700000000       -4.86538700000000
H            2.46279000000000       -0.10378200000000       -4.20980900000000
O           -2.40038500000000       -1.45182100000000        4.65325800000000
H           -2.07655000000000       -0.60666200000000        5.05506400000000
H           -2.60047800000000       -1.21832900000000        3.71195200000000
O           -2.87916100000000       -3.02913200000000        2.10847000000000
H           -2.78808700000000       -2.39513800000000        1.35324300000000
H           -2.00378400000000       -2.99263100000000        2.56998400000000
O           -0.38260900000000       -0.54073100000000       -5.33349200000000
H           -1.30065500000000       -0.34997500000000       -5.65195000000000
H            0.11586200000000       -0.79410200000000       -6.15077000000000
O            1.70293000000000       -2.69253800000000        4.08141400000000
H            2.26622500000000       -2.05696400000000        3.57214500000000
H            0.78088900000000       -2.51304500000000        3.76798800000000
34
 energy: -56.607758763186 gnorm: 0.098161419132 xtb: 6.7.1 (edcfbbe)
H            1.40397109596393       -0.69089425316360       -0.45232450334784
C            0.31397356869113       -0.65123404892754       -0.57735826824221
H            0.37440137518729        0.35239109858886       -2.37872426464172
H           -0.01126291566781       -1.57554397283538       -1.07157120193046
N           -0.03962064326785        0.48700543418771       -1.43852388078300
H           -0.10774424127673       -1.50193564916370        1.34514124525347
C           -0.35587887829038       -0.58095617798230        0.79915626218546
O           -0.14547270813775        1.79364481204705        1.23736172025769
C            0.09162803923049        0.59140430028431        1.66260455407775
H            0.31563405155633        1.37266078651273       -1.03789624453553
O            0.68474994922708        0.37407096825064        2.72498490759230
H           -1.06505803944016        0.55320459713274       -1.53441700962548
H           -1.44697927970279       -0.53122775333447        0.68678771648565
O           -0.46478403573475       -2.35438451211510        5.58963487522535
H           -0.51738203863905       -3.31804231727540        5.47792501681981
H           -1.08856645862529       -2.15220245122864        6.30945331687926
O            1.44196080860992        1.25564640949525       -5.88995983638327
H            1.89361436118397        0.51214385385831       -6.33371248396870
H            0.63713152185709        1.40689674115972       -6.41654061227307
O            1.67066665928066       -0.64359497343221       -4.29767001298151
H            1.92313570805239       -1.42010802988516       -4.82996808801047
H            2.49108034124662       -0.12488555605561       -4.19745287298850
O           -2.48530039256341       -1.40579337560013        4.63467855950463
H           -2.08779048674062       -0.60531351309084        5.02345558340610
H           -2.62551782535595       -1.19450375723999        3.69868639472565
O           -2.87272118130401       -3.02432558258365        2.10076901518105
H           -2.78414014617660       -2.40642933969827        1.35585100748581
H           -2.02040782542298       -2.99226289277993        2.56716915031242
O           -0.45324875192072       -0.58260762661476       -5.34902387243205
H           -1.33879244368434       -0.36032192540091       -5.67334841576961
H            0.06871493398490       -0.79935291510716       -6.14051283775130
O            1.72634763554836       -2.71745506824459        4.03557877579595
H            2.26436259559939       -2.04048919281606        3.58881446437359
H            0.80755964673167       -2.49132411694191        3.79676984010284
34
 energy: -56.622688510041 gnorm: 0.038706051959 xtb: 6.7.1 (edcfbbe)
H            1.39634481704507       -0.69175602582751       -0.45126930061041
C            0.31619566296998       -0.66506784337324       -0.58364411088003
H            0.37601923188601        0.36387959741672       -2.38159958248958
H           -0.00306184782631       -1.57892480134523       -1.07984796692185
N           -0.03661635711934        0.48250576234294       -1.44530915635862
H           -0.11536578231571       -1.49248092553651        1.34614069307727
C           -0.35283505335455       -0.58828171642530        0.78588929018737
O           -0.15287346533308        1.74867192779740        1.20364981351719
C            0.13364615720294        0.61126109241624        1.63070981635681
H            0.29274793868272        1.35877349913743       -1.01308164024837
O            0.67571089916856        0.36746638851689        2.72794449948806
H           -1.05337778205923        0.55276791160717       -1.53808947506822
H           -1.43570649597242       -0.50853302856457        0.67943143379941
O           -0.45066329790102       -2.38571886863345        5.62269577836676
H           -0.50477433695753       -3.33365776645502        5.50387623063287
H           -1.07561368732374       -2.17429466463687        6.31921326624588
O            1.46970312447188        1.29758097503945       -5.92744298120208
H            1.90294603414354        0.55657287492893       -6.35702594634565
H            0.65251488205481        1.44075085340224       -6.41088592343597
O            1.71265847681190       -0.66667756660136       -4.22540539388658
H            1.93514160153446       -1.43022786451462       -4.75891005241802
H            2.51012944301786       -0.12933683905149       -4.17327858647838
O           -2.54128380008044       -1.36857514459956        4.62976089169057
H           -2.10245505623716       -0.59550601641495        5.00003520620631
H           -2.66039831815143       -1.18472780999257        3.69755522162423
O           -2.87223449117829       -3.01791467224179        2.09126527625745
H           -2.77904908791806       -2.42350615061464        1.34352356145513
H           -2.03773957130728       -2.99943561211752        2.56519653465827
O           -0.50886640292187       -0.58750646691616       -5.37333154113832
H           -1.38627502189045       -0.37827552125751       -5.68610261128997
H            0.01651442699094       -0.82265530106403       -6.13862299503912
O            1.76344417343465       -2.74981063289439        3.97159162816702
H            2.27479349403787       -2.01267835251275        3.60232794217836
H            0.83894349239502       -2.46080129101466        3.83885817990268
34
 energy: -56.630492182039 gnorm: 0.045370318856 xtb: 6.7.1 (edcfbbe)
H            1.39798678849183       -0.69135456365462       -0.44879984985070
C            0.32031136079682       -0.67890919574890       -0.58705880631305
H            0.38667069787298        0.37651302498820       -2.37888850483099
H            0.01395390780532       -1.58843993343305       -1.09654436018011
N           -0.03587779450666        0.47633693415865       -1.44649659943891
H           -0.12294651648377       -1.49906463785194        1.34725450242327
C           -0.35733319507658       -0.60485993631090        0.77706602184710
O           -0.06478530625562        1.73809353971769        1.10256987068562
C            0.08864740100777        0.62651919003487        1.63589673009834
H            0.26594130766394        1.34640285310598       -0.98101845299897
O            0.69669706760914        0.37100099454012        2.69941189390273
H           -1.05052811999649        0.54188730389338       -1.54582822792094
H           -1.43476427649479       -0.50893090520735        0.66303514604711
O           -0.42913426863784       -2.41569750096630        5.66215519158713
H           -0.49850344466756       -3.36060129415027        5.53430378755591
H           -1.07755548105493       -2.18649894542648        6.33021480050995
O            1.52206401768531        1.35023703946468       -5.96644242342995
H            1.90837497792613        0.57897441329955       -6.38731762860354
H            0.65889406364961        1.47496518656642       -6.38443623006763
O            1.74543051305604       -0.67782696065975       -4.12795390179957
H            1.92993591322702       -1.43418472786278       -4.68522076627490
H            2.53459787780778       -0.11561481217388       -4.16177187832760
O           -2.60636519129125       -1.32517921640565        4.64402092238491
H           -2.09288607239118       -0.57201359782581        4.97090633569570
H           -2.69952557923152       -1.18604274573442        3.69829164742157
O           -2.88051686184507       -3.00804571893506        2.08403866896598
H           -2.76574316919232       -2.44464253673262        1.31670724960794
H           -2.05501498046787       -3.01109433727612        2.56986059543828
O           -0.56704310471847       -0.59538484922837       -5.38910730008281
H           -1.44569859810788       -0.39740929908593       -5.70386510376617
H           -0.03179252907851       -0.85007102388252       -6.13735511701249
O            1.79157983563139       -2.75512801368604        3.92945225669392
H            2.28677077525765       -1.99567350721703        3.60053294185293
H            0.86642198401023       -2.44438222031445        3.87820458818093
34
 energy: -56.637448424133 gnorm: 0.046070747430 xtb: 6.7.1 (edcfbbe)
H            1.40570413684576       -0.70382708070199       -0.45657608795843
C            0.32625265405327       -0.69995830981416       -0.59789633211867
H            0.40814358208828        0.38992189612090       -2.37410243377433
H            0.02613311397395       -1.60870652292683       -1.11743383915218
N           -0.03355621570798        0.46524656344158       -1.44660803693431
H           -0.13497045999745       -1.50806247569524        1.35020714966125
C           -0.35298527864156       -0.61989811609871        0.76338984044807
O           -0.02030917651315        1.73674909052278        1.01782205075598
C            0.14286761375895        0.63844882489025        1.58281210911278
H            0.24179505584530        1.32839554691844       -0.94142349193970
O            0.66220675842681        0.38523760259372        2.69202775338308
H           -1.04986984118617        0.52042233006879       -1.56065445085257
H           -1.43044542495837       -0.49552937830200        0.64846769515746
O           -0.39229345858199       -2.44670014333009        5.70682751370615
H           -0.49324285471316       -3.39528751967092        5.57296425623194
H           -1.08707083814020       -2.18987196354519        6.33343892785677
O            1.58172230768615        1.40781859420167       -6.00567548197562
H            1.91232729268771        0.59480229165442       -6.42035883770547
H            0.67541650281023        1.52129525920809       -6.35752799821533
O            1.77249544465921       -0.68009773169687       -4.01961955427066
H            1.91668906589129       -1.43447680888113       -4.60567063111645
H            2.55625466358590       -0.10611939520375       -4.13002573266855
O           -2.65695651386073       -1.28100372522947        4.66277005598933
H           -2.09556222469729       -0.53618851665434        4.93987068321907
H           -2.74916870210681       -1.19615923734323        3.70321154325489
O           -2.90146577842505       -2.98087281657928        2.08815534738144
H           -2.73985716377351       -2.47447269782708        1.27676315359578
H           -2.07013009241795       -3.03214588502155        2.57111892546915
O           -0.62450646120806       -0.59342745016277       -5.40188343320230
H           -1.51209461940550       -0.42096246261764       -5.72541830370066
H           -0.08277190163763       -0.88397367565814       -6.13854718928890
O            1.81016940300426       -2.74634751700412        3.89854845689355
H            2.29724845193057       -1.97677317187224        3.59807141381388
H            0.89009495872622       -2.44359539778541        3.90877295894534
34
 energy: -56.640017979303 gnorm: 0.078685792482 xtb: 6.7.1 (edcfbbe)
H            1.41004203115353       -0.71986010982955       -0.46737301005373
C            0.32765077706925       -0.72040927863608       -0.61114604500434
H            0.44019178281665        0.40252201797166       -2.36418791979744
H            0.03692503122140       -1.63188763843825       -1.13791033410767
N           -0.03404831259151        0.45072391938425       -1.44774222100180
H           -0.14681727181128       -1.51157566342693        1.34855784690328
C           -0.35528499540154       -0.62937858761033        0.74696188342789
O            0.05493832007212        1.73893687950772        0.92993687298565
C            0.17991101837439        0.64089124757503        1.53605100940075
H            0.20966417685147        1.30672342965427       -0.89794146064228
O            0.63651872894497        0.40675722131119        2.67287683627292
H           -1.05175199737693        0.48671218023617       -1.58982659507210
H           -1.43358376807733       -0.49591569182499        0.63270455153505
O           -0.36509732427773       -2.48693474285950        5.73084816194514
H           -0.47576028902285       -3.43893164373803        5.61050656233610
H           -1.07843955036983       -2.20678091972300        6.33022422072360
O            1.59809506410316        1.43878387965859       -6.02168779666062
H            1.94936312719493        0.65876788688843       -6.44451790814606
H            0.72960260995216        1.59431820815365       -6.37236577670394
O            1.79537514319482       -0.67811332737639       -3.92785840423387
H            1.92118889804582       -1.44219491540545       -4.49883084148147
H            2.55677205131154       -0.11866304724589       -4.02837237064902
O           -2.68202502276743       -1.24581805036258        4.66399335159710
H           -2.14676739616770       -0.50043903364018        4.91626262160749
H           -2.82176251880855       -1.19883532981585        3.70932413501622
O           -2.92529849143354       -2.95291144203667        2.08959405133952
H           -2.72329766501890       -2.49856294332910        1.24600712231803
H           -2.08004918561640       -3.06080207091880        2.55319890126862
O           -0.67740833386506       -0.57220994330486       -5.41749937631160
H           -1.58210049241975       -0.45055635186311       -5.73976450607544
H           -0.14956080758037       -0.92402927272703       -6.14790192932575
O            1.84807323595811       -2.77635334314715        3.81576465626289
H            2.31577944172576       -1.91670084342743        3.62226463389309
H            0.91722598461895       -2.41339267965667        3.97566707643688
34
 energy: -56.640308221507 gnorm: 0.106474041553 xtb: 6.7.1 (edcfbbe)
H            1.41051584500751       -0.73334909415456       -0.48245801249758
C            0.32689075718457       -0.73259932504041       -0.62592613299409
H            0.46712478926541        0.41373571185325       -2.35602096800750
H            0.04301182558567       -1.64697626187131       -1.15268312117340
N           -0.03494601288933        0.44041685215926       -1.45203686279885
H           -0.14810166692053       -1.50480357918466        1.34093494618546
C           -0.35553710953539       -0.62868502370441        0.73048173748925
O            0.11777280351188        1.73327011151692        0.88243409680239
C            0.20343411047091        0.63592245622110        1.50630641620919
H            0.18295108715332        1.28775001273118       -0.86386729570145
O            0.63124595579744        0.42569097280741        2.65063131792296
H           -1.05124039033498        0.45947915386832       -1.61957347845957
H           -1.43382906494464       -0.50207350762635        0.62266956135308
O           -0.35616788391393       -2.50936636101699        5.74426982500588
H           -0.45216742693937       -3.46178807817534        5.66677600952039
H           -1.04360267281704       -2.20334826843363        6.33918621995414
O            1.61278412642678        1.45820969019121       -6.03703088002203
H            1.97028331821833        0.70846870714803       -6.47483180712232
H            0.76732937735630        1.64832583673014       -6.36797084921834
O            1.82047176310673       -0.67266612437744       -3.84997547513112
H            1.92453910612398       -1.44289891714026       -4.40526474848758
H            2.56017964445903       -0.11639296575117       -3.97135794795092
O           -2.70842228226973       -1.21407907757577        4.67341700247358
H           -2.16247829871789       -0.47195878705581        4.88025920892628
H           -2.88410584264510       -1.21607586554216        3.72343954204863
O           -2.92970744070147       -2.94659198076082        2.08007089343821
H           -2.71922994830119       -2.50800293981646        1.24283922744718
H           -2.08237138793780       -3.07800520876299        2.53323696983757
O           -0.71483834943002       -0.54902172181457       -5.43282849479998
H           -1.63173180907039       -0.47352710587224       -5.74671985003333
H           -0.21065090121062       -0.95261540264408       -6.16024117792703
O            1.82447806709384       -2.68550167072164        3.87583289515049
H            2.32396818870112       -1.96663984981053        3.56809169242742
H            0.93041172311988       -2.46042238837725        3.95372754013740
34
 energy: -56.645276661107 gnorm: 0.083150786409 xtb: 6.7.1 (edcfbbe)
H            1.40898359855288       -0.74322300082371       -0.49240841804414
C            0.32719032645466       -0.73609650771656       -0.63404474476599
H            0.47694438161161        0.41426101321406       -2.35376825453795
H            0.03950716090817       -1.65100022610514       -1.15176251456801
N           -0.03305876698019        0.43442936309805       -1.45821281995094
H           -0.14026864165485       -1.49498749157644        1.33605202894268
C           -0.34951856795768       -0.62137630766063        0.72344742257201
O            0.13337408842224        1.72214460876647        0.89372013018357
C            0.19717434887897        0.62971690017192        1.50402419732318
H            0.17712177993507        1.27650637439746       -0.85884014470792
O            0.64304508385708        0.43439661652069        2.63593954692032
H           -1.04393176098522        0.44786303175566       -1.63659136889825
H           -1.42692974851748       -0.50403412355547        0.62036684295706
O           -0.38100891927315       -2.52362306525279        5.72469195728365
H           -0.45013098846348       -3.47521049989693        5.67841855421968
H           -1.04665463412435       -2.21487139724698        6.32688335127014
O            1.68086345066811        1.47557839388051       -6.05231339539456
H            1.93975021098963        0.66524906031052       -6.52041068044692
H            0.73008154670128        1.63908255648897       -6.28226169071668
O            1.81127524980228       -0.66613779010166       -3.77475415459840
H            1.89021682114099       -1.42619422838988       -4.36299198253481
H            2.56748667439914       -0.05504539042730       -4.04991235690139
O           -2.75657504582649       -1.20186516283822        4.70379416732105
H           -2.10104844629190       -0.46333352558735        4.84394000085896
H           -2.90677612877763       -1.24224553257246        3.74376031332793
O           -2.92047234966699       -2.95244706332238        2.07002547583992
H           -2.72811286370102       -2.50596761719686        1.25232911910694
H           -2.08311934534090       -3.07078687423849        2.52431882139600
O           -0.71773243673622       -0.54964982017636       -5.44490195880376
H           -1.63350089283561       -0.48130296476840       -5.74231844203433
H           -0.23441548632602       -0.95449622789249       -6.17392853401201
O            1.85557381869076       -2.69450600507520        3.84846324709755
H            2.33301827950359       -1.93362582693645        3.56464181311571
H            0.93991220294591       -2.44332126925025        4.01042247118414
34
 energy: -56.648148729511 gnorm: 0.075203422197 xtb: 6.7.1 (edcfbbe)
H            1.41007552814659       -0.75650003941515       -0.50387274622960
C            0.32863235597736       -0.74669531915805       -0.64263157641247
H            0.49198107884679        0.41487973280689       -2.35550763495760
H            0.03418939942819       -1.66073239688390       -1.15695283225711
N           -0.02928012880507        0.42551030542251       -1.46700504018916
H           -0.13933751782787       -1.49966472047916        1.33659768844413
C           -0.34205661230230       -0.62768208095269        0.71788848521626
O            0.17182531283702        1.71655362310191        0.84781259443923
C            0.20155733449305        0.62873701148803        1.48735262867151
H            0.16975708290788        1.26379571457040       -0.85616980099177
O            0.62927849778878        0.44358779522846        2.63489267533745
H           -1.03607666948174        0.43461227086023       -1.65975958127794
H           -1.41958956128685       -0.49822731410386        0.60996142191549
O           -0.34102374449807       -2.54620573505950        5.73603319861477
H           -0.44722453997687       -3.50455910594300        5.71417826951395
H           -1.07127856590298       -2.19549526011195        6.29131213211006
O            1.70951469789923        1.51247243647148       -6.06317335823728
H            1.94667502596554        0.67188079226980       -6.52066269626716
H            0.74791258940262        1.65571844857688       -6.28860593365734
O            1.80952177692941       -0.63956372833133       -3.76655046224706
H            1.89551022903845       -1.41821202982343       -4.31970146917695
H            2.55842024398417       -0.07745829786390       -3.93489678838760
O           -2.72203012974229       -1.21025160574535        4.68750066783882
H           -2.18281429684097       -0.45121756215531        4.85911265704459
H           -2.92863892592160       -1.23434935434627        3.74729683265637
O           -2.94279152489577       -2.90832833758280        2.09590229991639
H           -2.71245724965611       -2.53517868037233        1.21446172753840
H           -2.08663680781725       -3.08342325501434        2.51762670704935
O           -0.73635200322435       -0.54676203707990       -5.45975184058186
H           -1.65722809749532       -0.48485889605640       -5.73704449259061
H           -0.26790530117139       -0.96499504023504       -6.18841900080610
O            1.87612841332960       -2.72543437416575        3.80861214642751
H            2.32999939847468       -1.88155445564858        3.58993666489356
H            0.95000671140144       -2.43651850427367        4.04004445664529
34
 energy: -56.649235794678 gnorm: 0.086774873148 xtb: 6.7.1 (edcfbbe)
H            1.41104493332124       -0.77248408298360       -0.51819167239003
C            0.32828448185436       -0.75824462909394       -0.65173591732863
H            0.51087914046372        0.41389159561962       -2.35597614785401
H            0.02630073349050       -1.67297901605627       -1.16196358751156
N           -0.02583010774428        0.41523315807190       -1.47596711985613
H           -0.13735831511212       -1.50209540164066        1.33656914358146
C           -0.33562791989617       -0.63220900735561        0.71241429962417
O            0.20078665924843        1.71198714389879        0.80907743473103
C            0.22237152572548        0.62754775623304        1.46362522406631
H            0.16169106371893        1.24824278899683       -0.84975362096813
O            0.61067565440083        0.45683398526505        2.63537199350568
H           -1.02968770445352        0.41931113186487       -1.68673329967503
H           -1.41419965535725       -0.49415979515445        0.60488403885636
O           -0.34286733614037       -2.56408320296533        5.72483899390817
H           -0.44164616364295       -3.52750140520446        5.73783303560055
H           -1.05750941255096       -2.19956612490524        6.28303524461778
O            1.64558791760514        1.48245570478392       -6.02623971405722
H            2.00170450859031        0.75296861020315       -6.49612816166035
H            0.81710560833306        1.69585772892679       -6.35697202445756
O            1.81354025937985       -0.63759768850796       -3.68678456876587
H            1.88230158257772       -1.40814096383752       -4.26583034819723
H            2.55621727122950       -0.06478778436923       -3.90938101530300
O           -2.75849443707479       -1.19208192445963        4.70960099568564
H           -2.16649750797369       -0.42825793987667        4.81179489197700
H           -2.96799496879073       -1.27257963615689        3.75972917623602
O           -2.92862125644977       -2.93508335465386        2.06435506203852
H           -2.73090866715519       -2.51839510853123        1.22299189520803
H           -2.09242953330593       -3.07740485805482        2.51491978876316
O           -0.75616873673643       -0.54761383409033       -5.46440170566805
H           -1.68280550213990       -0.48872650121747       -5.72531616033729
H           -0.29892648227673       -0.97813077449660       -6.19488991144920
O            1.87529762668801       -2.72335069644999        3.79961898209325
H            2.33514849800719       -1.86573093737678        3.60899626834836
H            0.96690024217139       -2.42924493643172        4.04242650664432
34
 energy: -56.653846343249 gnorm: 0.046382429174 xtb: 6.7.1 (edcfbbe)
H            1.41243428917138       -0.78722351159987       -0.53389950103712
C            0.32885844371681       -0.76565267661766       -0.66148210081445
H            0.52792293583347        0.40708492934940       -2.35879058361489
H            0.02043532380544       -1.68204266227371       -1.16456665117377
N           -0.02062995794420        0.40577907136470       -1.48691211042247
H           -0.12761324716211       -1.49602598477744        1.32961252798813
C           -0.32926977418865       -0.62822816186724        0.70519895926610
O            0.21277738482258        1.70544091520750        0.81023960723147
C            0.23157114164622        0.62413168147659        1.45299639573265
H            0.16105509093516        1.23421271493999       -0.85079782663528
O            0.62070266585880        0.46688477130611        2.61930785813016
H           -1.02130100155491        0.40691605544804       -1.71128387862283
H           -1.40784528607150       -0.49690269542298        0.60574753949992
O           -0.36008268321871       -2.57213667297130        5.70926801157895
H           -0.42107889212225       -3.53302611016281        5.75388749494696
H           -1.02300993144086       -2.22006673037456        6.28847568816045
O            1.69337167762649        1.48395344715356       -6.03707289835490
H            1.98693260318820        0.75000536500129       -6.56260726571307
H            0.80200726125995        1.72224682175400       -6.28437377084872
O            1.81469522198876       -0.61906378857864       -3.63388576031035
H            1.86706596632829       -1.39103498392506       -4.20821422408078
H            2.55103168600664       -0.04023139888900       -3.89954350018384
O           -2.77422882996024       -1.18834338749171        4.71128146549212
H           -2.19181607572029       -0.42790158490604        4.80328970274494
H           -2.98797746560363       -1.27556370320684        3.77096569958085
O           -2.94061417632189       -2.90100946471365        2.07886460602776
H           -2.72157478002848       -2.53260075774428        1.21064680864069
H           -2.09175392218456       -3.08874212757884        2.50329117736764
O           -0.76790683550371       -0.53767791868246       -5.47994074044860
H           -1.70039847768921       -0.49201447309089       -5.72601194888986
H           -0.32753554673878       -0.99552927127851       -6.21008262439784
O            1.86501888893062       -2.67946192849128        3.83306784053200
H            2.34202790250822       -1.90898039312149        3.57559482512129
H            0.97499239983219       -2.41331538524200        4.06354717751381
34