46
 energy: -431.722293909886 gnorm: 0.000318509095 xtb: 6.7.1 (edcfbbe)
N       -0.4763254658     -0.9195411517      2.0939007635                 
C       -1.1886537226     -0.5815508624      0.8512976813                 
C       -0.2924454954      0.2388220159     -0.0710809425                 
C       -1.0726145968      0.8563168348     -1.2375819072                 
C       -1.6550586901     -0.2251682481     -2.1439157274                 
O       -2.7492104241     -0.7474906665     -1.8308817844                 
O       -1.0006589794     -0.5644663453     -3.1635891896                 
H        0.3875344348     -1.4419490241      1.8724617016                 
H       -0.2118301918     -0.0462189697      2.5992049450                 
H       -2.0835806205     -0.0050238147      1.0880498462                 
H       -1.5016882090     -1.4979033109      0.3502818632                 
H        0.5097356369     -0.3835005819     -0.4721801627                 
H        0.1565445955      1.0539917863      0.4983076632                 
H       -1.8963630052      1.4600452220     -0.8538581861                 
H       -0.4068985294      1.4799826752     -1.8353653194                 
H       -1.0847964559     -1.5110643371      2.7070587515                 
O       -3.0785131823     -3.3817572336     -1.1410288544                 
H       -2.9677160033     -2.4604793529     -1.4383167638                 
H       -3.7468005586     -3.7624092844     -1.7182220241                 
O       -2.8540225047     -4.2467555908      1.4925143347                 
H       -2.9726970600     -3.8754555450      0.6006561414                 
H       -2.4098584144     -5.0905868427      1.3696677868                 
O       -1.1313918963      0.0475878969     -5.9386683423                 
H       -1.2865066157     -0.8194323466     -6.3297283342                 
H       -1.1900348590     -0.0975409311     -4.9820961153                 
O        1.3355863997      0.7793527543     -3.8607099149                 
H        1.1762738343      0.9671957426     -4.7917398215                 
H        0.5634627154      0.2535751081     -3.5772695132                 
O       -4.2542457522      0.5234391351      0.1325789826                 
H       -5.1228494558      0.1138802034      0.1845509070                 
H       -3.7843458029      0.0696492052     -0.5925994924                 
O        0.2266891586      1.3894212351      3.4405226216                 
H        0.6536107326      1.1160132790      4.2724541751                 
H       -0.4373440040      2.0421458384      3.6773046965                 
O        1.8602016999     -2.3471383652      1.3855351944                 
H        2.7486180845     -2.0585264876      1.6121403151                 
H        1.8724280995     -3.3044514063      1.3018009111                 
O       -1.2453133287     -2.9326661521     -4.5942908021                 
H       -0.4166533319     -3.3963915109     -4.4362046259                 
H       -1.2089568275     -2.1290814409     -4.0417833922                 
O       -2.1815093301     -2.5144780891      3.5215477940                 
H       -2.9992479885     -2.1200750521      3.8366924373                 
H       -2.4363348967     -3.1705067106      2.8454837102                 
O       -4.9507877998     -0.2927707127     -4.0303322921                 
H       -5.4382261951      0.3199094009     -3.4703675228                 
H       -4.2266697512     -0.6449832188     -3.5043643117                 
