46
 energy: -75.145912693641 gnorm: 0.017255310067 xtb: 6.7.1 (edcfbbe)
N           -0.47632546580000       -0.91954115170000        2.09390076350000
C           -1.18865372260000       -0.58155086240000        0.85129768130000
C           -0.29244549540000        0.23882201590000       -0.07108094250000
C           -1.07261459680000        0.85631683480000       -1.23758190720000
C           -1.65505869010000       -0.22516824810000       -2.14391572740000
O           -2.74921042410000       -0.74749066650000       -1.83088178440000
O           -1.00065897940000       -0.56446634530000       -3.16358918960000
H            0.38753443480000       -1.44194902410000        1.87246170160000
H           -0.21183019180000       -0.04621896970000        2.59920494500000
H           -2.08358062050000       -0.00502381470000        1.08804984620000
H           -1.50168820900000       -1.49790331090000        0.35028186320000
H            0.50973563690000       -0.38350058190000       -0.47218016270000
H            0.15654459550000        1.05399178630000        0.49830766320000
H           -1.89636300520000        1.46004522200000       -0.85385818610000
H           -0.40689852940000        1.47998267520000       -1.83536531940000
H           -1.08479645590000       -1.51106433710000        2.70705875150000
O           -3.07851318230000       -3.38175723360000       -1.14102885440000
H           -2.96771600330000       -2.46047935290000       -1.43831676380000
H           -3.74680055860000       -3.76240928440000       -1.71822202410000
O           -2.85402250470000       -4.24675559080000        1.49251433470000
H           -2.97269706000000       -3.87545554500000        0.60065614140000
H           -2.40985841440000       -5.09058684270000        1.36966778680000
O           -1.13139189630000        0.04758789690000       -5.93866834230000
H           -1.28650661570000       -0.81943234660000       -6.32972833420000
H           -1.19003485900000       -0.09754093110000       -4.98209611530000
O            1.33558639970000        0.77935275430000       -3.86070991490000
H            1.17627383430000        0.96719574260000       -4.79173982150000
H            0.56346271540000        0.25357510810000       -3.57726951320000
O           -4.25424575220000        0.52343913510000        0.13257898260000
H           -5.12284945580000        0.11388020340000        0.18455090700000
H           -3.78434580290000        0.06964920520000       -0.59259949240000
O            0.22668915860000        1.38942123510000        3.44052262160000
H            0.65361073260000        1.11601327900000        4.27245417510000
H           -0.43734400400000        2.04214583840000        3.67730469650000
O            1.86020169990000       -2.34713836520000        1.38553519440000
H            2.74861808450000       -2.05852648760000        1.61214031510000
H            1.87242809950000       -3.30445140630000        1.30180091110000
O           -1.24531332870000       -2.93266615210000       -4.59429080210000
H           -0.41665333190000       -3.39639151090000       -4.43620462590000
H           -1.20895682750000       -2.12908144090000       -4.04178339220000
O           -2.18150933010000       -2.51447808910000        3.52154779400000
H           -2.99924798850000       -2.12007505210000        3.83669243730000
H           -2.43633489670000       -3.17050671060000        2.84548371020000
O           -4.95078779980000       -0.29277071270000       -4.03033229210000
H           -5.43822619510000        0.31990940090000       -3.47036752280000
H           -4.22666975120000       -0.64498321880000       -3.50436431170000
46
 energy: -75.147086938583 gnorm: 0.011802304968 xtb: 6.7.1 (edcfbbe)
N           -0.47860233966041       -0.92330255405952        2.08951657451806
C           -1.19440298556671       -0.58615735406172        0.84867073764582
C           -0.30034053249327        0.23393207444166       -0.07546134642575
C           -1.08211648940171        0.84958612206804       -1.24205612487470
C           -1.66329483735543       -0.22536484428087       -2.15790878117071
O           -2.77882457287028       -0.72768064205682       -1.87741057461588
O           -0.99955993851125       -0.56414204373649       -3.16974366340615
H            0.38490215425802       -1.44641173297418        1.86737062563520
H           -0.21302519356123       -0.05008964476693        2.59148683394542
H           -2.08851097819992       -0.00927059415153        1.08781632164358
H           -1.50755235254706       -1.50304852032107        0.34920864084649
H            0.50309352835339       -0.38723861813235       -0.47589488090543
H            0.14916817624827        1.05053444095670        0.49180038840698
H           -1.90362191116038        1.45706980728017       -0.85951671156156
H           -0.41204585200572        1.47209192950675       -1.83629683851673
H           -1.08523525684364       -1.51364921243074        2.70596159512525
O           -3.07856735805042       -3.37111637917553       -1.13622939293344
H           -2.97177329593236       -2.45223806192836       -1.44289662115939
H           -3.73816389840690       -3.76508312212886       -1.71478606915199
O           -2.85008474277698       -4.24511332084586        1.49379639356292
H           -2.97189396137839       -3.87602116799655        0.60147740348764
H           -2.40785195605448       -5.08992407648074        1.37164787792471
O           -1.11664682207418        0.04671321647875       -5.94144995110664
H           -1.29510962191162       -0.81458573048867       -6.33554697801624
H           -1.18354756057134       -0.09964584105484       -4.98601768900233
O            1.33502146277640        0.78350341116877       -3.85938567221395
H            1.18004630314288        0.96816342254432       -4.79178588664916
H            0.56563368738128        0.25180428863947       -3.58042645587671
O           -4.25762207011719        0.54564194271186        0.11380119487486
H           -5.10572434009913        0.09997445437255        0.22406757451859
H           -3.77935567449134        0.04158129522763       -0.57427099202874
O            0.22249371267985        1.38116344002985        3.45633327521052
H            0.66636760145332        1.14107066072796        4.28125185010877
H           -0.43815012325793        2.04342759755386        3.67886095228800
O            1.86014593256973       -2.34605212562130        1.38315664947053
H            2.74851151210435       -2.06081561504898        1.61429149063347
H            1.86940597726285       -3.30367418222473        1.30265298201967
O           -1.24762995124749       -2.93872518189723       -4.58489183418486
H           -0.41540055009452       -3.40143042626391       -4.44281166048598
H           -1.19539919038635       -2.12860372675656       -4.04367735100046
O           -2.18255483394777       -2.50924788508734        3.51924282750325
H           -3.00170032021348       -2.12195948983233        3.83975405988065
H           -2.43631053712421       -3.17095938066213        2.84806337677872
O           -4.95145040579414       -0.34469124251009       -3.99778871984764
H           -5.43186467980787        0.33986695075602       -3.50979958889454
H           -4.19031946731586       -0.58791759008779       -3.44633796090004
46
 energy: -75.147666379065 gnorm: 0.029007587108 xtb: 6.7.1 (edcfbbe)
N           -0.48250907312734       -0.93091363066180        2.08170203819281
C           -1.20416331782362       -0.59566185551914        0.84342053651652
C           -0.31465306735192        0.22312132478771       -0.08544907868674
C           -1.09926661616079        0.83995277132224       -1.24992729292468
C           -1.68543801980882       -0.21363315714419       -2.18782958002080
O           -2.82646143521845       -0.69263454496423       -1.94726999315009
O           -0.99661411903180       -0.57059926561661       -3.17481680183280
H            0.38038977749133       -1.45536221862732        1.85840256697013
H           -0.21485839561417       -0.05862571104061        2.57921907685481
H           -2.09579620608362       -0.01688344879358        1.08744787256903
H           -1.51866282860519       -1.51355840625298        0.34679890587000
H            0.48939302397196       -0.39676924752826       -0.48657669928159
H            0.13661262809435        1.04127780802014        0.47862724345349
H           -1.91710112708369        1.45147856546264       -0.86616875151934
H           -0.42433886228682        1.46168957088852       -1.83986302980686
H           -1.08647197148180       -1.51902752518325        2.70406501074222
O           -3.08005497490185       -3.34811608605052       -1.12774532482769
H           -2.98456226720204       -2.43573291532100       -1.45543925577779
H           -3.72366902066129       -3.76961343926047       -1.70652082480528
O           -2.84419114787532       -4.24297160010054        1.49606502362149
H           -2.96710959387666       -3.87516725702876        0.60350329630476
H           -2.40320218446421       -5.08842012285143        1.37505340902533
O           -1.09290767740765        0.04542730509264       -5.94488548753016
H           -1.30721954712130       -0.80476942365623       -6.34801581119215
H           -1.16894809596113       -0.10814267517447       -4.99156576467189
O            1.33572834610659        0.78867974321385       -3.85647993166192
H            1.18687694395024        0.96976342441142       -4.79064128685272
H            0.56950696340910        0.24962183040360       -3.58380276661997
O           -4.24007703956933        0.52902949573015        0.13478132022000
H           -5.08140700725953        0.07775222583971        0.26572728903002
H           -3.78702423500013        0.06308351996034       -0.59107285122492
O            0.21695268191504        1.37125401942107        3.48074931346471
H            0.68597844229161        1.17781838329610        4.29587960522145
H           -0.44143553240934        2.04405090955852        3.68225865781843
O            1.86171473254727       -2.34175807069157        1.37806969110206
H            2.74898306442350       -2.05983429306832        1.61776671463624
H            1.86861216831064       -3.29990444185863        1.30298441453254
O           -1.24800197613988       -2.95095628703803       -4.57459210470886
H           -0.41050343118757       -3.40967890409755       -4.44943737465002
H           -1.18226219955074       -2.13332195804230       -4.04629688135552
O           -2.18465128099960       -2.50219648817517        3.51695992734030
H           -3.00524404067029       -2.12510441190482        3.84632807917442
H           -2.43756068334305       -3.17060009664154        2.85169675958610
O           -4.91312820569363       -0.38768081462012       -3.95152602802700
H           -5.42253490803984        0.35670176059758       -3.56301918352749
H           -4.15818323650083       -0.53109961369263       -3.33072676649066
46
 energy: -75.148029560406 gnorm: 0.014482795751 xtb: 6.7.1 (edcfbbe)
N           -0.48595226575582       -0.93894318313623        2.07376745669640
C           -1.21237085450194       -0.60439811260628        0.83768575264452
C           -0.32649860505085        0.21381059199819       -0.09500954718573
C           -1.11314188685315        0.83400434675752       -1.25641125261472
C           -1.69982134724505       -0.20606166724093       -2.20850271979064
O           -2.86249283139381       -0.66027400429831       -1.99989745026352
O           -0.99531923622774       -0.57618991781744       -3.17856640898659
H            0.37664964755303       -1.46405264731071        1.84920313225330
H           -0.21691365417883       -0.06847252872619        2.56931879112371
H           -2.10243257035875       -0.02498002638824        1.08609720634634
H           -1.52829030413232       -1.52292936687914        0.34316313324263
H            0.47718990028001       -0.40521238134086       -0.49809217019007
H            0.12624554977487        1.03284851878298        0.46676810641419
H           -1.92913759830098        1.44617022392057       -0.86981923107980
H           -0.43658492672322        1.45654336013649       -1.84403708287543
H           -1.08810490882979       -1.52565820072125        2.70039462944802
O           -3.08130343737305       -3.32616020279070       -1.12224136536101
H           -3.00027858791130       -2.41898798448474       -1.46640113434780
H           -3.71276821092764       -3.77143758765188       -1.69855171970686
O           -2.84137656529904       -4.24176349311907        1.49726661502023
H           -2.96277089583567       -3.87238656785055        0.60533383881909
H           -2.40038287049228       -5.08709760180324        1.37615599270667
O           -1.07285497739530        0.04368563782319       -5.94866333035963
H           -1.31132810654973       -0.79706750687199       -6.36031881033570
H           -1.15682827936997       -0.11708641602831       -4.99719068233651
O            1.33505136035241        0.79652103334940       -3.85325437363020
H            1.19101212983323        0.97538870132269       -4.78866548686430
H            0.57243281809433        0.24979791623166       -3.58615128146957
O           -4.22881499848099        0.52305045673848        0.14712216171160
H           -5.06170398238035        0.06318371558833        0.30581973348901
H           -3.79465604070216        0.07082535948837       -0.59843172618285
O            0.21018180382286        1.36173361565553        3.50052631597151
H            0.70872424989707        1.21141765405260        4.30597795188151
H           -0.44601188986134        2.04173473712250        3.68739272159012
O            1.86529782517046       -2.33521738047212        1.37161701344500
H            2.75069439028768       -2.05333869621764        1.61861575488583
H            1.87322219831958       -3.29368793932304        1.30011497947928
O           -1.24780035255262       -2.96179198162739       -4.56831963863091
H           -0.40672252797689       -3.41665716920743       -4.45230938480127
H           -1.17656146673747       -2.13947641917587       -4.04826630796481
O           -2.18555078450616       -2.49942351642936        3.51624818718992
H           -3.00613317585897       -2.12827287026676        3.85256710337283
H           -2.43925329849528       -3.17025986392119        2.85354153772834
O           -4.84182029114367       -0.32707081479909       -3.94021631291526
H           -5.41555701062443        0.32893986101632       -3.53080490707543
H           -4.16862768636151       -0.55333493407992       -3.27673790939174
46
 energy: -75.148347203948 gnorm: 0.008990832583 xtb: 6.7.1 (edcfbbe)
N           -0.48641123441723       -0.93922714772767        2.07190743403757
C           -1.21098661167527       -0.60329446063997        0.83497120288627
C           -0.32413929681517        0.21545532016785       -0.09755238444255
C           -1.11086816754792        0.84115048059299       -1.25564681032351
C           -1.69347506731871       -0.20859134034424       -2.19549989664220
O           -2.83714235926473       -0.67360961524602       -1.95720178409344
O           -1.00157905280976       -0.58028878210052       -3.17336688631645
H            0.37658539741778       -1.46343442834067        1.84725110434427
H           -0.21822510790531       -0.07044417711413        2.57188942392258
H           -2.10213475442657       -0.02541375908805        1.08266517235497
H           -1.52758914426613       -1.52158344848805        0.34008057951045
H            0.47651809080466       -0.40511910322954       -0.50414329442137
H            0.12949089971818        1.03249026600042        0.46577965329562
H           -1.92993844257051        1.44592302990474       -0.86398122645341
H           -0.44186703956757        1.46768632245203       -1.84749253744272
H           -1.09024225653506       -1.52680981775681        2.69616959220217
O           -3.07995570106582       -3.32955963207479       -1.12462412544285
H           -3.00136344813106       -2.42229227842869       -1.46423958413054
H           -3.71415646724415       -3.77039901784150       -1.69856781285025
O           -2.84471789745920       -4.24369285848233        1.49733878522481
H           -2.95920504017333       -3.86843168936571        0.60711264314037
H           -2.39913469103946       -5.08650932903053        1.37451302935421
O           -1.07581325002580        0.04335279649516       -5.94825237834445
H           -1.30547363202746       -0.79632804706211       -6.36201137584217
H           -1.16186146672044       -0.11937008548646       -4.99686327672006
O            1.33434819148401        0.79416393289443       -3.85264027724581
H            1.18954220422802        0.97398840883551       -4.78769679597385
H            0.57019773003671        0.25068540008561       -3.58355901445828
O           -4.22843022849749        0.51727804893042        0.15666999073211
H           -5.06665662394902        0.06944413719269        0.29854321360685
H           -3.79803496596831        0.07402092778648       -0.59784119454126
O            0.20416511159990        1.36525026945388        3.49401203150456
H            0.71793015830905        1.21758005797798        4.29709534947071
H           -0.45267198429778        2.03861706179478        3.69159555654783
O            1.86400727830028       -2.33724070699062        1.37097333410004
H            2.74823453443854       -2.05259285002766        1.61868667966822
H            1.87421647664685       -3.29569438810000        1.29942430398105
O           -1.23974702055749       -2.96499647835981       -4.57434194781152
H           -0.39848873020532       -3.41482033904885       -4.44605755171895
H           -1.18649938805832       -2.14666259309060       -4.04729510340888
O           -2.18399638798013       -2.50548987868460        3.51997525326379
H           -3.00196556148261       -2.12767072427613        3.85392839936741
H           -2.44060255566827       -3.16927510640263        2.85180248289661
O           -4.87148444456417       -0.33255985184697       -3.94442339383358
H           -5.41324310957835        0.33078428952376       -3.51746269755680
H           -4.15659949617238       -0.53450406801377       -3.32378598429774
46
 energy: -75.148559815944 gnorm: 0.007980974969 xtb: 6.7.1 (edcfbbe)
N           -0.48859622757519       -0.94161585560420        2.06630110424768
C           -1.21415633915524       -0.60598725667568        0.82956331868971
C           -0.32767233764463        0.21274516153214       -0.10371155858069
C           -1.11583999310982        0.84265007078801       -1.25833067513209
C           -1.69539184770185       -0.21037266898171       -2.19519802727418
O           -2.84361743558809       -0.66392401949745       -1.95988744432637
O           -1.00425395017999       -0.58562505358946       -3.17233819604269
H            0.37492082813044       -1.46487777758400        1.84095408609749
H           -0.22117061567252       -0.07448532297956        2.56909912127697
H           -2.10575585057601       -0.02905857142661        1.07754252862694
H           -1.53131324103355       -1.52445240848571        0.33509712011171
H            0.46974674575910       -0.40923103997730       -0.51442179581296
H            0.12856946252647        1.02755504276152        0.46045027727551
H           -1.93653244936552        1.44263713383308       -0.86278951986805
H           -0.44985782319593        1.47361391784168       -1.84912415241582
H           -1.09247453756337       -1.52959616468896        2.69050728808431
O           -3.07947872991841       -3.31772322831989       -1.12308244724141
H           -3.01286085730498       -2.41201943141967       -1.46821742300066
H           -3.70793488693211       -3.77007678198415       -1.69450606829193
O           -2.84382810487661       -4.24364301891427        1.49783113377379
H           -2.95510501259636       -3.86313452901003        0.60953889880318
H           -2.39446603848581       -5.08418319930050        1.37247719965053
O           -1.06860899040783        0.04301379498877       -5.94957805785141
H           -1.30386249071827       -0.79091944539683       -6.37064734100686
H           -1.15773927252773       -0.12604306705140       -4.99937627475179
O            1.33371588122550        0.79562152188480       -3.84987217059789
H            1.19055819642471        0.97373203258617       -4.78553652558180
H            0.57050852963336        0.25095631479885       -3.58113814230186
O           -4.22770986053612        0.52096043555819        0.16013355746549
H           -5.05932046739830        0.06300077412111        0.32138146735098
H           -3.80426445600902        0.07140809004548       -0.59488313103863
O            0.20193535185039        1.36917057934557        3.49390564703835
H            0.72424353580034        1.22582079478829        4.29198573673564
H           -0.45980622020992        2.03487792555297        3.69588319890660
O            1.86300456777073       -2.33788756620318        1.36727092707710
H            2.74529658030957       -2.05092697854684        1.61930308521631
H            1.87533665864445       -3.29651707863526        1.29776326784115
O           -1.23180917725333       -2.97380563285780       -4.57621489404502
H           -0.38835093918248       -3.41783810728585       -4.44313623837131
H           -1.18942935277242       -2.15632912414954       -4.04716888071930
O           -2.18207200467611       -2.50877505175247        3.52262365161954
H           -2.99766079342047       -2.12802926777896        3.85869514420492
H           -2.44224212021622       -3.16882086411445        2.85216215293775
O           -4.86030889683329       -0.35148187266352       -3.92744946562067
H           -5.41288213594037        0.33949484874793       -3.54035915115009
H           -4.14092743449955       -0.50791330690003       -3.28566445090836
46
 energy: -75.148663482674 gnorm: 0.006943759964 xtb: 6.7.1 (edcfbbe)
N           -0.49080993465736       -0.94396685494219        2.06021183760868
C           -1.21684293463631       -0.60862658781867        0.82364799388226
C           -0.32990465132532        0.20992063562510       -0.10929608281357
C           -1.12075549571656        0.84359693958108       -1.26009948368500
C           -1.70393243385567       -0.20493610029521       -2.20031362309592
O           -2.85628770849396       -0.65197032520691       -1.96742128296280
O           -1.00682147589773       -0.59081202425250       -3.16972415100424
H            0.37322500299505       -1.46641746535378        1.83440260220366
H           -0.22431695770080       -0.07786413656143        2.56437597870510
H           -2.10834974414145       -0.03148556641946        1.07146552759039
H           -1.53407533079800       -1.52730459643027        0.32951119572032
H            0.46401831784324       -0.41358233209112       -0.52433698118510
H            0.13053559091589        1.02138362847418        0.45628426734374
H           -1.94125853640499        1.44116984448561       -0.86077933931571
H           -0.45569641091277        1.47825256797157       -1.84789384516934
H           -1.09419037357808       -1.53214296411057        2.68480327488510
O           -3.08043183125751       -3.30530868630213       -1.11967073456985
H           -3.01954412324344       -2.40178280166488       -1.47163987555180
H           -3.70094228556888       -3.76783544341554       -1.69203762554411
O           -2.84066937494407       -4.24229194746017        1.49836536563773
H           -2.95436735990160       -3.85951753044927        0.61155102055614
H           -2.38921412779294       -5.08132393003261        1.37039664530047
O           -1.05770002796784        0.04200683967921       -5.94985053970239
H           -1.30506503455669       -0.78477179099121       -6.37972439817960
H           -1.15177144517067       -0.13411124871668       -5.00138717866326
O            1.33134866515943        0.79685458592049       -3.84620750936886
H            1.19057367062900        0.97214815157790       -4.78280825933309
H            0.57001784656406        0.24938010011429       -3.57868485547454
O           -4.22705339592114        0.52035401047463        0.17099053948944
H           -5.05430213187314        0.05810368018755        0.33977758436995
H           -3.80889337489079        0.07275691284976       -0.58801800373089
O            0.20091940022584        1.37184305968042        3.49366225617923
H            0.72607368027150        1.23114575222326        4.28682932805510
H           -0.46530361287517        2.03260359729278        3.69798438517453
O            1.86171386358312       -2.33837944389339        1.36350755764744
H            2.74190856974940       -2.04885747837544        1.62008348498957
H            1.87651361943111       -3.29715373890638        1.29616953951394
O           -1.22393320264841       -2.98389975231922       -4.57418134477373
H           -0.37720992628236       -3.42254360549292       -4.44199410973500
H           -1.18607362977792       -2.16563483431151       -4.04590052373822
O           -2.17961233945189       -2.50958282933830        3.52345588867764
H           -2.99373505350330       -2.12930801632159        3.86403049170228
H           -2.44262740665804       -3.17021099367732        2.85440109496584
O           -4.86055598046808       -0.36053065590353       -3.91170540747271
H           -5.39606738745110        0.35493688069284       -3.54213530098668
H           -4.13799774004604       -0.50233875837717       -3.27225952304233
46
 energy: -75.148756431378 gnorm: 0.007140481097 xtb: 6.7.1 (edcfbbe)
N           -0.49364171846276       -0.94849715203947        2.05188301492909
C           -1.21842630300650       -0.61210251187894        0.81510322883598
C           -0.33029548538664        0.20674734678837       -0.11655597650645
C           -1.12502940609794        0.84661709945941       -1.26113072454189
C           -1.71005335191424       -0.20220597857338       -2.20017881970274
O           -2.86936234019549       -0.63713366904501       -1.97002160463559
O           -1.01336175077884       -0.59496575376379       -3.16632969947644
H            0.37114560869307       -1.46970403397532        1.82559827743013
H           -0.22892377779588       -0.08381725433692        2.55802109699201
H           -2.10984829690638       -0.03442921380229        1.06204999563215
H           -1.53550056460865       -1.53066360540633        0.32063985871584
H            0.45848576499285       -0.41867034251948       -0.53843891024952
H            0.13636990647527        1.01315029660969        0.45103341095138
H           -1.94590891189992        1.44008832991961       -0.85639363563634
H           -0.46301775691231        1.48595869655951       -1.84699427060649
H           -1.09662180899788       -1.53725953733379        2.67618803944125
O           -3.08217085466713       -3.28869611495401       -1.11584134653646
H           -3.02883143548354       -2.38680859761128       -1.47308512025051
H           -3.69303690130647       -3.76140987958920       -1.68977081915360
O           -2.83674394391454       -4.24025977526435        1.49854643672109
H           -2.95352839880145       -3.85351253630090        0.61407402637605
H           -2.38075622661410       -5.07620619812391        1.36631177151398
O           -1.04514475257233        0.04148024248093       -5.95029517896462
H           -1.30199376200510       -0.77623921761252       -6.39138304242242
H           -1.14310027356003       -0.14388407894272       -5.00424894611825
O            1.32701900762410        0.79641045735626       -3.84050288531756
H            1.18719690318715        0.96812357001583       -4.77786962012799
H            0.56771327876270        0.24728687830630       -3.57227067322038
O           -4.22796545264638        0.51885236201085        0.18908804641249
H           -5.04960329706082        0.05085488447290        0.36366498176987
H           -3.81634489054939        0.07908862919538       -0.57774866402599
O            0.19204034674201        1.37218123062503        3.48988633613556
H            0.73818009923621        1.24723280062624        4.27362704569392
H           -0.47641207384068        2.02898794954429        3.70205759154308
O            1.85961514927925       -2.33975861269243        1.35787049321989
H            2.73645375702674       -2.04589032067454        1.62110314708570
H            1.87862182224523       -3.29864793387379        1.29325501018878
O           -1.21004747030541       -2.99766583742596       -4.56975067588766
H           -0.35967920486050       -3.43041725197663       -4.43939228600300
H           -1.17655169334372       -2.17905320058388       -4.04171434304443
O           -2.17494842899540       -2.51166184519432        3.52506236159424
H           -2.98696960596236       -2.13218763946521        3.87204186161760
H           -2.44178840668030       -3.17351605121815        2.85832682543343
O           -4.86734373891746       -0.36666773100884       -3.89819320427264
H           -5.38151484563404        0.37462012661466       -3.54875970086852
H           -4.14783906658207       -0.50378427799854       -3.26072482956424
46
 energy: -75.148852999947 gnorm: 0.005914813125 xtb: 6.7.1 (edcfbbe)
N           -0.49558828237588       -0.95252412735049        2.04363228565810
C           -1.21768953734200       -0.61530222085786        0.80589243997353
C           -0.32840158821708        0.20388658188906       -0.12461696458558
C           -1.12769442480646        0.85231578335080       -1.26116946152780
C           -1.71795022533985       -0.19494533357886       -2.19925360275970
O           -2.87741294245823       -0.62493552206491       -1.96242180766325
O           -1.02237880070606       -0.59869636174789       -3.16104002795780
H            0.36994595282652       -1.47270184279258        1.81739893133901