16
	Energy:      -9.7972361
N          1.18186        0.06174        0.71433
C          2.15200       -0.05060       -0.37321
C          1.62429        0.63314       -1.64632
C          2.58523        0.50738       -2.83925
C          3.88219        1.26061       -2.68575
O          4.14119        2.00679       -1.59485
O          4.70608        1.21695       -3.58403
H          1.00536        1.06840        0.93577
H          0.28516       -0.40455        0.44669
H          2.34088       -1.12644       -0.58389
H          3.10710        0.40784       -0.04693
H          1.40906        1.70568       -1.45058
H          0.67113        0.13615       -1.92849
H          2.79918       -0.56774       -3.01631
H          2.07390        0.90852       -3.74035
H          1.56514       -0.40831        1.56488
