
                                 *****************
                                 * O   R   C   A *
                                 *****************

                                            #,                                       
                                            ###                                      
                                            ####                                     
                                            #####                                    
                                            ######                                   
                                           ########,                                 
                                     ,,################,,,,,                         
                               ,,#################################,,                 
                          ,,##########################################,,             
                       ,#########################################, ''#####,          
                    ,#############################################,,   '####,        
                  ,##################################################,,,,####,       
                ,###########''''           ''''###############################       
              ,#####''   ,,,,##########,,,,          '''####'''          '####       
            ,##' ,,,,###########################,,,                        '##       
           ' ,,###''''                  '''############,,,                           
         ,,##''                                '''############,,,,        ,,,,,,###''
      ,#''                                            '''#######################'''  
     '                                                          ''''####''''         
             ,#######,   #######,   ,#######,      ##                                
            ,#'     '#,  ##    ##  ,#'     '#,    #''#        ,####,   ,####,        
            ##       ##  ##   ,#'  ##            #'  '#       #'       #'  '#        
            ##       ##  #######   ##           ,######,      #####,   #    #        
            '#,     ,#'  ##    ##  '#,     ,#' ,#      #,     #,   #   #,  ,#        
             '#######'   ##     ##  '#######'  #'      '#     '####' # '####'        



                #########################################################
                #                        -***-                          #
                #          Department of theory and spectroscopy        #
                #                                                       #
                #                      Frank Neese                      #
                #                                                       #
                #     Directorship, Architecture, Infrastructure        #
                #                    SHARK, DRIVERS                     #
                #        Core code/Algorithms in most modules           #
                #                                                       #
                #        Max Planck Institute fuer Kohlenforschung      #
                #                Kaiser Wilhelm Platz 1                 #
                #                 D-45470 Muelheim/Ruhr                 #
                #                      Germany                          #
                #                                                       #
                #                  All rights reserved                  #
                #                        -***-                          #
                #########################################################


                         Program Version 6.0.1  -  RELEASE   -


 With contributions from (in alphabetic order):
[Max-Planck-Institut fuer Kohlenforschung]                               
  Daniel Aravena         : Magnetic Suceptibility                        
  Michael Atanasov       : Ab Initio Ligand Field Theory (pilot matlab implementation)
  Alexander A. Auer      : GIAO ZORA, VPT2 properties, NMR spectrum      
  Ute Becker             : All parallelization in ORCA, NUMFREQ, NUMCALC 
  Giovanni Bistoni       : ED, misc. LED, open-shell LED, HFLD           
  Martin Brehm           : Molecular dynamics                            
  Dmytro Bykov           : pre 5.0 version of the SCF Hessian            
  Marcos Casanova-Páez   : Triplet and SCS-CIS(D). UHF-(DLPNO)-IP/EA/STEOM-CCSD. UHF-CVS-IP/STEOM-CCSD   
  Vijay G. Chilkuri      : MRCI spin determinant printing, contributions to CSF-ICE 
  Pauline Colinet        : FMM embedding                                 
  Dipayan Datta          : RHF DLPNO-CCSD density                        
  Achintya Kumar Dutta   : EOM-CC, STEOM-CC                              
  Nicolas Foglia         : Exact transition moments, OPA infrastructure, MCD improvements    
  Dmitry Ganyushin       : Spin-Orbit,Spin-Spin,Magnetic field MRCI      
  Miquel Garcia-Rates    : C-PCM and meta-GGA Hessian, CCSD/C-PCM, Gaussian charge scheme 
  Tiago L. C. Gouveia    : GS-ROHF, GS-ROCIS                             
  Yang Guo               : DLPNO-NEVPT2, F12-NEVPT2, CIM, IAO-localization        
  Andreas Hansen         : Spin unrestricted coupled pair/coupled cluster methods 
  Ingolf Harden          : AUTO-CI MPn and infrastructure                
  Benjamin Helmich-Paris : MC-RPA, TRAH-(SCF,CASSCF), AVAS, COSX integrals, SCF dyn. polar. 
  Lee Huntington         : MR-EOM, pCC                                   
  Robert Izsak           : Overlap fitted RIJCOSX, COSX-SCS-MP3, EOM     
  Riya Kayal             : Wick's Theorem for AUTO-CI, AUTO-CI UHF-CCSDT 
  Emily Kempfer          : AUTO-CI, RHF CISDT and CCSDT                  
  Christian Kollmar      : KDIIS, OOCD, Brueckner-CCSD(T), CCSD density, CASPT2, CASPT2-K, improved NEVPT2 
  Axel Koslowski         : Symmetry handling                             
  Simone Kossmann        : meta-GGA functionals, TD-DFT gradient, OOMP2, (MP2 Hessian; deprecated post 5.0) 
  Lucas Lang             : DCDCAS                                        
  Marvin Lechner         : AUTO-CI (C++ implementation), FIC-MRCC        
  Spencer Leger          : CASSCF response                               
  Dagmar Lenk            : GEPOL surface, SMD, ORCA-2-JSON               
  Dimitrios Liakos       : Extrapolation schemes; Compound Job, initial MDCI parallelization 
  Dimitrios Manganas     : Further ROCIS development; embedding schemes. LFT, Crystal Embedding 
  Dimitrios Pantazis     : SARC Basis sets                               
  Anastasios Papadopoulos: AUTO-CI, single reference methods and gradients 
  Taras Petrenko         : pre 6.0 DFT Hessian and TD-DFT gradient, (ASA, deprecated), ECA, 1-Electron XAS/XES, NRVS 
  Peter Pinski           : DLPNO-MP2, DLPNO-MP2 Gradient                 
  Christoph Reimann      : Effective Core Potentials                     
  Marius Retegan         : Local ZFS, SOC                                
  Christoph Riplinger    : Optimizer, TS searches, QM/MM, DLPNO-CCSD(T), (RO)-DLPNO pert. Triples 
  Michael Roemelt        : Original ROCIS implementation                 
  Masaaki Saitow         : Open-shell DLPNO-CCSD energy and density      
  Barbara Sandhoefer     : DKH picture change effects                    
  Kantharuban Sivalingam : CASSCF convergence/infrastructure, NEVPT2 and variants, FIC-MRCI 
  Bernardo de Souza      : ESD, SOC TD-DFT                               
  Georgi L. Stoychev     : AutoAux, RI-MP2 NMR, DLPNO-MP2 response, X2C  
  Van Anh Tran           : RI-MP2 g-tensors                              
  Willem Van den Heuvel  : Paramagnetic NMR                              
  Zikuan Wang            : NOTCH, Electric field optimization            
  Frank Wennmohs         : Technical directorship and infrastructure     
  Hang Xu                : AUTO-CI-Response properties                   
                                                                         
[FACCTs GmbH]                                                            
  Markus Bursch, Miquel Garcia-Rates, Christoph Riplinger, Bernardo de Souza, Georgi L. Stoychev 
                                                                 
  APM, Basis sets (HGBS, AHGBS, def-TZVP (Ac-Lr), def2-XVPD (La-Lu)), CI-OPT, improved COSX, DLPNO-Multilevel,           
  DOCKER, DRACO, updates on ESD, GOAT, IRC, LR-CPCM, MBIS, meta-GGA TD-DFT gradient, ML-optimized integration grids, 
  MM, NACMEs, nearIR, NEB, NEB-TS, NL-DFT gradient (VV10), 2- and 3-layer-ONIOM, interface openCOSMO-RS, QMMM,   
  Crystal-QMMM, SF, symmetry and pop. for TD-DFT, r2SCAN hybrids, SOLVATOR                                   
                                                                         
[Other institutions]                                                     
  V. Asgeirsson          : NEB                                           
  Christoph Bannwarth    : sTDA-DFT, sTD-DFT, PBEh-3c, B97-3c, D3        
  Sebastian Ehlert       : rSCAN, r2SCAN, r2SCAN-3c, D4, dhf basis sets  
  Marvin Friede          : D4 for Fr, Ra, Ac-Lr                          
  Lars Goerigk           : TD-DFT with DH, B97 family of functionals     
  Stefan Grimme          : VdW corrections, initial TS optimization, DFT functionals, gCP, sTDA/sTD-DF 
  Waldemar Hujo          : DFT-NL                                        
  H. Jonsson             : NEB                                           
  Holger Kruse           : gCP                                           
  Marcel Mueller         : wB97X-3c, vDZP basis set                      
  Hagen Neugebauer       : wr2SCAN                                       
  Tobias Risthaus        : range-separated hybrid DFT                    
  Lukas Wittmann         : regularized MP2, r2SCAN double-hybrids, wr2SCAN        
                                                                         
We gratefully acknowledge several colleagues who have allowed us to      
interface, adapt or use parts of their codes:                            
  Ed Valeev, F. Pavosevic, A. Kumar             : LibInt (2-el integral package), F12 methods 
  Garnet Chan, S. Sharma, J. Yang, R. Olivares  : DMRG                   
  Ulf Ekstrom                                   : XCFun DFT Library      
  Mihaly Kallay                                 : mrcc  (arbitrary order and MRCC methods)
  Frank Weinhold                                : gennbo (NPA and NBO analysis)           
  Simon Mueller                                 : openCOSMO-RS                            
  Christopher J. Cramer and Donald G. Truhlar   : smd solvation model                     
  S Lehtola, MJT Oliveira, MAL Marques          : LibXC Library                           
  Liviu Ungur et al                             : ANISO software                          


 Your calculation uses the libint2 library for the computation of 2-el integrals
 For citations please refer to: http://libint.valeyev.net

 Your ORCA version has been built with support for libXC version: 6.2.2
 For citations please refer to: https://libxc.gitlab.io

 This ORCA versions uses:
   CBLAS   interface :  Fast vector & matrix operations
   LAPACKE interface :  Fast linear algebra routines
   SCALAPACK package :  Parallel linear algebra routines
   Shared memory     :  Shared parallel matrices
   BLAS/LAPACK       :  OpenBLAS 0.3.27  USE64BITINT DYNAMIC_ARCH NO_AFFINITY SkylakeX SINGLE_THREADED
        Core in use  :  SkylakeX
   Copyright (c) 2011-2014, The OpenBLAS Project


NOTE: MaxCore=5000 MB was set to SCF,MP2,MDCI,CIPSI,MRCI and CIS
      => If you want to overwrite this, your respective input block should be placed after the MaxCore statement
Your calculation utilizes the atom-pairwise dispersion correction
based on EEQ partial charges (D4)


Warning: RI is on but no J-basis has been assigned. Assigning Def2/J (nothing to worry about!)
================================================================================

----- Orbital basis set information -----
Your calculation utilizes the basis: def2-TZVP
   F. Weigend and R. Ahlrichs, Phys. Chem. Chem. Phys. 7, 3297 (2005).

----- AuxJ basis set information -----
Your calculation utilizes the auxiliary basis: def2/J
   F. Weigend, Phys. Chem. Chem. Phys. 8, 1057 (2006).

================================================================================
                                        WARNINGS
                       Please study these warnings very carefully!
================================================================================

WARNING: Old DensityContainer found on disk!
         Will remove this file - 
         If you want to keep old densities, please start your calculation with a different basename. 


WARNING: Geometry Optimization
  ===> : Switching off AutoStart
         For restart on a previous wavefunction, please use MOREAD

================================================================================
                                       INPUT FILE
================================================================================
NAME = 00_Aminobutyric-acid_zwitterion.inp
|  1> ! Opt B3LYP D4 def2-TZVP TightSCF TightOpt CPCM(water)
|  2> 
|  3> %maxcore 5000
|  4> 
|  5> %pal
|  6> nprocs 10
|  7> end
|  8> 
|  9> %geom
| 10> 	MaxIter 1000
| 11> end
| 12> 
| 13> * xyz 0 1
| 14>   N           1.28796856212326     -0.84722755630792     -0.18127554530095
| 15>   C           2.66664198728189     -0.79778988394859     -0.75963075615379
| 16>   C           2.74799035633889      0.14366663668218     -1.94809091937308
| 17>   C           4.09128759862615     -0.00821927318606     -2.66045917049258
| 18>   C           4.26433740742520      1.01563589441627     -3.77125995011380
| 19>   O           3.34180813119318      1.15800792614415     -4.60996117912500
| 20>   O           5.34143469114639      1.69203821183295     -3.79891531781027
| 21>   H           0.87828953913438      0.09070071433937     -0.04159815570221
| 22>   H           0.65471412556369     -1.35494366998471     -0.79734162798243
| 23>   H           2.91298904203218     -1.81714879586440     -1.05067936859466
| 24>   H           3.33325661188579     -0.47601840353752      0.04153027404979
| 25>   H           2.62314213681661      1.17374715480840     -1.60464981309911
| 26>   H           1.93651090150156     -0.06360283861333     -2.64770792189086
| 27>   H           4.15124906873429     -1.00214745794952     -3.11399435184519
| 28>   H           4.91372962956579      0.09766193799032     -1.95514695285335
| 29>   H           1.32081519524961     -1.33027572999771      0.73692425294737
| 30>   O           2.53896926109566      3.87451518910076     -4.20482934669134
| 31>   H           3.03603340542672      3.98214643528871     -3.37119624915378
| 32>   H           2.66427654957449      2.92862575055166     -4.41684947779773
| 33>   O           5.11783934112877      3.89530294580502     -5.60197812989931
| 34>   H           5.31065414014472      3.08588644268360     -5.08715611443031
| 35>   H           4.23571000724756      4.14190084205539     -5.26925861661928
| 36>   O           7.20405279154143     -0.59713039026117     -0.17007010282685
| 37>   H           8.12491659697191     -0.70920712614914      0.10581912513363
| 38>   H           7.24226970676390      0.03333220424794     -0.93206479271486
| 39>   O           5.69185012220690      0.41436829326080      1.84800426121424
| 40>   H           6.27654672798906      0.05228068563090      1.13550046336067
| 41>   H           6.13975324080398      1.18624263040322      2.21271428038182
| 42>   O          -0.88050141893463     -0.49610480923997      3.02524946931351
| 43>   H          -0.08526097604931     -1.02776886399300      2.83395815918544
| 44>   H          -0.74527459879834      0.34235645362350      2.57048557008809
| 45>   O           7.49388184648577      1.16660202449333     -2.26616940573374
| 46>   H           6.70065388003605      1.32726466272898     -2.83748246160739
| 47>   H           8.17334621512040      0.82248992178672     -2.85817692459397
| 48>   O           4.38185013628027      2.74453688433987      0.36955414428644
| 49>   H           4.98676046444304      1.98903880340579      0.35743562375652
| 50>   H           3.56764063768059      2.36478557913385      0.77139314052005
| 51>   O           2.33879872655503     -3.55220616489909     -2.75349085951207
| 52>   H           3.15333837059645     -3.35778766685398     -3.23261426765618
| 53>   H           1.62991041805814     -3.38569866364965     -3.38601029836281
| 54>   O           4.49235862750427      3.91315749728616     -2.13981431361564
| 55>   H           4.92048546202140      3.21031009401371     -2.65429060641063
| 56>   H           4.36878020145407      3.51692068764175     -1.24969550089612
| 57>   O          -0.06785182827249      1.73755942121627     -0.02437387924649
| 58>   H           0.12197248439627      2.08975425904000     -0.90353817009503
| 59>   H          -1.02863690478666      1.67360584381259      0.03582540604148
| 60>   O           1.55043543903834     -0.80629127241067     -5.27706407898718
| 61>   H           2.04652785548020     -1.63204794770208     -5.26347341318010
| 62>   H           2.20017547067911     -0.11954027496376     -5.00513401434063
| 63>   O           2.20636946178726      1.73209925758328      1.60631171690614
| 64>   H           1.26319554898112      1.83560437704941      1.40999579342612
| 65>   H           2.32582526232088      1.08238698580297      2.31735705941000
| 66>   H           4.26755560749433     -0.10672491007888      2.74847709239115
| 67>   O           3.42298296566301     -0.29295139841755      3.22531513626210
| 68>   H           3.59345489306013     -0.13749140600382      4.16385900527391
| 69>   O           1.46035161611503     -1.96872933198544      2.39658921593540
| 70>   H           2.25462681088839     -1.51784692098419      2.76467936886643
| 71>   H           1.57997356314008     -2.91854391967459      2.51735009132619
| 72> *
| 73> 
| 74>                          ****END OF INPUT****
================================================================================

                       *****************************
                       * Geometry Optimization Run *
                       *****************************

Geometry optimization settings:
Update method            Update   .... BFGS
Choice of coordinates    CoordSys .... (2022) Redundant Internals
Initial Hessian          InHess   .... Almloef's Model
Max. no of cycles        MaxIter  .... 1000

Convergence Tolerances:
Energy Change            TolE     ....  1.0000e-06 Eh
Max. Gradient            TolMAXG  ....  1.0000e-04 Eh/bohr
RMS Gradient             TolRMSG  ....  3.0000e-05 Eh/bohr
Max. Displacement        TolMAXD  ....  1.0000e-03 bohr
RMS Displacement         TolRMSD  ....  6.0000e-04 bohr
Strict Convergence                .... False

------------------------------------------------------------------------------
                        ORCA OPTIMIZATION COORDINATE SETUP
------------------------------------------------------------------------------

The optimization will be done in redundant internal coordinates (2022)
Making redundant internal coordinates   ...  (2022 redundants) done
Evaluating the initial hessian          ...  (Almloef) done
Evaluating the coordinates              ...  done
Calculating the B-matrix                .... done
Calculating the G-matrix                .... done
Diagonalizing the G-matrix              .... done
Small eigenvalue found = 1.805e-02
Small eigenvalue found = 2.823e-02
The first mode is                       ....  413
The number of degrees of freedom        ....  168

    -----------------------------------------------------------------
                    Redundant Internal Coordinates


    -----------------------------------------------------------------
         Definition                    Initial Value    Approx d2E/dq
    -----------------------------------------------------------------
      1. B(C   1,N   0)                  1.4959         0.379262   
      2. B(C   2,C   1)                  1.5184         0.389906   
      3. B(C   3,C   2)                  1.5281         0.376239   
      4. B(C   4,C   3)                  1.5206         0.386757   
      5. B(O   5,C   4)                  1.2549         0.919251   
      6. B(O   6,C   4)                  1.2722         0.862703   
      7. B(H   7,N   0)                  1.0330         0.397672   
      8. B(H   8,N   0)                  1.0190         0.418663   
      9. B(H   9,N   0)                  2.0826         0.008412   
     10. B(H   9,C   1)                  1.0883         0.362300   
     11. B(H  10,C   1)                  1.0908         0.359088   
     12. B(H  11,C   2)                  1.0930         0.356180   
     13. B(H  12,C   2)                  1.0913         0.358392   
     14. B(H  13,C   3)                  1.0942         0.354641   
     15. B(H  14,C   3)                  1.0886         0.361934   
     16. B(H  15,N   0)                  1.0380         0.390369   
     17. B(H  17,O  16)                  0.9765         0.489330   
     18. B(H  18,O   5)                  1.9056         0.016117   
     19. B(H  18,O  16)                  0.9774         0.487714   
     20. B(H  20,O   6)                  1.8982         0.016560   
     21. B(H  20,O  19)                  0.9785         0.485873   
     22. B(H  21,O  16)                  2.0208         0.010559   
     23. B(H  21,O  19)                  0.9745         0.492970   
     24. B(H  21,H  18)                  2.1606         0.001350   
     25. B(H  21,H  17)                  2.2511         0.000968   
     26. B(H  23,O  22)                  0.9678         0.505240   
     27. B(H  24,O  22)                  0.9897         0.466147   
     28. B(H  26,O  25)                  0.9903         0.465232   
     29. B(H  26,O  22)                  1.7282         0.030933   
     30. B(H  27,O  25)                  0.9641         0.512250   
     31. B(H  29,O  28)                  0.9755         0.491115   
     32. B(H  30,O  28)                  0.9634         0.513527   
     33. B(O  31,H  24)                  1.7685         0.026676   
     34. B(H  32,O  31)                  0.9907         0.464557   
     35. B(H  32,O   6)                  1.7044         0.033757   
     36. B(H  33,O  31)                  0.9647         0.511141   
     37. B(H  33,H  24)                  2.2803         0.000870   
     38. B(H  35,O  34)                  0.9679         0.505073   
     39. B(H  35,O  25)                  2.2800         0.004073   
     40. B(H  35,H  27)                  2.3272         0.000732   
     41. B(H  36,O  34)                  0.9842         0.475750   
     42. B(O  37,H   9)                  2.4979         0.001829   
     43. B(O  37,H  13)                  3.1492         0.000167   
     44. B(H  38,O  37)                  0.9648         0.510874   
     45. B(H  38,H   9)                  2.6818         0.000199   
     46. B(H  38,H  13)                  2.5610         0.000310   
     47. B(H  39,O  37)                  0.9645         0.511365   
     48. B(H  39,H   9)                  3.0920         0.000044   
     49. B(O  40,H  17)                  1.9084         0.015954   
     50. B(H  41,O   6)                  1.9474         0.013822   
     51. B(H  41,H  17)                  2.1589         0.001359   
     52. B(H  41,H  20)                  2.4671         0.000438   
     53. B(H  41,O  40)                  0.9706         0.500185   
     54. B(H  42,H  35)                  2.3020         0.000803   
     55. B(H  42,O  34)                  1.7941         0.024280   
     56. B(H  42,O  40)                  0.9821         0.479351   
     57. B(O  43,H   7)                  1.8994         0.016491   
     58. B(H  44,H   7)                  2.3046         0.000796   
     59. B(H  44,O  43)                  0.9659         0.508768   
     60. B(H  45,O  43)                  0.9648         0.510885   
     61. B(O  46,H  39)                  3.1993         0.000139   
     62. B(H  47,O  37)                  3.1737         0.000153   
     63. B(H  47,H  38)                  2.8858         0.000094   
     64. B(H  47,H  39)                  2.6026         0.000266   
     65. B(H  47,O  46)                  0.9634         0.513476   
     66. B(H  48,O   5)                  1.7583         0.027691   
     67. B(H  48,O  46)                  0.9837         0.476539   
     68. B(O  49,H  36)                  1.7177         0.032146   
     69. B(H  50,O  49)                  0.9689         0.503171   
     70. B(H  50,O  43)                  1.9593         0.013234   
     71. B(H  51,O  49)                  0.9706         0.500177   
     72. B(H  52,O  25)                  1.7638         0.027136   
     73. B(O  53,H  52)                  0.9876         0.469818   
     74. B(O  53,H  51)                  1.9798         0.012272   
     75. B(H  54,O  53)                  0.9665         0.507716   
     76. B(O  55,H  29)                  1.8616         0.018945   
     77. B(O  55,H  15)                  1.7837         0.025224   
     78. B(H  56,H  29)                  2.3917         0.000578   
     79. B(H  56,H  15)                  2.2403         0.001007   
     80. B(H  56,O  53)                  1.7543         0.028099   
     81. B(H  56,O  55)                  0.9847         0.474832   
     82. B(H  57,O  55)                  0.9649         0.510672   
     83. A(H   8,N   0,H  15)          108.8200         0.296764   
     84. A(H   7,N   0,H   8)          106.7197         0.297637   
     85. A(C   1,N   0,H   8)          110.8226         0.328483   
     86. A(H   7,N   0,H  15)          108.3892         0.294359   
     87. A(C   1,N   0,H   7)          112.8172         0.325711   
     88. A(C   1,N   0,H  15)          109.1604         0.324720   
     89. A(N   0,C   1,H  10)          106.7998         0.323033   
     90. A(C   2,C   1,H   9)          111.0574         0.326937   
     91. A(C   2,C   1,H  10)          111.0544         0.326457   
     92. A(H   9,C   1,H  10)          109.5352         0.290989   
     93. A(N   0,C   1,C   2)          111.8697         0.364683   
     94. A(N   0,C   1,H   9)          106.3231         0.323505   
     95. A(H  11,C   2,H  12)          107.1879         0.290123   
     96. A(C   3,C   2,H  11)          109.9123         0.324114   
     97. A(C   3,C   2,H  12)          109.6293         0.324444   
     98. A(C   1,C   2,H  12)          110.1326         0.326353   
     99. A(C   1,C   2,H  11)          109.4082         0.326021   
    100. A(C   1,C   2,C   3)          110.5098         0.366467   
    101. A(C   2,C   3,C   4)          111.9426         0.365958   
    102. A(C   4,C   3,H  14)          108.7737         0.326446   
    103. A(C   2,C   3,H  13)          109.3723         0.323884   
    104. A(H  13,C   3,H  14)          108.3915         0.290374   
    105. A(C   4,C   3,H  13)          107.6149         0.325354   
    106. A(C   2,C   3,H  14)          110.6360         0.324969   
    107. A(O   5,C   4,O   6)          123.2003         0.488863   
    108. A(C   3,C   4,O   6)          118.0502         0.420434   
    109. A(C   3,C   4,O   5)          118.7487         0.425231   
    110. A(C   4,O   5,H  18)          107.4013         0.228999   
    111. A(H  18,O   5,H  48)          117.8418         0.143614   
    112. A(C   4,O   5,H  48)          123.0311         0.247244   
    113. A(H  32,O   6,H  41)           90.4403         0.144167   
    114. A(C   4,O   6,H  20)          113.0439         0.227852   
    115. A(H  20,O   6,H  32)          123.5668         0.146470   
    116. A(C   4,O   6,H  41)          102.6346         0.222287   
    117. A(C   4,O   6,H  32)          123.3084         0.252140   
    118. A(H  20,O   6,H  41)           79.7998         0.135954   
    119. A(O  43,H   7,H  44)           24.1912         0.108888   
    120. A(N   0,H   7,H  44)          150.1327         0.129874   
    121. A(N   0,H   7,O  43)          170.4189         0.189341   
    122. A(C   1,H   9,O  37)          141.3375         0.149432   
    123. A(O  37,H   9,H  39)           15.7153         0.095282   
    124. A(C   1,H   9,H  39)          125.6754         0.110040   
    125. A(C   1,H   9,H  38)          140.8889         0.118591   
    126. A(O  37,H   9,H  38)           21.0849         0.097835   
    127. A(H  38,H   9,H  39)           29.6878         0.092076   
    128. A(C   3,H  13,O  37)          131.0389         0.123992   
    129. A(C   3,H  13,H  38)          146.4480         0.121560   
    130. A(O  37,H  13,H  38)           15.4759         0.094684   
    131. A(O  55,H  15,H  56)           25.2091         0.112098   
    132. A(N   0,H  15,H  56)          148.5162         0.131938   
    133. A(N   0,H  15,O  55)          172.7899         0.199008   
    134. A(H  18,O  16,H  21)           84.6146         0.183997   
    135. A(H  17,O  16,H  18)          103.0959         0.315353   
    136. A(H  17,O  16,H  21)           90.4406         0.184068   
    137. A(O  16,H  17,O  40)          159.2739         0.193378   
    138. A(H  21,H  17,H  41)           80.8036         0.098561   
    139. A(H  21,H  17,O  40)           98.0439         0.109638   
    140. A(O  16,H  17,H  41)          133.5020         0.137356   
    141. A(O  40,H  17,H  41)           26.7092         0.111282   
    142. A(O  16,H  17,H  21)           63.8511         0.133788   
    143. A(O  16,H  18,H  21)           68.6163         0.137253   
    144. A(O   5,H  18,H  21)          102.8967         0.111302   
    145. A(O   5,H  18,O  16)          165.1801         0.193539   
    146. A(H  20,O  19,H  21)          102.0092         0.315539   
    147. A(O   6,H  20,H  41)           50.9766         0.106391   
    148. A(O  19,H  20,H  41)          116.4856         0.126365   
    149. A(O   6,H  20,O  19)          165.3980         0.194094   
    150. A(O  16,H  21,H  17)           25.7083         0.107797   
    151. A(H  17,H  21,O  19)          138.7931         0.133863   
    152. A(O  16,H  21,H  18)           26.7691         0.109266   
    153. A(H  18,H  21,O  19)          130.6155         0.137370   
    154. A(O  16,H  21,O  19)          155.0158         0.184228   
    155. A(H  17,H  21,H  18)           40.5247         0.098548   
    156. A(H  24,O  22,H  26)          111.2836         0.208928   
    157. A(H  23,O  22,H  26)          109.8054         0.211134   
    158. A(H  23,O  22,H  24)          104.8623         0.314676   
    159. A(O  31,H  24,H  33)           23.4947         0.111628   
    160. A(O  22,H  24,H  33)          152.4422         0.132237   
    161. A(O  22,H  24,O  31)          173.9876         0.204976   
    162. A(H  35,O  25,H  52)          106.7429         0.128821   
    163. A(H  27,O  25,H  35)           80.6791         0.166430   
    164. A(H  26,O  25,H  35)           87.9795         0.164760   
    165. A(H  27,O  25,H  52)          114.7446         0.207938   
    166. A(H  26,O  25,H  52)          137.3994         0.205374   
    167. A(H  26,O  25,H  27)          106.8954         0.315280   
    168. L(O  22,H  26,O  25,H  35, 2) 176.5657         0.208875   
    169. L(O  22,H  26,O  25,H  35, 1) 178.0600         0.208875   
    170. A(O  25,H  27,H  35)           75.1922         0.131479   
    171. A(H  29,O  28,H  30)          105.5060         0.318200   
    172. A(O  55,H  29,H  56)           22.6822         0.108089   
    173. A(O  28,H  29,H  56)          156.1906         0.128880   
    174. A(H  32,O  31,H  33)          105.5403         0.315095   
    175. A(H  24,O  31,H  33)          109.5474         0.207420   
    176. A(H  24,O  31,H  32)          115.1543         0.204886   
    177. L(O   6,H  32,O  31,H  41, 2) 181.8504         0.211229   
    178. L(O   6,H  32,O  31,H  41, 1) 177.2837         0.211229   
    179. A(H  24,H  33,O  31)           46.9579         0.133148   
    180. A(H  36,O  34,H  42)          121.9108         0.203057   
    181. A(H  35,O  34,H  42)          109.2259         0.204611   
    182. A(H  35,O  34,H  36)          102.7658         0.315703   
    183. A(O  34,H  35,H  42)           47.3825         0.132240   
    184. A(O  25,H  35,O  34)          136.3990         0.166183   
    185. A(H  27,H  35,H  42)          156.7119         0.096968   
    186. A(O  25,H  35,H  27)           24.1287         0.103222   
    187. A(H  27,H  35,O  34)          124.6743         0.131343   
    188. L(O  34,H  36,O  49,H  35, 2) 172.0628         0.210537   
    189. L(O  34,H  36,O  49,H  35, 1) 179.3617         0.210537   
    190. A(H   9,O  37,H  47)           98.0506         0.099287   
    191. A(H  38,O  37,H  47)           64.0925         0.125807   
    192. A(H   9,O  37,H  13)           51.9246         0.099499   
    193. A(H  13,O  37,H  38)           45.0971         0.126563   
    194. A(H  39,O  37,H  47)           46.3098         0.125815   
    195. A(H   9,O  37,H  39)          119.7401         0.153573   
    196. A(H   9,O  37,H  38)           90.2574         0.153559   
    197. A(H  38,O  37,H  39)          105.0726         0.320034   
    198. A(H  13,O  37,H  47)           58.1674         0.094986   
    199. A(H  13,O  37,H  39)          102.0126         0.126571   
    200. A(H   9,H  38,H  47)          101.2245         0.092652   
    201. A(H  13,H  38,H  47)           68.4068         0.093037   
    202. A(O  37,H  38,H  47)           98.4060         0.115682   
    203. A(H   9,H  38,H  13)           57.9160         0.093783   
    204. A(H   9,H  38,O  37)           68.6577         0.120612   
    205. A(H  13,H  38,O  37)          119.4271         0.123952   
    206. A(O  46,H  39,H  47)           15.0619         0.094267   
    207. A(O  37,H  39,O  46)          123.0282         0.125039   
    208. A(H   9,H  39,H  47)           97.8511         0.092286   
    209. A(H   9,H  39,O  37)           44.5445         0.111482   
    210. A(H   9,H  39,O  46)           92.7365         0.092506   
    211. A(O  37,H  39,H  47)          118.1464         0.122771   
    212. A(H  17,O  40,H  42)          120.2225         0.192892   
    213. A(H  17,O  40,H  41)           91.1899         0.193898   
    214. A(H  41,O  40,H  42)          104.1088         0.315591   
    215. A(H  17,H  41,H  20)           80.1315         0.096989   
    216. A(O   6,H  41,H  20)           49.2236         0.105694   
    217. A(H  20,H  41,O  40)          128.9776         0.126611   
    218. A(O   6,H  41,H  17)          105.7968         0.110570   
    219. A(H  17,H  41,O  40)           62.1009         0.137597   
    220. A(O   6,H  41,O  40)          166.2871         0.190546   
    221. A(O  34,H  42,O  40)          172.2081         0.203252   
    222. A(O  34,H  42,H  35)           23.3916         0.110755   
    223. A(H  35,H  42,O  40)          150.0813         0.131732   
    224. A(H   7,O  43,H  45)          116.0500         0.195194   
    225. A(H   7,O  43,H  44)          102.1222         0.195095   
    226. A(H  44,O  43,H  45)          106.0614         0.319769   
    227. A(H   7,O  43,H  50)           73.2387         0.135450   
    228. A(H  45,O  43,H  50)          129.3590         0.190036   
    229. A(H  44,O  43,H  50)          120.9697         0.189941   
    230. A(H   7,H  44,O  43)           53.6866         0.132218   
    231. A(H  39,O  46,H  48)          112.5221         0.124468   
    232. A(H  39,O  46,H  47)           44.5888         0.125072   
    233. A(H  47,O  46,H  48)          104.7353         0.316637   
    234. A(O  37,H  47,H  38)           17.5015         0.093252   
    235. A(O  37,H  47,H  39)           15.5438         0.094380   
    236. A(O  37,H  47,O  46)          125.2503         0.125849   
    237. A(H  38,H  47,H  39)           31.8737         0.092900   
    238. A(H  38,H  47,O  46)          136.0543         0.115712   
    239. A(H  39,H  47,O  46)          120.3493         0.122802   
    240. L(O   5,H  48,O  46,H  39, 2) 180.8421         0.206545   
    241. L(O   5,H  48,O  46,H  39, 1) 183.3779         0.206545   
    242. A(H  50,O  49,H  51)          109.8619         0.318091   
    243. A(H  36,O  49,H  51)          120.3404         0.211922   
    244. A(H  36,O  49,H  50)          129.3166         0.212088   
    245. A(O  43,H  50,O  49)          143.5413         0.189688   
    246. A(O  49,H  51,O  53)          150.3682         0.187848   
    247. A(O  25,H  52,O  53)          173.1058         0.205632   
    248. A(H  54,O  53,H  56)          118.9969         0.208639   
    249. A(H  52,O  53,H  56)          125.0591         0.206557   
    250. A(H  52,O  53,H  54)          106.7201         0.315327   
    251. A(H  51,O  53,H  56)           89.7449         0.140517   
    252. A(H  51,O  53,H  54)          115.5535         0.188183   
    253. A(H  51,O  53,H  52)           96.9784         0.186457   
    254. A(H  56,O  55,H  57)          107.6945         0.316170   
    255. A(H  15,O  55,H  29)           88.4375         0.144465   
    256. A(H  29,O  55,H  57)          124.8252         0.198571   
    257. A(H  29,O  55,H  56)          110.5134         0.196781   
    258. A(H  15,O  55,H  57)          118.5868         0.205905   
    259. A(H  15,O  55,H  56)          104.3011         0.203995   
    260. A(O  53,H  56,O  55)          162.7551         0.206839   
    261. A(H  15,H  56,H  29)           66.5007         0.096949   
    262. A(H  29,H  56,O  53)          120.0592         0.109871   
    263. A(H  29,H  56,O  55)           46.8044         0.128577   
    264. A(H  15,H  56,O  53)          117.1810         0.112669   
    265. A(H  15,H  56,O  55)           50.4898         0.133885   
    266. D(H   9,C   1,N   0,H   8)    -49.0755         0.013984   
    267. D(C   2,C   1,N   0,H  15)   -167.8414         0.013984   
    268. D(H  10,C   1,N   0,H   7)     74.4287         0.013984   
    269. D(H   9,C   1,N   0,H   7)   -168.6747         0.013984   
    270. D(H   9,C   1,N   0,H  15)     70.7609         0.013984   
    271. D(C   2,C   1,N   0,H   7)    -47.2770         0.013984   
    272. D(C   2,C   1,N   0,H   8)     72.3222         0.013984   
    273. D(C   3,C   2,C   1,H   9)    -51.6241         0.012087   
    274. D(H  11,C   2,C   1,H  10)    -50.6262         0.012087   
    275. D(C   3,C   2,C   1,H  10)     70.5273         0.012087   
    276. D(H  11,C   2,C   1,N   0)     68.5985         0.012087   
    277. D(C   3,C   2,C   1,N   0)   -170.2480         0.012087   
    278. D(H  11,C   2,C   1,H   9)   -172.7776         0.012087   
    279. D(C   4,C   3,C   2,C   1)   -174.3077         0.011294   
    280. D(C   4,C   3,C   2,H  11)    -53.4539         0.011294   
    281. D(C   4,C   3,C   2,H  12)     64.1195         0.011294   
    282. D(H  13,C   3,C   2,H  12)    -55.0558         0.011294   
    283. D(H  13,C   3,C   2,H  11)   -172.6292         0.011294   
    284. D(H  13,C   3,C   2,C   1)     66.5170         0.011294   
    285. D(O   5,C   4,C   3,H  14)   -172.2921         0.011139   
    286. D(O   6,C   4,C   3,C   2)    129.9691         0.011139   
    287. D(O   5,C   4,C   3,H  13)     70.4784         0.011139   
    288. D(O   6,C   4,C   3,H  13)   -109.8247         0.011139   
    289. D(O   5,C   4,C   3,C   2)    -49.7278         0.011139   
    290. D(H  18,O   5,C   4,C   3)    116.0424         0.074757   
    291. D(H  48,O   5,C   4,C   3)    -25.9153         0.074757   
    292. D(H  48,O   5,C   4,O   6)    154.4043         0.074757   
    293. D(H  18,O   5,C   4,O   6)    -63.6379         0.074757   
    294. D(H  20,O   6,C   4,O   5)      7.6503         0.070496   
    295. D(H  20,O   6,C   4,C   3)   -172.0321         0.070496   
    296. D(H  32,O   6,C   4,O   5)   -169.1800         0.070496   
    297. D(H  32,O   6,C   4,C   3)     11.1376         0.070496   
    298. D(H  41,O   6,C   4,O   5)     91.8036         0.070496   
    299. D(H  41,O   6,C   4,C   3)    -87.8788         0.070496   
    300. D(H  44,H   7,N   0,H  15)   -175.8139         0.228116   
    301. D(H  44,H   7,N   0,H   8)    -58.7601         0.228116   
    302. D(H  44,H   7,N   0,C   1)     63.1816         0.228116   
    303. D(O  43,H   7,N   0,H  15)   -129.3544         0.228116   
    304. D(O  43,H   7,N   0,C   1)    109.6412         0.228116   
    305. D(O  43,H   7,N   0,H   8)    -12.3006         0.228116   
    306. D(H  39,H   9,C   1,N   0)     69.6495         0.154949   
    307. D(H  38,H   9,C   1,H  10)   -139.6116         0.154949   
    308. D(O  37,H   9,C   1,H  10)   -173.4931         0.154949   
    309. D(H  38,H   9,C   1,N   0)    105.3344         0.154949   
    310. D(O  37,H   9,C   1,C   2)    -50.4628         0.154949   
    311. D(H  38,H   9,C   1,C   2)    -16.5813         0.154949   
    312. D(O  37,H   9,C   1,N   0)     71.4529         0.154949   
    313. D(O  37,H  13,C   3,C   2)    -11.7701         0.127651   
    314. D(H  38,H  13,C   3,C   4)   -135.7994         0.127651   
    315. D(O  37,H  13,C   3,C   4)   -133.5885         0.127651   
    316. D(H  38,H  13,C   3,C   2)    -13.9810         0.127651   
    317. D(H  38,H  13,C   3,H  14)    106.7227         0.127651   
    318. D(H  56,H  15,N   0,H   8)    171.9323         0.217784   
    319. D(H  56,H  15,N   0,H   7)    -72.3715         0.217784   
    320. D(H  56,H  15,N   0,C   1)     50.8680         0.217784   
    321. D(O  55,H  15,N   0,C   1)     77.2611         0.217784   
    322. D(O  55,H  15,N   0,H   8)   -161.6746         0.217784   
    323. D(O  55,H  15,N   0,H   7)    -45.9784         0.217784   
    324. D(H  41,H  17,O  16,H  18)     39.9209         0.357896   
    325. D(H  41,H  17,O  16,H  21)    -44.6523         0.357896   
    326. D(O  40,H  17,O  16,H  18)     53.5544         0.357896   
    327. D(O  40,H  17,O  16,H  21)    -31.0187         0.357896   
    328. D(H  21,H  17,O  16,H  18)     84.5731         0.357896   
    329. D(H  21,H  18,O  16,H  17)    -89.1978         0.325142   
    330. D(O   5,H  18,O  16,H  17)    -32.0747         0.325142   
    331. D(O   5,H  18,O  16,H  21)     57.1231         0.325142   
    332. D(H  21,H  18,O   5,H  48)   -142.8869         0.001651   
    333. D(H  21,H  18,O   5,C   4)     72.8651         0.001651   
    334. D(O  16,H  18,O   5,H  48)    163.7664         0.001651   
    335. D(O  16,H  18,O   5,C   4)     19.5185         0.001651   
    336. D(H  41,H  20,O   6,H  32)    -83.6832         0.001674   
    337. D(O   6,H  20,O  19,H  21)    -19.4122         0.290365   
    338. D(H  41,H  20,O   6,C   4)     99.4959         0.001674   
    339. D(H  41,H  20,O  19,H  21)    -48.0349         0.290365   
    340. D(O  19,H  20,O   6,H  32)   -117.1804         0.001674   
    341. D(O  19,H  20,O   6,H  41)    -33.4972         0.001674   
    342. D(O  19,H  20,O   6,C   4)     65.9987         0.001674   
    343. D(H  18,H  21,O  19,H  20)    -26.5388         0.334225   
    344. D(H  17,H  21,O  19,H  20)     30.7326         0.334225   
    345. D(O  16,H  21,O  19,H  20)     -7.3285         0.334225   
    346. D(H  17,H  21,H  18,O   5)   -126.7129         0.001520   
    347. D(O  16,H  21,H  18,O   5)   -167.2689         0.001520   
    348. D(O  19,H  21,H  18,O   5)     -5.2415         0.001520   
    349. D(O  19,H  21,H  18,O  16)    162.0275         0.001520   
    350. D(H  18,H  21,H  17,O  16)    -42.4607         0.001511   
    351. D(O  16,H  21,H  17,H  41)    148.9079         0.001511   
    352. D(O  16,H  21,H  17,O  40)    169.3865         0.001511   
    353. D(O  19,H  21,H  17,H  41)      5.7971         0.001511   
    354. D(O  19,H  21,H  17,O  40)     26.2757         0.001511   
    355. D(H  17,H  21,H  18,O  16)     40.5560         0.001520   
    356. D(O  19,H  21,H  17,O  16)   -143.1108         0.001511   
    357. D(H  17,H  21,O  16,H  18)   -103.1128         0.001570   
    358. D(H  18,H  21,O  16,H  17)    103.1128         0.001570   
    359. D(O  19,H  21,O  16,H  17)     69.4326         0.001570   
    360. D(O  19,H  21,O  16,H  18)    -33.6802         0.001570   
    361. D(H  33,H  24,O  22,H  23)     41.4744         0.289588   
    362. D(O  31,H  24,O  22,H  26)    117.1136         0.289588   
    363. D(O  31,H  24,O  22,H  23)     -1.5451         0.289588   
    364. D(H  33,H  24,O  22,H  26)    160.1331         0.289588   
    365. D(H  35,O  25,O  22,H  24)     12.3784         0.001501   
    366. D(H  35,O  25,O  22,H  23)    128.6016         0.001501   
    367. D(H  27,O  25,O  22,H  23)     49.5745         0.001501   
    368. D(H  52,O  25,O  22,H  24)    123.2702         0.001501   
    369. D(H  52,O  25,O  22,H  23)   -120.5066         0.001501   
    370. D(H  27,O  25,O  22,H  24)    -66.6486         0.001501   
    371. D(H  35,H  27,O  25,H  52)   -104.2291         0.368974   
    372. D(H  35,H  27,O  25,H  26)     84.9979         0.368974   
    373. D(H  56,H  29,O  28,H  30)     56.0495         0.298477   
    374. D(H  33,O  31,H  24,O  22)     52.3483         0.001926   
    375. D(H  32,O  31,H  24,H  33)    118.7387         0.001926   
    376. D(H  32,O  31,H  24,O  22)    171.0870         0.001926   
    377. D(H  24,O  31,O   6,H  41)     91.8957         0.001501   
    378. D(H  24,O  31,O   6,H  20)    169.3628         0.001501   
    379. D(H  24,O  31,O   6,C   4)    -13.0307         0.001501   
    380. D(H  33,O  31,O   6,H  20)    -68.3973         0.001501   
    381. D(H  33,O  31,O   6,C   4)    109.2092         0.001501   
    382. D(H  33,O  31,O   6,H  41)   -145.8644         0.001501   
    383. D(H  24,H  33,O  31,H  32)   -124.5345         0.330846   
    384. D(O  31,H  33,H  24,O  22)   -169.6738         0.001507   
    385. D(O  25,H  35,O  34,H  36)    -49.4131         0.388309   
    386. D(H  27,H  35,O  25,H  52)    113.1773         0.001512   
    387. D(H  27,H  35,O  25,H  26)   -107.4869         0.001512   
    388. D(O  34,H  35,O  25,H  52)     42.2197         0.001512   
    389. D(H  42,H  35,H  27,O  25)   -170.8152         0.001505   
    390. D(O  34,H  35,O  25,H  27)    -70.9576         0.001512   
    391. D(O  34,H  35,O  25,H  26)   -178.4445         0.001512   
    392. D(O  34,H  35,H  27,O  25)    127.5639         0.001505   
    393. D(H  27,H  35,O  34,H  42)    151.7914         0.388309   
    394. D(H  27,H  35,O  34,H  36)    -77.4386         0.388309   
    395. D(H  42,H  35,O  34,H  36)    130.7699         0.388309   
    396. D(O  25,H  35,O  34,H  42)    179.8170         0.388309   
    397. D(H  47,O  37,H  13,C   3)    100.7454         0.001500   
    398. D(H   9,O  37,H  13,H  38)    142.0749         0.001500   
    399. D(H  39,O  37,H  13,H  38)    -99.3978         0.001500   
    400. D(H  39,O  37,H  13,C   3)     85.1855         0.001500   
    401. D(H  38,O  37,H  13,C   3)   -175.4167         0.001500   
    402. D(H  47,O  37,H   9,C   1)     38.3102         0.001503   
    403. D(H  13,O  37,H   9,H  39)     81.7739         0.001503   
    404. D(H  13,O  37,H   9,H  38)    -25.8075         0.001503   
    405. D(H  13,O  37,H   9,C   1)     76.3582         0.001503   
    406. D(H  39,O  37,H   9,H  38)   -107.5814         0.001503   
    407. D(H   9,O  37,H  13,C   3)    -33.3418         0.001500   
    408. D(H  39,O  37,H   9,C   1)     -5.4157         0.001503   
    409. D(H  38,O  37,H   9,H  39)    107.5814         0.001503   
    410. D(H  38,O  37,H   9,C   1)    102.1657         0.001503   
    411. D(H  47,H  38,O  37,H  39)     22.1639         0.461299   
    412. D(H   9,H  38,O  37,H  47)     98.8306         0.461299   
    413. D(H   9,H  38,O  37,H  13)     28.9366         0.461299   
    414. D(H   9,H  38,O  37,H  39)    120.9946         0.461299   
    415. D(H  13,H  38,O  37,H  47)     69.8940         0.461299   
    416. D(H  13,H  38,O  37,H  39)     92.0579         0.461299   
    417. D(H  47,H  38,H  13,C   3)     93.8102         0.001501   
    418. D(O  37,H  38,H  13,C   3)      6.2606         0.001501   
    419. D(H   9,H  38,H  13,C   3)    -25.8732         0.001501   
    420. D(H  47,H  38,H   9,O  37)     94.7305         0.001501   
    421. D(H  47,H  38,H  13,O  37)     87.5496         0.001501   
    422. D(H  47,H  38,H   9,C   1)     -9.7807         0.001501   
    423. D(H  13,H  38,O  37,H   9)    -28.9366         0.461299   
    424. D(H  13,H  38,H   9,H  39)    118.7508         0.001501   
    425. D(H  13,H  38,H   9,O  37)    150.1730         0.001501   
    426. D(H  13,H  38,H   9,C   1)     45.6618         0.001501   
    427. D(H   9,H  38,H  13,O  37)    -32.1338         0.001501   
    428. D(O  37,H  38,H   9,H  39)    -31.4222         0.001501   
    429. D(O  37,H  38,H   9,C   1)   -104.5112         0.001501   
    430. D(O  46,H  39,O  37,H  38)    -44.5662         0.462446   
    431. D(H   9,H  39,O  37,H  47)    -71.1728         0.462446   
    432. D(H   9,H  39,O  37,H  13)    -52.8013         0.462446   
    433. D(H  47,H  39,O  37,H  13)     18.3715         0.462446   
    434. D(H  47,H  39,O  37,H   9)     71.1728         0.462446   
    435. D(H  47,H  39,O  37,H  38)    -27.9889         0.462446   
    436. D(O  46,H  39,H   9,O  37)   -136.8315         0.001500   
    437. D(O  46,H  39,H   9,C   1)     39.0061         0.001500   
    438. D(H  47,H  39,H   9,H  38)    -78.7752         0.001500   
    439. D(H   9,H  39,O  37,H  38)    -99.1616         0.462446   
    440. D(H  47,H  39,H   9,O  37)   -122.5987         0.001500   
    441. D(H  47,H  39,H   9,C   1)     53.2389         0.001500   
    442. D(O  37,H  39,H   9,H  38)     43.8234         0.001500   
    443. D(O  37,H  39,H   9,C   1)    175.8376         0.001500   
    444. D(H  42,O  40,H  17,H  41)   -107.1137         0.001662   
    445. D(H  42,O  40,H  17,H  21)   -157.3228         0.001662   
    446. D(H  42,O  40,H  17,O  16)   -129.4719         0.001662   
    447. D(H  41,O  40,H  17,H  21)    -50.2091         0.001662   
    448. D(H  41,O  40,H  17,O  16)    -22.3582         0.001662   
    449. D(H  20,H  41,O  40,H  17)     47.3235         0.378688   
    450. D(H  20,H  41,O  40,H  42)    168.9478         0.378688   
    451. D(H  17,H  41,O  40,H  42)    121.6244         0.378688   
    452. D(O   6,H  41,O  40,H  42)     92.1288         0.378688   
    453. D(H  17,H  41,H  20,O   6)   -120.9922         0.001502   
    454. D(H  17,H  41,H  20,O  19)     50.0649         0.001502   
    455. D(O  40,H  41,H  20,O   6)   -162.2540         0.001502   
    456. D(O  40,H  41,H  20,O  19)      8.8031         0.001502   
    457. D(H  20,H  41,H  17,O  16)     24.7628         0.001522   
    458. D(O   6,H  41,H  17,O  40)    173.0330         0.001522   
    459. D(O   6,H  41,H  17,H  21)    -57.3866         0.001522   
    460. D(O   6,H  41,H  17,O  16)    -17.6629         0.001522   
    461. D(O  40,H  41,H  17,H  21)    129.5804         0.001522   
    462. D(O  40,H  41,H  17,O  16)    169.3041         0.001522   
    463. D(O   6,H  41,H  20,O  19)    171.0571         0.001502   
    464. D(H  20,H  41,O   6,C   4)   -111.5466         0.001630   
    465. D(H  17,H  41,O   6,H  20)     61.3664         0.001630   
    466. D(H  17,H  41,O   6,H  32)   -174.5487         0.001630   
    467. D(O   6,H  41,O  40,H  17)    -29.4955         0.378688   
    468. D(H  17,H  41,O   6,C   4)    -50.1803         0.001630   
    469. D(O  40,H  41,O   6,H  20)     88.2519         0.001630   
    470. D(O  40,H  41,O   6,H  32)   -147.6632         0.001630   
    471. D(O  40,H  41,O   6,C   4)    -23.2947         0.001630   
    472. D(H  35,H  42,O  40,H  17)    124.3302         0.311032   
    473. D(H  35,H  42,O  40,H  41)     24.4727         0.311032   
    474. D(O  34,H  42,O  40,H  17)    153.4361         0.311032   
    475. D(O  34,H  42,H  35,H  27)    -79.4988         0.001507   
    476. D(O  40,H  42,H  35,H  27)     90.9396         0.001507   
    477. D(O  40,H  42,H  35,O  34)    170.4384         0.001507   
    478. D(H  35,H  42,O  34,H  36)   -119.5278         0.001851   
    479. D(O  40,H  42,O  34,H  36)   -157.1969         0.001851   
    480. D(O  40,H  42,O  34,H  35)    -37.6691         0.001851   
    481. D(O  34,H  42,O  25,H  52)     42.3447         0.001500   
    482. D(O  34,H  42,O  25,H  27)    -70.9310         0.001500   
    483. D(O  34,H  42,O  40,H  41)     53.5785         0.311032   
    484. D(O  34,H  42,O  25,H  26)   -178.7078         0.001500   
    485. D(O  40,H  42,O  25,H  52)   -146.6743         0.001500   
    486. D(O  40,H  42,O  25,H  27)    100.0499         0.001500   
    487. D(O  40,H  42,O  25,H  26)     -7.7268         0.001500   
    488. D(H  50,O  43,H   7,H  44)   -119.0115         0.001673   
    489. D(H  50,O  43,H   7,N   0)    179.2339         0.001673   
    490. D(H  45,O  43,H   7,H  44)    114.8324         0.001673   
    491. D(H  45,O  43,H   7,N   0)     53.0779         0.001673   
    492. D(H  44,O  43,H   7,N   0)    -61.7546         0.001673   
    493. D(H   7,H  44,O  43,H  50)     77.5786         0.362528   
    494. D(H   7,H  44,O  43,H  45)   -121.9551         0.362528   
    495. D(O  43,H  44,H   7,N   0)    162.8766         0.001506   
    496. D(H  48,O  46,H  39,H  47)    -88.3712         0.001500   
    497. D(H  48,O  46,H  39,O  37)    -12.8846         0.001500   
    498. D(H  47,O  46,H  39,H   9)    110.4045         0.001500   
    499. D(H  47,O  46,H  39,O  37)     75.4866         0.001500   
    500. D(H  39,O  46,O   5,H  18)   -128.8560         0.001501   
    501. D(H  39,O  46,O   5,C   4)     10.3268         0.001501   
    502. D(H  47,O  46,O   5,H  18)   -175.7029         0.001501   
    503. D(H  48,O  46,H  39,H   9)     22.0333         0.001500   
    504. D(H  47,O  46,O   5,C   4)    -36.5200         0.001501   
    505. D(O  46,H  47,H  39,H   9)    -70.9167         0.001501   
    506. D(O  46,H  47,H  39,O  37)   -113.0003         0.001501   
    507. D(H  39,H  47,H  38,H   9)    -84.5858         0.001500   
    508. D(H  39,H  47,H  38,O  37)    -14.8127         0.001500   
    509. D(O  46,H  47,H  38,H   9)    -11.4257         0.001500   
    510. D(O  46,H  47,H  38,H  13)    -60.0543         0.001500   
    511. D(O  46,H  47,H  38,O  37)     58.3473         0.001500   
    512. D(H  39,H  47,O  37,H  13)   -158.7247         0.001500   
    513. D(H  39,H  47,O  37,H   9)   -123.9005         0.001500   
    514. D(H  39,H  47,O  37,H  38)    149.7493         0.001500   
    515. D(H  39,H  47,H  38,H  13)   -133.2144         0.001500   
    516. D(O  46,H  47,O  37,H  13)    -82.1394         0.001500   
    517. D(O  46,H  47,O  37,H   9)    -47.3152         0.001500   
    518. D(O  46,H  47,O  37,H  39)     76.5853         0.001500   
    519. D(H  38,H  47,H  39,O  37)     16.6731         0.001501   
    520. D(O  46,H  47,O  37,H  38)   -133.6654         0.001500   
    521. D(O  37,H  47,O  46,H  39)    -17.5812         0.405221   
    522. D(O  37,H  47,O  46,H  48)     89.7190         0.405221   
    523. D(H  38,H  47,O  46,H  39)    -35.8499         0.405221   
    524. D(H  38,H  47,O  46,H  48)     71.4503         0.405221   
    525. D(H  39,H  47,O  46,H  48)    107.3002         0.405221   
    526. D(O  37,H  47,H  39,H   9)     42.0836         0.001501   
    527. D(H  38,H  47,H  39,O  46)    129.6735         0.001501   
    528. D(H  38,H  47,H  39,H   9)     58.7568         0.001501   
    529. D(H  51,O  49,O  34,H  42)    159.5922         0.001501   
    530. D(H  51,O  49,O  34,H  35)     35.2735         0.001501   
    531. D(H  50,O  49,O  34,H  42)    -13.4145         0.001501   
    532. D(H  50,O  49,O  34,H  35)   -137.7332         0.001501   
    533. D(O  43,H  50,O  49,H  36)     47.8328         0.317697   
    534. D(O  43,H  50,O  49,H  51)   -124.0832         0.317697   
    535. D(O  49,H  50,O  43,H   7)     52.8358         0.001601   
    536. D(O  49,H  50,O  43,H  45)    163.0879         0.001601   
    537. D(O  49,H  50,O  43,H  44)    -41.4671         0.001601   
    538. D(O  53,H  51,O  49,H  36)    -20.5840         0.312849   
    539. D(O  53,H  51,O  49,H  50)    152.1740         0.312849   
    540. D(O  53,H  52,O  25,H  35)    -24.5233         0.001942   
    541. D(O  53,H  52,O  25,H  27)     62.7494         0.001942   
    542. D(O  53,H  52,O  25,H  26)   -130.3514         0.001942   
    543. D(H  51,O  53,H  52,O  25)     19.2550         0.295448   
    544. D(H  56,O  53,H  52,O  25)    113.8675         0.295448   
    545. D(H  54,O  53,H  52,O  25)   -100.1202         0.295448   
    546. D(H  56,O  53,H  51,O  49)   -113.4734         0.001587   
    547. D(H  54,O  53,H  51,O  49)    124.1693         0.001587   
    548. D(H  52,O  53,H  51,O  49)     11.8485         0.001587   
    549. D(H  15,O  55,H  29,H  56)   -104.6926         0.001730   
    550. D(H  57,O  55,H  29,H  56)    130.9658         0.001730   
    551. D(H  15,O  55,O  28,H  30)    -41.3549         0.001501   
    552. D(H  57,O  55,O  28,H  30)   -165.3394         0.001501   
    553. D(H  56,O  55,O  28,H  30)     62.9562         0.001501   
    554. D(H  29,O  55,H  15,H  56)    110.7821         0.001914   
    555. D(H  29,O  55,H  15,N   0)     77.7526         0.001914   
    556. D(H  57,O  55,H  15,H  56)   -119.7434         0.001914   
    557. D(H  57,O  55,H  15,N   0)   -152.7729         0.001914   
    558. D(H  56,O  55,H  15,N   0)    -33.0295         0.001914   
    559. D(H  29,H  56,O  55,H  15)     93.7460         0.357405   
    560. D(H  15,H  56,O  55,H  29)    -93.7460         0.357405   
    561. D(H  15,H  56,O  55,H  57)    126.8441         0.357405   
    562. D(O  53,H  56,O  55,H  29)    -44.9982         0.357405   
    563. D(O  53,H  56,O  55,H  57)    175.5919         0.357405   
    564. D(H  15,H  56,O  53,H  51)     37.8709         0.002060   
    565. D(H  15,H  56,O  53,H  54)    157.2584         0.002060   
    566. D(H  15,H  56,O  53,H  52)    -60.4839         0.002060   
    567. D(O  55,H  56,O  53,H  51)     -2.8246         0.002060   
    568. D(O  55,H  56,O  53,H  54)    116.5628         0.002060   
    569. D(O  55,H  56,O  53,H  52)   -101.1794         0.002060   
    570. D(H  15,H  56,H  29,O  55)     57.0859         0.001504   
    571. D(H  15,H  56,H  29,O  28)   -115.0700         0.001504   
    572. D(O  53,H  56,H  29,O  55)    165.9840         0.001504   
    573. D(O  53,H  56,H  29,O  28)     -6.1718         0.001504   
    574. D(O  55,H  56,H  29,O  28)   -172.1558         0.001504   
    575. D(O  53,H  56,O  55,H  15)     48.7478         0.357405   
    576. D(H  29,H  56,H  15,O  55)    -52.4904         0.001511   
    577. D(H  29,H  56,H  15,N   0)    119.9828         0.001511   
    578. D(O  53,H  56,H  15,O  55)   -165.4900         0.001511   
    579. D(H  29,H  56,O  55,H  57)   -139.4099         0.357405   
    580. D(O  53,H  56,H  15,N   0)      6.9832         0.001511   
    581. D(O  55,H  56,H  15,N   0)    172.4732         0.001511   
    -----------------------------------------------------------------

Number of atoms                         .... 58
Number of degrees of freedom            .... 581


         *************************************************************
         *                GEOMETRY OPTIMIZATION CYCLE   1            *
         *************************************************************
---------------------------------
CARTESIAN COORDINATES (ANGSTROEM)
---------------------------------
  N      1.287969   -0.847228   -0.181276
  C      2.666642   -0.797790   -0.759631
  C      2.747990    0.143667   -1.948091
  C      4.091288   -0.008219   -2.660459
  C      4.264337    1.015636   -3.771260
  O      3.341808    1.158008   -4.609961
  O      5.341435    1.692038   -3.798915
  H      0.878290    0.090701   -0.041598
  H      0.654714   -1.354944   -0.797342
  H      2.912989   -1.817149   -1.050679
  H      3.333257   -0.476018    0.041530
  H      2.623142    1.173747   -1.604650
  H      1.936511   -0.063603   -2.647708
  H      4.151249   -1.002147   -3.113994
  H      4.913730    0.097662   -1.955147
  H      1.320815   -1.330276    0.736924
  O      2.538969    3.874515   -4.204829
  H      3.036033    3.982146   -3.371196
  H      2.664277    2.928626   -4.416849
  O      5.117839    3.895303   -5.601978
  H      5.310654    3.085886   -5.087156
  H      4.235710    4.141901   -5.269259
  O      7.204053   -0.597130   -0.170070
  H      8.124917   -0.709207    0.105819
  H      7.242270    0.033332   -0.932065
  O      5.691850    0.414368    1.848004
  H      6.276547    0.052281    1.135500
  H      6.139753    1.186243    2.212714
  O     -0.880501   -0.496105    3.025249
  H     -0.085261   -1.027769    2.833958
  H     -0.745275    0.342356    2.570486
  O      7.493882    1.166602   -2.266169
  H      6.700654    1.327265   -2.837482
  H      8.173346    0.822490   -2.858177
  O      4.381850    2.744537    0.369554
  H      4.986760    1.989039    0.357436
  H      3.567641    2.364786    0.771393
  O      2.338799   -3.552206   -2.753491
  H      3.153338   -3.357788   -3.232614
  H      1.629910   -3.385699   -3.386010
  O      4.492359    3.913157   -2.139814
  H      4.920485    3.210310   -2.654291
  H      4.368780    3.516921   -1.249696
  O     -0.067852    1.737559   -0.024374
  H      0.121972    2.089754   -0.903538
  H     -1.028637    1.673606    0.035825
  O      1.550435   -0.806291   -5.277064
  H      2.046528   -1.632048   -5.263473
  H      2.200175   -0.119540   -5.005134
  O      2.206369    1.732099    1.606312
  H      1.263196    1.835604    1.409996
  H      2.325825    1.082387    2.317357
  H      4.267556   -0.106725    2.748477
  O      3.422983   -0.292951    3.225315
  H      3.593455   -0.137491    4.163859
  O      1.460352   -1.968729    2.396589
  H      2.254627   -1.517847    2.764679
  H      1.579974   -2.918544    2.517350

----------------------------
CARTESIAN COORDINATES (A.U.)
----------------------------
  NO LB      ZA    FRAG     MASS         X           Y           Z
   0 N     7.0000    0    14.007    2.433908   -1.601028   -0.342561
   1 C     6.0000    0    12.011    5.039223   -1.507604   -1.435494
   2 C     6.0000    0    12.011    5.192949    0.271491   -3.681358
   3 C     6.0000    0    12.011    7.731413   -0.015532   -5.027539
   4 C     6.0000    0    12.011    8.058430    1.919274   -7.126648
   5 O     8.0000    0    15.999    6.315102    2.188318   -8.711564
   6 O     8.0000    0    15.999   10.093849    3.197489   -7.178910
   7 H     1.0000    0     1.008    1.659727    0.171400   -0.078609
   8 H     1.0000    0     1.008    1.237230   -2.560472   -1.506757
   9 H     1.0000    0     1.008    5.504752   -3.433914   -1.985496
  10 H     1.0000    0     1.008    6.298942   -0.899544    0.078481
  11 H     1.0000    0     1.008    4.957020    2.218061   -3.032349
  12 H     1.0000    0     1.008    3.659475   -0.120192   -5.003443
  13 H     1.0000    0     1.008    7.844724   -1.893784   -5.884597
  14 H     1.0000    0     1.008    9.285603    0.184554   -3.694692
  15 H     1.0000    0     1.008    2.495979   -2.513857    1.392585
  16 O     8.0000    0    15.999    4.797957    7.321773   -7.945976
  17 H     1.0000    0     1.008    5.737272    7.525166   -6.370638
  18 H     1.0000    0     1.008    5.034753    5.534301   -8.346636
  19 O     8.0000    0    15.999    9.671315    7.361056  -10.586204
  20 H     1.0000    0     1.008   10.035682    5.831480   -9.613332
  21 H     1.0000    0     1.008    8.004332    7.827058   -9.957456
  22 O     8.0000    0    15.999   13.613687   -1.128413   -0.321386
  23 H     1.0000    0     1.008   15.353867   -1.340207    0.199969
  24 H     1.0000    0     1.008   13.685906    0.062989   -1.761347
  25 O     8.0000    0    15.999   10.756038    0.783043    3.492222
  26 H     1.0000    0     1.008   11.860954    0.098796    2.145785
  27 H     1.0000    0     1.008   11.602452    2.241674    4.181424
  28 O     8.0000    0    15.999   -1.663907   -0.937502    5.716893
  29 H     1.0000    0     1.008   -0.161120   -1.942202    5.355405
  30 H     1.0000    0     1.008   -1.408365    0.646960    4.857514
  31 O     8.0000    0    15.999   14.161384    2.204558   -4.282440
  32 H     1.0000    0     1.008   12.662401    2.508167   -5.362065
  33 H     1.0000    0     1.008   15.445386    1.554281   -5.401172
  34 O     8.0000    0    15.999    8.280497    5.186423    0.698356
  35 H     1.0000    0     1.008    9.423612    3.758739    0.675455
  36 H     1.0000    0     1.008    6.741864    4.468797    1.457722
  37 O     8.0000    0    15.999    4.419689   -6.712697   -5.203344
  38 H     1.0000    0     1.008    5.958946   -6.345299   -6.108756
  39 H     1.0000    0     1.008    3.080084   -6.398043   -6.398632
  40 O     8.0000    0    15.999    8.489328    7.394796   -4.043663
  41 H     1.0000    0     1.008    9.298370    6.066607   -5.015882
  42 H     1.0000    0     1.008    8.255798    6.646017   -2.361582
  43 O     8.0000    0    15.999   -0.128221    3.283511   -0.046060
  44 H     1.0000    0     1.008    0.230495    3.949063   -1.707440
  45 H     1.0000    0     1.008   -1.943842    3.162657    0.067700
  46 O     8.0000    0    15.999    2.929898   -1.523670   -9.972206
  47 H     1.0000    0     1.008    3.867377   -3.084124   -9.946523
  48 H     1.0000    0     1.008    4.157729   -0.225898   -9.458333
  49 O     8.0000    0    15.999    4.169434    3.273193    3.035489
  50 H     1.0000    0     1.008    2.387094    3.468790    2.664506
  51 H     1.0000    0     1.008    4.395173    2.045415    4.379170
  52 H     1.0000    0     1.008    8.064511   -0.201681    5.193869
  53 O     8.0000    0    15.999    6.468500   -0.553598    6.094962
  54 H     1.0000    0     1.008    6.790646   -0.259821    7.868553
  55 O     8.0000    0    15.999    2.759665   -3.720359    4.528897
  56 H     1.0000    0     1.008    4.260627   -2.868315    5.224487
  57 H     1.0000    0     1.008    2.985717   -5.515249    4.757102

--------------------------------
INTERNAL COORDINATES (ANGSTROEM)
--------------------------------
 N      0   0   0     0.000000000000     0.00000000     0.00000000
 C      1   0   0     1.495887444498     0.00000000     0.00000000
 C      2   1   0     1.518352889465   111.86973783     0.00000000
 C      3   2   1     1.528065880764   110.50978307   189.75197339
 C      4   3   2     1.520560427132   111.94263839   185.69228113
 O      5   4   3     1.254890358744   118.74871638   310.27216606
 O      5   4   3     1.272172737080   118.05019665   129.96907378
 H      1   2   3     1.032984083092   112.81720941   312.72304961
 H      1   2   3     1.018981968310   110.82264227    72.32223383
 H      2   1   3     1.088342206059   106.32313738   238.60228646
 H      2   1   3     1.090766216775   106.79975109   121.70564292
 H      3   2   1     1.092979755174   109.40815283    68.59847460
 H      3   2   1     1.091294410883   110.13260481   311.02686226
 H      4   3   2     1.094158478050   109.37232749    66.51699671
 H      4   3   2     1.088617035273   110.63603437   307.19037608
 H      1   2   3     1.038029531813   109.16037041   192.15861438
 O      6   5   4     2.861484538257   102.67019831   117.75691666
 H     17   6   5     0.976525160990    94.74296359   347.80867618
 H     17   6   5     0.977425845013     9.80761066   199.07326360
 O      7   5   4     2.855767125109   110.95545372   192.81500099
 H     20   7   5     0.978455072988     9.64681128   244.18174483
 H     20   7   5     0.974507546736    92.89686292    45.18564184
 O     15   4   3     2.985768900330   160.77680232   106.19933001
 H     23  15   4     0.967815172946   158.00908435    97.79760666
 H     23  15   4     0.989737097972    54.62659851   121.16638067
 O     23  15   4     2.717077591588    86.01492053   240.33220283
 H     26  23  15     0.990272295062     2.38467173   202.30858060
 H     26  23  15     0.964064621314   108.69112242   243.71154893
 O     16   1   2     3.282996840812   118.49626568   150.49224449
 H     29  16   1     0.975533902254    34.73921598   186.04687457
 H     29  16   1     0.963386623452    78.34569017   326.98455601
 O     25  23  15     1.768458162585   173.98761954   187.29450819
 H     32  25  23     0.990667299296   115.15425493   171.08700919
 H     32  25  23     0.964654274785   109.54744872    52.34829193
 O     28  26  23     2.985924244524    84.88224173    95.59895417
 H     35  28  26     0.967905322825    39.86451114   309.69860947
 H     35  28  26     0.984186334141    91.92829012    57.43349431
 O     10   2   1     2.497936261363   141.33748230    71.45291490
 H     38  10   2     0.964796675123    90.25744719   102.16573261
 H     38  10   2     0.964535236484   119.74014226   354.58433231
 O     18  17   6     1.908387826726   159.27387590    48.34678235
 H     41  18  17     0.970552891175    91.18992635   337.64178667
 H     41  18  17     0.982133767600   120.22247938   230.52807913
 O      8   1   2     1.899374571598   170.41890528   109.64115006
 H     44   8   1     0.965921489446   102.12221558   298.24541813
 H     44   8   1     0.964791157331   116.05002948    53.07785111
 O      6   5   4     2.740896521696   124.18253755   333.54993816
 H     47   6   5     0.963413970543   105.91937523   323.47998799
 H     47   6   5     0.983735229251     2.20704057    21.29325386
 O     37  35  28     1.717684553400   175.01460478    47.00988694
 H     50  37  35     0.968932547377   129.31657899   138.23553841
 H     50  37  35     0.970557161366   120.34036045   309.42036065
 H     26  23  15     1.763803932101   135.94150773    73.63040382
 O     53  26  23     0.987602031373   173.10579161   232.39913418
 H     54  53  26     0.966484910038   106.72008087   259.87984057
 O     16   1   2     1.783698742504   172.78990731    77.26106164
 H     56  16   1     0.984712340873   104.30109852   326.97051229
 H     56  16   1     0.964904321797   118.58676252   207.22710988

---------------------------
INTERNAL COORDINATES (A.U.)
---------------------------
 N      0   0   0     0.000000000000     0.00000000     0.00000000
 C      1   0   0     2.826817597273     0.00000000     0.00000000
 C      2   1   0     2.869271135736   111.86973783     0.00000000
 C      3   2   1     2.887626029234   110.50978307   189.75197339
 C      4   3   2     2.873442777357   111.94263839   185.69228113
 O      5   4   3     2.371399106124   118.74871638   310.27216606
 O      5   4   3     2.404058068121   118.05019665   129.96907378
 H      1   2   3     1.952057017744   112.81720941   312.72304961
 H      1   2   3     1.925596855509   110.82264227    72.32223383
 H      2   1   3     2.056668709440   106.32313738   238.60228646
 H      2   1   3     2.061249425839   106.79975109   121.70564292
 H      3   2   1     2.065432407199   109.40815283    68.59847460
 H      3   2   1     2.062247568048   110.13260481   311.02686226
 H      4   3   2     2.067659870623   109.37232749    66.51699671
 H      4   3   2     2.057188061388   110.63603437   307.19037608
 H      1   2   3     1.961591534049   109.16037041   192.15861438
 O      6   5   4     5.407422113757   102.67019831   117.75691666
 H     17   6   5     1.845365117154    94.74296359   347.80867618
 H     17   6   5     1.847067163291     9.80761066   199.07326360
 O      7   5   4     5.396617768712   110.95545372   192.81500099
 H     20   7   5     1.849012122294     9.64681128   244.18174483
 H     20   7   5     1.841552378771    92.89686292    45.18564184
 O     15   4   3     5.642285520804   160.77680232   106.19933001
 H     23  15   4     1.828905625121   158.00908435    97.79760666
 H     23  15   4     1.870332059749    54.62659851   121.16638067
 O     23  15   4     5.134532532715    86.01492053   240.33220283
 H     26  23  15     1.871343435678     2.38467173   202.30858060
 H     26  23  15     1.821818109686   108.69112242   243.71154893
 O     16   1   2     6.203964927662   118.49626568   150.49224449
 H     29  16   1     1.843491909616    34.73921598   186.04687457
 H     29  16   1     1.820536879407    78.34569017   326.98455601
 O     25  23  15     3.341901606583   173.98761954   187.29450819
 H     32  25  23     1.872089885501   115.15425493   171.08700919
 H     32  25  23     1.822932393259   109.54744872    52.34829193
 O     28  26  23     5.642579078786    84.88224173    95.59895417
 H     35  28  26     1.829075983704    39.86451114   309.69860947
 H     35  28  26     1.859842636274    91.92829012    57.43349431
 O     10   2   1     4.720415433966   141.33748230    71.45291490
 H     38  10   2     1.823201490901    90.25744719   102.16573261
 H     38  10   2     1.822707443472   119.74014226   354.58433231
 O     18  17   6     3.606330349821   159.27387590    48.34678235
 H     41  18  17     1.834079162807    91.18992635   337.64178667
 H     41  18  17     1.855963847640   120.22247938   230.52807913
 O      8   1   2     3.589297766055   170.41890528   109.64115006
 H     44   8   1     1.825327081922   102.12221558   298.24541813
 H     44   8   1     1.823191063785   116.05002948    53.07785111
 O      6   5   4     5.179543787423   124.18253755   333.54993816
 H     47   6   5     1.820588557919   105.91937523   323.47998799
 H     47   6   5     1.858990171575     2.20704057    21.29325386
 O     37  35  28     3.245953390393   175.01460478    47.00988694
 H     50  37  35     1.831017156784   129.31657899   138.23553841
 H     50  37  35     1.834087232298   120.34036045   309.42036065
 H     26  23  15     3.333106385604   135.94150773    73.63040382
 O     53  26  23     1.866297368599   173.10579161   232.39913418
 H     54  53  26     1.826391792540   106.72008087   259.87984057
 O     16   1   2     3.370702128752   172.78990731    77.26106164
 H     56  16   1     1.860836644942   104.30109852   326.97051229
 H     56  16   1     1.823404913633   118.58676252   207.22710988

---------------------
BASIS SET INFORMATION
---------------------
There are 4 groups of distinct atoms

 Group   1 Type N   : 11s6p2d1f contracted to 5s3p2d1f pattern {62111/411/11/1}
 Group   2 Type C   : 11s6p2d1f contracted to 5s3p2d1f pattern {62111/411/11/1}
 Group   3 Type O   : 11s6p2d1f contracted to 5s3p2d1f pattern {62111/411/11/1}
 Group   4 Type H   : 5s1p contracted to 3s1p pattern {311/1}

Atom   0N    basis set group =>   1
Atom   1C    basis set group =>   2
Atom   2C    basis set group =>   2
Atom   3C    basis set group =>   2
Atom   4C    basis set group =>   2
Atom   5O    basis set group =>   3
Atom   6O    basis set group =>   3
Atom   7H    basis set group =>   4
Atom   8H    basis set group =>   4
Atom   9H    basis set group =>   4
Atom  10H    basis set group =>   4
Atom  11H    basis set group =>   4
Atom  12H    basis set group =>   4
Atom  13H    basis set group =>   4
Atom  14H    basis set group =>   4
Atom  15H    basis set group =>   4
Atom  16O    basis set group =>   3
Atom  17H    basis set group =>   4
Atom  18H    basis set group =>   4
Atom  19O    basis set group =>   3
Atom  20H    basis set group =>   4
Atom  21H    basis set group =>   4
Atom  22O    basis set group =>   3
Atom  23H    basis set group =>   4
Atom  24H    basis set group =>   4
Atom  25O    basis set group =>   3
Atom  26H    basis set group =>   4
Atom  27H    basis set group =>   4
Atom  28O    basis set group =>   3
Atom  29H    basis set group =>   4
Atom  30H    basis set group =>   4
Atom  31O    basis set group =>   3
Atom  32H    basis set group =>   4
Atom  33H    basis set group =>   4
Atom  34O    basis set group =>   3
Atom  35H    basis set group =>   4
Atom  36H    basis set group =>   4
Atom  37O    basis set group =>   3
Atom  38H    basis set group =>   4
Atom  39H    basis set group =>   4
Atom  40O    basis set group =>   3
Atom  41H    basis set group =>   4
Atom  42H    basis set group =>   4
Atom  43O    basis set group =>   3
Atom  44H    basis set group =>   4
Atom  45H    basis set group =>   4
Atom  46O    basis set group =>   3
Atom  47H    basis set group =>   4
Atom  48H    basis set group =>   4
Atom  49O    basis set group =>   3
Atom  50H    basis set group =>   4
Atom  51H    basis set group =>   4
Atom  52H    basis set group =>   4
Atom  53O    basis set group =>   3
Atom  54H    basis set group =>   4
Atom  55O    basis set group =>   3
Atom  56H    basis set group =>   4
Atom  57H    basis set group =>   4
---------------------------------
AUXILIARY/J BASIS SET INFORMATION
---------------------------------
There are 4 groups of distinct atoms

 Group   1 Type N   : 12s5p4d2f1g contracted to 6s4p3d1f1g pattern {711111/2111/211/2/1}
 Group   2 Type C   : 12s5p4d2f1g contracted to 6s4p3d1f1g pattern {711111/2111/211/2/1}
 Group   3 Type O   : 12s5p4d2f1g contracted to 6s4p3d1f1g pattern {711111/2111/211/2/1}
 Group   4 Type H   : 5s2p1d contracted to 3s1p1d pattern {311/2/1}

Atom   0N    basis set group =>   1
Atom   1C    basis set group =>   2
Atom   2C    basis set group =>   2
Atom   3C    basis set group =>   2
Atom   4C    basis set group =>   2
Atom   5O    basis set group =>   3
Atom   6O    basis set group =>   3
Atom   7H    basis set group =>   4
Atom   8H    basis set group =>   4
Atom   9H    basis set group =>   4
Atom  10H    basis set group =>   4
Atom  11H    basis set group =>   4
Atom  12H    basis set group =>   4
Atom  13H    basis set group =>   4
Atom  14H    basis set group =>   4
Atom  15H    basis set group =>   4
Atom  16O    basis set group =>   3
Atom  17H    basis set group =>   4
Atom  18H    basis set group =>   4
Atom  19O    basis set group =>   3
Atom  20H    basis set group =>   4
Atom  21H    basis set group =>   4
Atom  22O    basis set group =>   3
Atom  23H    basis set group =>   4
Atom  24H    basis set group =>   4
Atom  25O    basis set group =>   3
Atom  26H    basis set group =>   4
Atom  27H    basis set group =>   4
Atom  28O    basis set group =>   3
Atom  29H    basis set group =>   4
Atom  30H    basis set group =>   4
Atom  31O    basis set group =>   3
Atom  32H    basis set group =>   4
Atom  33H    basis set group =>   4
Atom  34O    basis set group =>   3
Atom  35H    basis set group =>   4
Atom  36H    basis set group =>   4
Atom  37O    basis set group =>   3
Atom  38H    basis set group =>   4
Atom  39H    basis set group =>   4
Atom  40O    basis set group =>   3
Atom  41H    basis set group =>   4
Atom  42H    basis set group =>   4
Atom  43O    basis set group =>   3
Atom  44H    basis set group =>   4
Atom  45H    basis set group =>   4
Atom  46O    basis set group =>   3
Atom  47H    basis set group =>   4
Atom  48H    basis set group =>   4
Atom  49O    basis set group =>   3
Atom  50H    basis set group =>   4
Atom  51H    basis set group =>   4
Atom  52H    basis set group =>   4
Atom  53O    basis set group =>   3
Atom  54H    basis set group =>   4
Atom  55O    basis set group =>   3
Atom  56H    basis set group =>   4
Atom  57H    basis set group =>   4
--------------------------------------------------------------------------
WARNING: There was an error initializing an OpenFabrics device.

  Local host:   ga01
  Local device: mlx5_0
--------------------------------------------------------------------------


[...]
 H     35  26  23     1.836115190291    19.63363312   345.87813515
 H     35  26  23     1.857413284215    87.92826094   124.69194145
 O     10   2   1     4.790794490709   134.30526359    71.44598493
 H     38  10   2     1.823846654142    90.24364656   102.34603013
 H     38  10   2     1.823956389575   119.13842971   355.42479721
 O     18  17   6     3.569160112745   162.47661153    47.31272029
 H     41  18  17     1.838115075095    90.29851950   340.60272439
 H     41  18  17     1.862073064034   122.21080193   233.17158983
 O      8   1   2     3.556450285597   178.01927939   112.42041972
 H     44   8   1     1.826117739842   113.12931820   302.90678992
 H     44   8   1     1.825051195782   112.96937588    63.26062989
 O     13   3   2     4.964652604310   142.74462131   224.47990481
 H     47  13   3     1.821928992226    93.16892662    72.08300488
 H     47  13   3     1.858123757337    58.88748405   326.86576649
 O     37  35  26     3.310880000930   171.45909567   359.52124004
 H     50  37  35     1.836009146081   132.71444110   226.36412896
 H     50  37  35     1.840867018461   111.39242170    12.34843020
 H     26  23  15     3.294478844780   129.60755766    78.09152411
 O     53  26  23     1.869738967885   169.63795145   236.84585580
 H     54  53  26     1.826122336109   106.31767092   255.24945095
 O     16   1   2     3.408381247639   163.55244605    74.79159711
 H     56  16   1     1.863943998913   106.21572276   324.40444540
 H     56  16   1     1.823393244188   118.25531639   203.57887546

--------------------------------------------------------------------------
WARNING: There was an error initializing an OpenFabrics device.

  Local host:   ga01
  Local device: mlx5_0
--------------------------------------------------------------------------


           ************************************************************
           *        Program running with 10 parallel MPI-processes    *
           *              working on a common directory               *
           ************************************************************
------------------------------------------------------------------------------
                   ___                                                        
                  /   \      - P O W E R E D   B Y -                         
                 /     \                                                     
                 |  |  |   _    _      __       _____    __    __             
                 |  |  |  | |  | |    /  \     |  _  \  |  |  /  |          
                  \  \/   | |  | |   /    \    | | | |  |  | /  /          
                 / \  \   | |__| |  /  /\  \   | |_| |  |  |/  /          
                |  |  |   |  __  | /  /__\  \  |    /   |      \           
                |  |  |   | |  | | |   __   |  |    \   |  |\   \          
                \     /   | |  | | |  |  |  |  | |\  \  |  | \   \       
                 \___/    |_|  |_| |__|  |__|  |_| \__\ |__|  \__/        
                                                                              
                      - O R C A' S   B I G   F R I E N D -                    
                                      &                                       
                       - I N T E G R A L  F E E D E R -                       
                                                                              
 v1 FN, 2020, v2 2021, v3 2022-2024                                           
------------------------------------------------------------------------------


----------------------
SHARK INTEGRAL PACKAGE
----------------------

Number of atoms                             ...     58
Number of basis functions                   ...    873
Number of shells                            ...    379
Maximum angular momentum                    ...      3
Integral batch strategy                     ... SHARK/LIBINT Hybrid
RI-J (if used) integral strategy            ... SPLIT-RIJ (Revised 2003 algorithm where possible)
Printlevel                                  ...      1
Contraction scheme used                     ... SEGMENTED contraction
Prescreening option                         ... SCHWARTZ
   Thresh                                   ... 2.500e-11
   Tcut                                     ... 2.500e-12
   Tpresel                                  ... 2.500e-12 
Coulomb Range Separation                    ... NOT USED
Exchange Range Separation                   ... NOT USED
Multipole approximations                    ... NOT USED
Finite Nucleus Model                        ... NOT USED
CABS basis                                  ... NOT available
Auxiliary Coulomb fitting basis             ... AVAILABLE
   # of basis functions in Aux-J            ...   1436
   # of shells in Aux-J                     ...    500
   Maximum angular momentum in Aux-J        ...      4
Auxiliary J/K fitting basis                 ... NOT available
Auxiliary Correlation fitting basis         ... NOT available
Auxiliary 'external' fitting basis          ... NOT available

Checking pre-screening integrals            ... done (  0.0 sec) Dimension = 379
Check shell pair data                       ... done (  0.0 sec)
Shell pair information
Shell pair cut-off parameter TPreSel        ...   2.5e-12
Total number of shell pairs                 ...     72010
Shell pairs after pre-screening             ...     42822
Total number of primitive shell pairs       ...    206976
Primitive shell pairs kept                  ...     78939
          la=0 lb=0:  14877 shell pairs
          la=1 lb=0:  13324 shell pairs
          la=1 lb=1:   3106 shell pairs
          la=2 lb=0:   4984 shell pairs
          la=2 lb=1:   2252 shell pairs
          la=2 lb=2:    411 shell pairs
          la=3 lb=0:   2352 shell pairs
          la=3 lb=1:   1063 shell pairs
          la=3 lb=2:    362 shell pairs
          la=3 lb=3:     91 shell pairs

Calculating one electron integrals          ... done (  0.1 sec)
Calculating RI/J V-Matrix + Cholesky decomp.... done (  0.1 sec)
Calculating Nuclear repulsion               ... done (  0.0 sec) ENN=   2259.722252219626 Eh

Diagonalization of the overlap matrix:
Smallest eigenvalue                        ... 8.221e-05
Time for diagonalization                   ...    0.114 sec
Threshold for overlap eigenvalues          ... 1.000e-07
Number of eigenvalues below threshold      ... 0
Time for construction of square roots      ...    0.053 sec
Total time needed                          ...    0.175 sec

-------------------
DFT GRID GENERATION
-------------------

General Integration Accuracy     IntAcc      ... 4.388
Radial Grid Type                 RadialGrid  ... OptM3 with GC (2021)
Angular Grid (max. ang.)         AngularGrid ... 4 (Lebedev-302)
Angular grid pruning method      GridPruning ... 4 (adaptive)
Weight generation scheme         WeightScheme... mBecke (2022)
Basis function cutoff            BFCut       ... 1.0000e-11
Integration weight cutoff        WCut        ... 1.0000e-14
Partially contracted basis set               ... off
Rotationally invariant grid construction     ... off
Angular grids for H and He will be reduced by one unit

Total number of grid points                  ...   244666
Total number of batches                      ...     3857
Average number of points per batch           ...       63
Average number of grid points per atom       ...     4218

--------------------
COSX GRID GENERATION
--------------------

GRIDX 1
-------
General Integration Accuracy     IntAcc      ... 3.816
Radial Grid Type                 RadialGrid  ... OptM3 with GC (2021)
Angular Grid (max. ang.)         AngularGrid ... 1 (Lebedev-50)
Angular grid pruning method      GridPruning ... 4 (adaptive)
Weight generation scheme         WeightScheme... mBecke (2022)
Basis function cutoff            BFCut       ... 1.0000e-11
Integration weight cutoff        WCut        ... 1.0000e-14
Partially contracted basis set               ... on
Rotationally invariant grid construction     ... off
Angular grids for H and He will be reduced by one unit

Total number of grid points                  ...    31115
Total number of batches                      ...      268
Average number of points per batch           ...      116
Average number of grid points per atom       ...      536
UseSFitting                                  ... on

GRIDX 2
-------
General Integration Accuracy     IntAcc      ... 4.020
Radial Grid Type                 RadialGrid  ... OptM3 with GC (2021)
Angular Grid (max. ang.)         AngularGrid ... 2 (Lebedev-110)
Angular grid pruning method      GridPruning ... 4 (adaptive)
Weight generation scheme         WeightScheme... mBecke (2022)
Basis function cutoff            BFCut       ... 1.0000e-11
Integration weight cutoff        WCut        ... 1.0000e-14
Partially contracted basis set               ... on
Rotationally invariant grid construction     ... off
Angular grids for H and He will be reduced by one unit

Total number of grid points                  ...    64562
Total number of batches                      ...      533
Average number of points per batch           ...      121
Average number of grid points per atom       ...     1113
UseSFitting                                  ... on

GRIDX 3
-------
General Integration Accuracy     IntAcc      ... 4.338
Radial Grid Type                 RadialGrid  ... OptM3 with GC (2021)
Angular Grid (max. ang.)         AngularGrid ... 3 (Lebedev-194)
Angular grid pruning method      GridPruning ... 4 (adaptive)
Weight generation scheme         WeightScheme... mBecke (2022)
Basis function cutoff            BFCut       ... 1.0000e-11
Integration weight cutoff        WCut        ... 1.0000e-14
Partially contracted basis set               ... on
Rotationally invariant grid construction     ... off
Angular grids for H and He will be reduced by one unit

Total number of grid points                  ...   139707
Total number of batches                      ...     1119
Average number of points per batch           ...      124
Average number of grid points per atom       ...     2409
UseSFitting                                  ... on
Initializing property integral containers    ... done (  0.0 sec)

SHARK setup successfully completed in   3.3 seconds

Maximum memory used throughout the entire STARTUP-calculation: 106.0 MB
[ga01:1450842] 9 more processes have sent help message help-mpi-btl-openib.txt / error in device init
[ga01:1450842] Set MCA parameter "orte_base_help_aggregate" to 0 to see all help / error messages
--------------------------------------------------------------------------
WARNING: There was an error initializing an OpenFabrics device.

  Local host:   ga01
  Local device: mlx5_0
--------------------------------------------------------------------------


           ************************************************************
           *        Program running with 10 parallel MPI-processes    *
           *              working on a common directory               *
           ************************************************************
Occupation numbers will be reassigned to an Aufbau configuration
             **** ENERGY FILE WAS UPDATED (00_Aminobutyric-acid_zwitterion.en.tmp) ****
Finished Guess after   0.9 sec
Maximum memory used throughout the entire GUESS-calculation: 88.9 MB
[ga01:1451108] 9 more processes have sent help message help-mpi-btl-openib.txt / error in device init
[ga01:1451108] Set MCA parameter "orte_base_help_aggregate" to 0 to see all help / error messages
--------------------------------------------------------------------------
WARNING: There was an error initializing an OpenFabrics device.

  Local host:   ga01
  Local device: mlx5_0
--------------------------------------------------------------------------


           ************************************************************
           *        Program running with 10 parallel MPI-processes    *
           *              working on a common directory               *
           ************************************************************
--------------------
CPCM SOLVATION MODEL
--------------------
CPCM parameters:
  Epsilon                                         ...      80.1510
  Refrac                                          ...       1.3328
  Rsolv                                           ...       1.3000
  Surface type                                    ... GAUSSIAN VDW
  Discretization scheme                           ... Constant charge density
    Threshold for H atoms                         ...       5.0000 (charges/Ang^2)
    Threshold for non-H atoms                     ...       5.0000 (charges/Ang^2)
  Epsilon function type                           ...         CPCM
Solvent:                                          ... WATER
Radii:
  Scheme                                          ... Element-dependent radii
  Radius for N  used is    3.5149 Bohr (=   1.8600 Ang.)
  Radius for C  used is    3.8550 Bohr (=   2.0400 Ang.)
  Radius for O  used is    3.4469 Bohr (=   1.8240 Ang.)
  Radius for H  used is    2.4944 Bohr (=   1.3200 Ang.)
Calculating surface                               ...        done! (  0.0s)
Cavity surface points                             ...         4759
Cavity Volume                                     ...    3151.8730
Cavity Surface-area                               ...    1893.2799
Calculating surface distance matrix               ...        done! (  0.1s)
Performing Cholesky decomposition & store         ...        done! (  0.6s)
Overall time for CPCM initialization              ...                 0.7s

----------------------------------------D-I-I-S--------------------------------------------
Iteration    Energy (Eh)           Delta-E    RMSDP     MaxDP     DIISErr   Damp  Time(sec)
-------------------------------------------------------------------------------------------
               ***  Starting incremental Fock matrix formation  ***
[ga01:1451152] 9 more processes have sent help message help-mpi-btl-openib.txt / error in device init
[ga01:1451152] Set MCA parameter "orte_base_help_aggregate" to 0 to see all help / error messages
    1    -1433.2423105866141668     0.00e+00  4.37e-05  5.39e-03  1.93e-02  0.700   8.2
    2    -1433.2430397460411768    -7.29e-04  3.96e-05  4.75e-03  1.47e-02  0.700   4.0
                               ***Turning on AO-DIIS***
    3    -1433.2435991809315965    -5.59e-04  3.17e-05  3.73e-03  1.07e-02  0.700   3.8
    4    -1433.2440070715701950    -4.08e-04  7.86e-05  8.99e-03  7.66e-03  0.000   3.7
                              *** Initializing SOSCF ***
---------------------------------------S-O-S-C-F--------------------------------------
Iteration    Energy (Eh)           Delta-E    RMSDP     MaxDP     MaxGrad    Time(sec)
--------------------------------------------------------------------------------------
    5    -1433.2450168785371716    -1.01e-03  3.52e-06  2.67e-04  1.77e-04     4.9
               *** Restarting incremental Fock matrix formation ***
    6    -1433.2450160042362768     8.74e-07  2.36e-06  2.14e-04  2.97e-05     8.8
    7    -1433.2450161345509514    -1.30e-07  1.54e-06  1.26e-04  5.13e-05     3.8
    8    -1433.2450161402935009    -5.74e-09  1.07e-06  9.68e-05  3.42e-05     3.7
                 **** Energy Check signals convergence ****

               *****************************************************
               *                     SUCCESS                       *
               *           SCF CONVERGED AFTER   8 CYCLES          *
               *****************************************************

Recomputing exchange energy using gridx3       ... done (   11.127 sec)
Old exchange energy                            :    -34.419359494 Eh
New exchange energy                            :    -34.419429349 Eh
Exchange energy change after final integration :     -0.000069855 Eh
Total energy after final integration           :  -1433.245085995 Eh
             **** ENERGY FILE WAS UPDATED (00_Aminobutyric-acid_zwitterion.en.tmp) ****

----------------
TOTAL SCF ENERGY
----------------

Total Energy       :      -1433.24508599498427 Eh          -39000.58154 eV

Components:
Nuclear Repulsion  :       2259.72225221962617 Eh           61490.16858 eV
Electronic Energy  :      -3692.80581632454914 Eh         -100486.35489 eV
One Electron Energy:      -6471.08913253477840 Eh         -176087.28740 eV
Two Electron Energy:       2778.28331621022926 Eh           75600.93251 eV
CPCM Dielectric    :         -0.16145203537069 Eh              -4.39333 eV

Virial components:
Potential Energy   :      -2860.73466302397082 Eh          -77844.54772 eV
Kinetic Energy     :       1427.48957702898679 Eh           38843.96618 eV
Virial Ratio       :          2.00403190962555

DFT components:
N(Alpha)           :       97.999949076253 electrons
N(Beta)            :       97.999949076253 electrons
N(Total)           :      195.999898152507 electrons
E(X)               :     -137.065069408392 Eh       
E(C)               :       -7.956215168750 Eh       
E(XC)              :     -145.021284577141 Eh       

CPCM Solvation Model Properties:
Surface-charge          :         -0.02770082959661
Corrected charge        :         -0.00000000000000
Outlying charge corr.   :          0.00003684355039 Eh               0.00100 eV
Free-energy (cav+disp)  :  This term is not implemented in the current solvation scheme

---------------
SCF CONVERGENCE
---------------

  Last Energy change         ...    5.7425e-09  Tolerance :   1.0000e-08
  Last MAX-Density change    ...    9.6820e-05  Tolerance :   1.0000e-07
  Last RMS-Density change    ...    1.0726e-06  Tolerance :   5.0000e-09
  Last DIIS Error            ...    1.7720e-04  Tolerance :   5.0000e-07
  Last Orbital Gradient      ...    3.4240e-05  Tolerance :   1.0000e-05
  Last Orbital Rotation      ...    3.2764e-05  Tolerance :   1.0000e-05


Total SCF time: 0 days 0 hours 0 min 53 sec 
Finished LeanSCF after  54.3 sec

Maximum memory used throughout the entire LEANSCF-calculation: 145.7 MB


-------------------------------------------------------------------------------
                          DFT DISPERSION CORRECTION                            
                                                                               
                                DFTD4 V3.4.0                                   
-------------------------------------------------------------------------------
-------------------------   ----------------
Dispersion correction           -0.063952377
-------------------------   ----------------


-------------------------   --------------------
FINAL SINGLE POINT ENERGY     -1433.309038372180
-------------------------   --------------------

--------------------------------------------------------------------------
WARNING: There was an error initializing an OpenFabrics device.

  Local host:   ga01
  Local device: mlx5_0
--------------------------------------------------------------------------


           ************************************************************
           *        Program running with 10 parallel MPI-processes    *
           *              working on a common directory               *
           ************************************************************
------------------------------------------------------------------------------
                         ORCA SCF GRADIENT CALCULATION
------------------------------------------------------------------------------

Nuc. rep. gradient        (SHARK) ... done (  0.0 sec)
HCore & Overlap gradient  (SHARK) ... done (  0.6 sec)
Split-RIJ-J gradient      (SHARK) ... done (  1.9 sec)
COSX-gradient                     ... [ga01:1451407] 9 more processes have sent help message help-mpi-btl-openib.txt / error in device init
[ga01:1451407] Set MCA parameter "orte_base_help_aggregate" to 0 to see all help / error messages
