34
 energy: -56.601456967317 gnorm: 0.183473411023 xtb: 6.7.1 (edcfbbe)
C            0.00071700000000       -0.52255800000000        0.67804400000000
C            0.00015500000000        0.09392700000000        2.05036800000000
O           -0.00019500000000       -0.63013100000000        3.03226200000000
O           -0.00079700000000        1.43155900000000        2.21643300000000
C            0.00098900000000        0.52531100000000       -0.44326000000000
N           -0.00030100000000       -0.11659100000000       -1.75665200000000
H            0.90259300000000       -1.16292800000000        0.57888800000000
H           -0.90264000000000       -1.16023800000000        0.57901700000000
H           -0.90200200000000        1.16741300000000       -0.35103700000000
H            0.90366600000000        1.16894900000000       -0.35172000000000
H           -0.85706900000000       -0.70553200000000       -1.86752300000000
H            0.85322800000000       -0.71006900000000       -1.86779500000000
H            0.00165600000000        0.62088700000000       -2.49702600000000
O            2.06406000000000       -2.39764000000000        2.55111700000000
H            1.97797700000000       -3.33387900000000        2.24022000000000
H            3.02336100000000       -2.18346500000000        2.43076700000000
O            2.37021400000000        2.37474800000000       -2.97297000000000
H            2.00637500000000        1.52596100000000       -2.61548800000000
H            2.74827500000000        2.13063100000000       -3.85506400000000
O            3.12985600000000       -2.14138700000000       -0.48683900000000
H            3.18024700000000       -1.16521600000000       -0.32821300000000
H            2.62916100000000       -2.49369700000000        0.29149000000000
O            3.04339900000000        0.08718700000000        2.86538700000000
H            2.94729400000000        0.51085800000000        3.75526200000000
H            2.12251700000000       -0.17841100000000        2.61629800000000
O            3.22562200000000        1.61093300000000        0.26056800000000
H            3.40316300000000        1.05772800000000       -0.54133900000000
H            2.71923000000000        1.01373300000000        0.86681100000000
O            1.83218600000000       -2.90497500000000       -2.09683300000000
H            1.18809100000000       -3.56778100000000       -2.45241700000000
H            2.71079400000000       -3.20187100000000       -2.44398400000000
O            3.37788500000000       -0.18644100000000       -2.36655200000000
H            4.30741600000000       -0.33971900000000       -2.67165500000000
H            2.88957000000000       -1.00393900000000       -2.63832100000000
34
 energy: -56.631824355761 gnorm: 0.093763231502 xtb: 6.7.1 (edcfbbe)
C           -0.00555389056754       -0.50538367760513        0.66512003468596
C           -0.02190859103095        0.10724274248045        2.05676665767177
O           -0.02116808687106       -0.63551658300872        3.04878228144569
O           -0.00725024271969        1.39624088250092        2.16775753311702
C            0.00133076655399        0.53519819145423       -0.44915838350134
N            0.00447418658810       -0.11897356319024       -1.76870421907883
H            0.87993311558500       -1.15110456552531        0.59440249387471
H           -0.89085084122065       -1.15063911234447        0.59166144752277
H           -0.88392232317385        1.17188567517402       -0.34433863789325
H            0.88403201117622        1.17757940757452       -0.34515770805352
H           -0.83999764422651       -0.70236890981107       -1.87647441085279
H            0.84344975773132       -0.71962999251100       -1.86849555700278
H            0.00843753033926        0.60312109883479       -2.50611257346264
O            2.07086829682453       -2.41293106775711        2.48861263333153
H            2.00394718811008       -3.35918804666249        2.26361703749812
H            3.02543664799564       -2.20085971456129        2.45581413008668
O            2.31587712433442        2.38503222759990       -3.00710000507426
H            2.07595520681729        1.52203116050071       -2.60512399732511
H            2.75490878913622        2.14014330373362       -3.84153779086052
O            3.19185602022509       -2.12228197848076       -0.40765654797274
H            3.20090257370322       -1.15695903392969       -0.29149932230542
H            2.63213866217126       -2.46526090105736        0.31092440969740
O            3.02911945019384        0.11296584046676        2.86056517542598
H            2.96166867075568        0.51045787680949        3.74297530865198
H            2.12217061146064       -0.18710412587643        2.66972000122146
O            3.20785513762528        1.60945052651302        0.23676724911923
H            3.39833744698260        1.05068308213882       -0.54149024283056
H            2.75805982709130        1.02852034772295        0.87889404471821
O            1.78492963899281       -2.89249091562243       -2.20161803379638
H            1.17414046799212       -3.59340741803659       -2.48760265416285
H            2.67581857397182       -3.22963870906245       -2.42738227736438
O            3.36573214549112       -0.18069236071701       -2.39475817718814
H            4.28854164850968       -0.33610389002125       -2.65175487397943
H            2.90742312345161       -1.01666079772339       -2.60817102536349
34
 energy: -56.644837568403 gnorm: 0.046245803214 xtb: 6.7.1 (edcfbbe)
C           -0.01171904273142       -0.49847064765542        0.65198282511168
C           -0.02443293319738        0.13792544637779        2.05792975705716
O           -0.05419600777079       -0.63520236216666        3.04437301244930
O           -0.04805975006580        1.37558281131951        2.13069234152248
C            0.00174674015950        0.54158670099133       -0.45116789334947
N            0.01267677280617       -0.11997148190370       -1.77811898976525
H            0.86508893093394       -1.14399271089086        0.60977137350455
H           -0.89026817054775       -1.14286988347085        0.59938987509120
H           -0.87414202719871        1.17561490973731       -0.34909811963492
H            0.87412463608981        1.18191893684127       -0.34268938862926
H           -0.82490382940834       -0.69698263524684       -1.88544699940408
H            0.83615507953837       -0.73319674086377       -1.86405814204809
H            0.02805953223605        0.59080736795048       -2.51445125901895
O            2.08965074518231       -2.43905675039537        2.40842141649847
H            2.04177949817280       -3.40419605562193        2.29360559709242
H            3.03853205785950       -2.22462185448252        2.47232439141844
O            2.26567857735042        2.38770775372478       -3.03713715560308
H            2.16481634579469        1.50800601178615       -2.59414081062886
H            2.75005325884161        2.16768846417218       -3.84063855393227
O            3.21553461740242       -2.12228116291069       -0.35536454000154
H            3.23789815687495       -1.16715921654306       -0.26868955684915
H            2.64741242645587       -2.44407365598912        0.34655928020251
O            3.00420598253261        0.12263737836142        2.86033297800804
H            2.98475346039192        0.53249258255527        3.72691558633892
H            2.10132696406585       -0.20094933115011        2.73576393751281
O            3.18763438601478        1.60886436588860        0.20147282694125
H            3.39115094425567        1.03474520749272       -0.55010828379928
H            2.81945969286393        1.04495202582420        0.90403919245211
O            1.75092765087513       -2.86457438398562       -2.27895310302408
H            1.15925978330198       -3.58860300366331       -2.50606137205637
H            2.64264958876007       -3.22335313247567       -2.41593122477647
O            3.34550648591111       -0.19170100057874       -2.38915475890870
H            4.25917259734832       -0.32235274130982       -2.63881679325211
H            2.90915984890034       -1.03356421171891       -2.57530344651921
34
 energy: -56.651183542292 gnorm: 0.070155661345 xtb: 6.7.1 (edcfbbe)
C           -0.02888351713870       -0.50049381803348        0.64426996798013
C           -0.09246185766871        0.17215648101632        2.05479405908167
O           -0.05786797521306       -0.61581129760539        3.03742404240807
O           -0.06011115554193        1.39882257813443        2.09661484576581
C            0.00090912021400        0.53729668714473       -0.45662293107957
N            0.02615146458792       -0.12448276189102       -1.78920430126099
H            0.85436638465541       -1.13583821286278        0.63588570942738
H           -0.90227501628701       -1.14644561569762        0.59328659138760
H           -0.87423591282170        1.17329602864091       -0.36848108046350
H            0.87195402552777        1.17762395841481       -0.34086517874602
H           -0.81377438340287       -0.69351980211916       -1.90339223518051
H            0.83840227249408       -0.75305104406782       -1.85710679249058
H            0.06347286089771        0.58213208395900       -2.52715795902701
O            2.11653169656011       -2.47501304637010        2.32041189625205
H            2.08976449059811       -3.46020869232983        2.32309468223555
H            3.05972115971662       -2.25518754786921        2.48868396620327
O            2.26285677593301        2.36855882613869       -3.03514781533975
H            2.21752704523202        1.49205394388673       -2.61397777714023
H            2.75283791898092        2.21390731675168       -3.84466922528349
O            3.24760871031388       -2.13458240373916       -0.29839124445093
H            3.28490795113953       -1.17637156018671       -0.25167896413035
H            2.63745922853377       -2.41387080034740        0.39235836109218
O            2.96170357937543        0.15198173497399        2.83923828372844
H            3.02469357916584        0.56496534854993        3.70961293132218
H            2.05670273505799       -0.23585464794105        2.82569720317323
O            3.15455433133536        1.61086779608037        0.16166599290202
H            3.39014912865846        1.00345371426943       -0.55507311255418
H            2.89983852619307        1.05158435450317        0.93916638325488
O            1.72151760644681       -2.81686452478540       -2.36428963609187
H            1.13997855934398       -3.57598083594677       -2.51856267014333
H            2.61853643165622       -3.21995431229650       -2.39072904858424
O            3.30133312934009       -0.18229252307416       -2.40890176669828
H            4.23007090930803       -0.30384780865577       -2.61118356809368
H            2.90275319680773       -1.06567259664480       -2.51852560945565
34
 energy: -56.654376848745 gnorm: 0.081248539361 xtb: 6.7.1 (edcfbbe)
C           -0.04109314965774       -0.50384661228894        0.63995350975437
C           -0.11618866935983        0.20865244181765        2.05483490406352
O           -0.06954578111862       -0.59123444397483        3.03270916870195
O           -0.11585038302294        1.43812607627983        2.06549177254479
C            0.00246086451778        0.52991201655809       -0.46187153700058
N            0.04033952474984       -0.12815372443169       -1.80084190017921
H            0.84552724397667       -1.13150926581143        0.66076810877605
H           -0.91679987011150       -1.14473170408483        0.59673614755453
H           -0.87308237756332        1.17106379444002       -0.38670797562884
H            0.87545978107600        1.17009376880393       -0.33969217953659
H           -0.80651978426717       -0.68621447874557       -1.92444549901534
H            0.84040160499881       -0.77523089369543       -1.85133498310523
H            0.10652825628854        0.57713514945128       -2.53999050890378
O            2.17755199872838       -2.56919705553553        2.33094257086855
H            2.12350375510565       -3.49993799067655        2.29067378591503
H            3.07050760878333       -2.28430007638916        2.45697559183721
O            2.18748130141870        2.35281200756041       -3.07367968039042
H            2.32807832171525        1.45691153688458       -2.62055719806073
H            2.76864081748405        2.26321683499968       -3.85381542073238
O            3.30228937812748       -2.14858634371382       -0.22317300976638
H            3.33584929508953       -1.18058712016636       -0.23871153816656
H            2.63644845691880       -2.36901871500165        0.45789593432698
O            2.92546430559302        0.12201025720200        2.85172396881854
H            3.04737948817860        0.60608426358845        3.68763731608146
H            2.01893197895515       -0.22636808493310        2.87959508299225
O            3.17356034241024        1.58995859151262        0.16377824291159
H            3.38478986526531        0.99121651682208       -0.55961829733557
H            2.92860546694125        1.07239741302711        0.93989506768934
O            1.69137276080340       -2.80581803445205       -2.41844885905884
H            1.10368682306867       -3.54983123141145       -2.54991082637952
H            2.56908819342971       -3.17839536725907       -2.41955464252194
O            3.26586567809795       -0.19181420946975       -2.38645718858572
H            4.20044052445329       -0.28850806292620       -2.58329197898006
H            2.88551937892535       -1.08295025397989       -2.46926394948804
34
 energy: -56.654881215914 gnorm: 0.100311643840 xtb: 6.7.1 (edcfbbe)
C           -0.04451608386148       -0.50298986966408        0.64172840452889
C           -0.06252209436418        0.22632659923636        2.05510050761054
O           -0.09641833019988       -0.56578229242412        3.03338474198469
O           -0.20008038746632        1.47185785000489        2.05378609851807
C            0.00590015698471        0.52146600817954       -0.46894505366630
N            0.04980536813498       -0.13520086063530       -1.80746177115113
H            0.83741869945282       -1.13336905301015        0.67044896924198
H           -0.93042898907284       -1.13437894746234        0.60743565693295
H           -0.86985391656514        1.16952366598680       -0.40107211752046
H            0.88402471024785        1.15918577356290       -0.34316188041191
H           -0.80659970588904       -0.68233578833743       -1.94146273348110
H            0.84325194328993       -0.79417902766777       -1.84898767718475
H            0.14147286254102        0.57133975742895       -2.54745191090113
O            2.17900161695023       -2.59041367490956        2.20620251556591
H            2.16717117850264       -3.56754877853685        2.35210173631242
H            3.07646078934952       -2.30698839388462        2.50243596587032
O            2.25300527600731        2.32022831533477       -3.04450554180746
H            2.30716009106308        1.47880431033868       -2.65506479927388
H            2.73856593931380        2.29680590279171       -3.87356430993884
O            3.31991997261889       -2.14922308876458       -0.19509814089719
H            3.36955180467123       -1.18145682087096       -0.22383192941365
H            2.67827034646342       -2.34745908590136        0.50922357787406
O            2.91043649633401        0.09197880641361        2.86711754089654
H            3.03898028078984        0.62770901111563        3.66657446726304
H            2.01364482973439       -0.19591687248961        2.87725408090331
O            3.18459191426044        1.56808048750422        0.16786451290257
H            3.38270166429582        0.97312624982014       -0.56106266975427
H            2.95260076625138        1.07769192392631        0.93604315165638
O            1.67006900892226       -2.79756521868701       -2.46016772797679
H            1.07698549279358       -3.53102562245240       -2.57422022548049
H            2.54200375400077       -3.15992616559046       -2.41130041769464
O            3.25295939285957       -0.21696205024781       -2.33083961747077
H            4.17455943542995       -0.27917798967014       -2.58727493349507
H            2.85659871615549       -1.06886806043738       -2.46298447054162
34
 energy: -56.655214111374 gnorm: 0.115690660263 xtb: 6.7.1 (edcfbbe)
C           -0.04887721327404       -0.49284673380942        0.64303752565478
C           -0.07752893500754        0.21971896945897        2.04580660615274
O           -0.08853648624824       -0.54862711414178        3.03049309004567
O           -0.20829568943987        1.47060695575176        2.06474135066867
C            0.00773948393442        0.52173559793665       -0.47947237854302
N            0.05513025153298       -0.13802481489597       -1.81008295141598
H            0.83344921005259       -1.12876649933145        0.67138477141023
H           -0.93539625797047       -1.12711353750092        0.59797032242645
H           -0.86863742136738        1.17110869639098       -0.41576910589818
H            0.88933624317722        1.15541511552057       -0.34985435271042
H           -0.80755548620660       -0.67714484060223       -1.95559770618249
H            0.84950489000383       -0.79755452658831       -1.85188265139757
H            0.15832518768629        0.57141542270617       -2.54867368463625
O            2.17770590236391       -2.59663084204819        2.21414159541903
H            2.17953839843194       -3.58432015472992        2.36046254276969
H            3.07787105792963       -2.30524593012715        2.50733692880293
O            2.18669733488319        2.33011133985840       -3.07810011745074
H            2.39826773966779        1.43177705199004       -2.63065448890585
H            2.72759206728756        2.31252862784870       -3.88300785776618
O            3.27587929307925       -2.14015896958960       -0.24029696824302
H            3.38683717264468       -1.18658837161911       -0.21618690061356
H            2.72274458903460       -2.35688859639789        0.51215481721076
O            2.89980778358803        0.11902115624991        2.85558021030929
H            3.03059236386304        0.61563479236049        3.66771929097149
H            1.99653158448684       -0.21220847065040        2.89975794465613
O            3.12201856565046        1.59271325246008        0.13052528388081
H            3.37804178686466        0.94139979901121       -0.55328535616228
H            3.01417979744166        1.06269939629092        0.98542686849493
O            1.65712847482199       -2.73482213069855       -2.51417393224183
H            1.07249937348404       -3.52069873193981       -2.57135553799033
H            2.56431317513109       -3.19012928591565       -2.33577470137232
O            3.25164330245533       -0.21461111830899       -2.31016710134425
H            4.16883984882038       -0.28043806061101       -2.58634041880373
H            2.84930561119629       -1.06971044432810       -2.44761893719540
34
 energy: -56.654821354425 gnorm: 0.102595204896 xtb: 6.7.1 (edcfbbe)
C           -0.05584547391644       -0.47758608893514        0.64142718875265
C           -0.18765272379410        0.22063871711102        2.03623821214862
O           -0.04738369877945       -0.53564228251551        3.02910996202358
O           -0.16807302351471        1.44663866664148        2.06661381108467
C            0.01022959689571        0.52716174913351       -0.48817258727004
N            0.06155348662539       -0.14194829394346       -1.81192263895828
H            0.82792740272761       -1.11792822431178        0.68278906851234
H           -0.93188497749211       -1.12157858073287        0.58627727847130
H           -0.86257732044245        1.17293616059833       -0.42731315266638
H            0.88816999734898        1.15726175548765       -0.35516837293796
H           -0.80160613170953       -0.67132007565195       -1.96687801773041
H            0.85162397057714       -0.80406985781741       -1.85248097015028
H            0.17329155776433        0.56459733575614       -2.54752708600199
O            2.20886973796751       -2.64401754870213        2.33618947091114
H            2.16905914971176       -3.56239284594780        2.30115536591386
H            3.07294948399241       -2.30833934930954        2.47327754501727
O            2.24420028162267        2.31706501993821       -3.06286901222946
H            2.36831024050105        1.43506622372377       -2.65666343702579
H            2.70734680457231        2.30842753462581       -3.89428683904431
O            3.27738143481461       -2.13956021152725       -0.24465405147983
H            3.40545411754200       -1.19344211569581       -0.21189931452048
H            2.75467484749402       -2.35553813921211        0.52881245938866
O            2.89109166778019        0.15711678149588        2.83153844058166
H            3.04203214899222        0.61135790178154        3.66138945880288
H            1.97106639026592       -0.24097162005017        2.94381656539430
O            3.15265347808203        1.57783436981862        0.14729555909213
H            3.36638908729703        0.94159937521945       -0.55523002142980
H            2.99427251913278        1.05665073770510        0.97984493762224
O            1.65758831522968       -2.76923286613136       -2.45595952540295
H            1.05641978132076       -3.50122405256703       -2.58566752642393
H            2.54073733867355       -3.14177921084465       -2.40299803487336
O            3.24771071518817       -0.19376929348422       -2.31509671681795
H            4.16173017016519       -0.28108085628012       -2.58384618870835
H            2.84898262736314       -1.07957381537566       -2.41889783004569
34
 energy: -56.659660785066 gnorm: 0.102849756594 xtb: 6.7.1 (edcfbbe)
C           -0.05808231808196       -0.47971021594647        0.64219107276902
C           -0.15505105568606        0.22964206119397        2.03807622438385
O           -0.04198379244153       -0.53265115093956        3.03004136193890
O           -0.20928908905699        1.46505534442791        2.06027128009128
C            0.01198051318020        0.52829603668425       -0.48504972782026
N            0.06571881796365       -0.14076057514930       -1.81005144631567
H            0.82308363793459       -1.11812891206264        0.68171440484212
H           -0.93864304947909       -1.11802929340754        0.58891144503119
H           -0.85982752933861        1.17898750116938       -0.43010675011785
H            0.89266612980601        1.15787310463789       -0.35456634015570
H           -0.80034691110187       -0.66427511288753       -1.97032560291677
H            0.85058944055218       -0.81096872602921       -1.84542965272921
H            0.18972454527759        0.56513973561351       -2.54538661222984
O            2.19134372889479       -2.63832231002758        2.22420116335562
H            2.20425752031592       -3.61643215309873        2.36125688238964
H            3.07593568616450       -2.32032804542838        2.53280323385890
O            2.17961525252994        2.30684371335141       -3.08457870962810
H            2.41330816515117        1.40842412853685       -2.66533906240045
H            2.72596545288083        2.32601293486965       -3.89065982303082
O            3.29425189852899       -2.14854457229367       -0.23339012481736
H            3.42651225462900       -1.19337393066486       -0.22108709184704
H            2.74651444916432       -2.34095076887119        0.54631308897585
O            2.88673343791656        0.09752375733139        2.84936650680789
H            3.04201128249586        0.61809012765021        3.64985041932395
H            1.96970083600920       -0.20169604771104        2.90902167833130
O            3.21377944352999        1.54038249021894        0.20242765199611
H            3.35357175012267        0.96033412978896       -0.55186983079209
H            2.94303885592776        1.06231376803017        0.94049226337490
O            1.65664726243229       -2.77075355408725       -2.45705041395938
H            1.04476799352434       -3.48098913513388       -2.59322336537127
H            2.51960320928574       -3.12125011817153       -2.41656104140613
O            3.23990370716408       -0.18503461163125       -2.31194518360336
H            4.15677830487146       -0.27620403520926       -2.57985523988331
H            2.84191316893216       -1.07315856475308       -2.40221865844580
34
 energy: -56.646425300516 gnorm: 0.168655632641 xtb: 6.7.1 (edcfbbe)
C           -0.05977445592841       -0.48701045423037        0.64051357702750
C           -0.02463666559781        0.23426409741888        2.03685801614435
O           -0.07052512066511       -0.52902222237359        3.02987627170249
O           -0.30538833431201        1.49435951509123        2.04519749818683
C            0.01418614853630        0.52450514840955       -0.48592545278830
N            0.07148699653425       -0.14461811667641       -1.81153602763099
H            0.81387115872988       -1.12542435183248        0.67522094366901
H           -0.95158090667614       -1.11400298158916        0.59081372741734
H           -0.85608037006730        1.18430140053623       -0.43917683024459
H            0.89926543550065        1.15383597851817       -0.35830328310510
H           -0.79874539624513       -0.66179599588455       -1.97883750124998
H            0.85091686765590       -0.82423767940745       -1.83950755785671
H            0.21208089871880        0.56002366005360       -2.54812543834694
O            2.21257975447691       -2.66243963197099        2.26155115917277
H            2.19725676076807       -3.61573250030969        2.35686003454386
H            3.07307945055394       -2.31902407121983        2.52961065574401
O            2.24383534178749        2.27497143190540       -3.04931121549278
H            2.35231530971705        1.44484095320275       -2.70248539587801
H            2.72099419888219        2.32875978235407       -3.89197845084473
O            3.29177209748369       -2.15300960099839       -0.24653077804052
H            3.45008652908006       -1.19529548500993       -0.21911175540426
H            2.75262647342919       -2.34103484014946        0.55132452575509
O            2.86653296871638        0.06010798258857        2.87090386033911
H            3.03051034041257        0.62970907770431        3.64523911458027
H            1.96936046934100       -0.16326488478398        2.88808790943931
O            3.17386877732503        1.54071144315228        0.16720555045058
H            3.33217982870168        0.92053482832553       -0.55455789833453
H            3.01135852160606        1.06146700321362        0.98017316203300
O            1.63618154217339       -2.69405359122301       -2.56142838026454
H            1.04336043303648       -3.48561783440238       -2.58015358185768
H            2.53278597444309       -3.16509205339304       -2.30996852428011
O            3.23733383831729       -0.19701048046112       -2.28446969459728
H            4.14742227471506       -0.27295417219064       -2.59106325259849
H            2.82617585884909       -1.04839435436692       -2.40872098739008
34
 energy: -56.665237532483 gnorm: 0.055259607331 xtb: 6.7.1 (edcfbbe)
C           -0.06056115145331       -0.47692058158540        0.63902814805481
C           -0.11465682276700        0.23510355816685        2.02751372795037
O           -0.04585928845854       -0.51649173049149        3.02616080187516
O           -0.26291984722467        1.47657655996454        2.04733589589278
C            0.01630188407537        0.52766027454190       -0.49268142006196
N            0.07483390752737       -0.14534929905571       -1.81385607933221
H            0.81414162588028       -1.12352515172383        0.67740082265067
H           -0.94855097793181       -1.10824321286540        0.58476992475260
H           -0.85290780186358        1.18433681153025       -0.44446668791006
H            0.89990241092039        1.15403244749848       -0.36059390705698
H           -0.79704332365481       -0.65718960850524       -1.98523295255817
H            0.85248910807102       -0.82645409872594       -1.84122822337771
H            0.21899788411682        0.55874174780149       -2.54923163849329
O            2.21203679177783       -2.65642204136375        2.25282515323063
H            2.21074152854233       -3.61996856761542        2.36319239397463
H            3.07952209885508       -2.32636822111570        2.53658279110609
O            2.20805293199526        2.29289879402780       -3.07505230160099
H            2.39926060062394        1.41432155090113       -2.68930359828520
H            2.71571113876604        2.32921140927616       -3.89207110735238
O            3.28967568727438       -2.15433303410751       -0.24078327690724
H            3.45183469579997       -1.20284093055022       -0.21130735166753
H            2.75968466107884       -2.34290538195964        0.55556766813384
O            2.87162592229327        0.07930764638351        2.86068563882292
H            3.03287497131301        0.61903451186874        3.64480442350019
H            1.94571262813229       -0.17708236651903        2.91495121399896
O            3.15072996389216        1.55767448969361        0.14258346301709
H            3.32587504879703        0.90410467458012       -0.55640138748103
H            3.03587568347310        1.05111726353397        1.01365661005455
O            1.64553294367846       -2.73849311866266       -2.48215221010219
H            1.03560134796036       -3.46027723446895       -2.60144935141321
H            2.51865786795992       -3.12179088992762       -2.37614095312556
O            3.24262835340297       -0.19256027075430       -2.27342590156421
H            4.14638180247251       -0.27667363350009       -2.58851848139648
H            2.82450872467309       -1.04687536626998       -2.40491784732903
34