
                                 *****************
                                 * O   R   C   A *
                                 *****************

                                            #,                                       
                                            ###                                      
                                            ####                                     
                                            #####                                    
                                            ######                                   
                                           ########,                                 
                                     ,,################,,,,,                         
                               ,,#################################,,                 
                          ,,##########################################,,             
                       ,#########################################, ''#####,          
                    ,#############################################,,   '####,        
                  ,##################################################,,,,####,       
                ,###########''''           ''''###############################       
              ,#####''   ,,,,##########,,,,          '''####'''          '####       
            ,##' ,,,,###########################,,,                        '##       
           ' ,,###''''                  '''############,,,                           
         ,,##''                                '''############,,,,        ,,,,,,###''
      ,#''                                            '''#######################'''  
     '                                                          ''''####''''         
             ,#######,   #######,   ,#######,      ##                                
            ,#'     '#,  ##    ##  ,#'     '#,    #''#        ,####,   ,####,        
            ##       ##  ##   ,#'  ##            #'  '#       #'       #'  '#        
            ##       ##  #######   ##           ,######,      #####,   #    #        
            '#,     ,#'  ##    ##  '#,     ,#' ,#      #,     #,   #   #,  ,#        
             '#######'   ##     ##  '#######'  #'      '#     '####' # '####'        



                #########################################################
                #                        -***-                          #
                #          Department of theory and spectroscopy        #
                #                                                       #
                #                      Frank Neese                      #
                #                                                       #
                #     Directorship, Architecture, Infrastructure        #
                #                    SHARK, DRIVERS                     #
                #        Core code/Algorithms in most modules           #
                #                                                       #
                #        Max Planck Institute fuer Kohlenforschung      #
                #                Kaiser Wilhelm Platz 1                 #
                #                 D-45470 Muelheim/Ruhr                 #
                #                      Germany                          #
                #                                                       #
                #                  All rights reserved                  #
                #                        -***-                          #
                #########################################################


                         Program Version 6.0.1  -  RELEASE   -


 With contributions from (in alphabetic order):
[Max-Planck-Institut fuer Kohlenforschung]                               
  Daniel Aravena         : Magnetic Suceptibility                        
  Michael Atanasov       : Ab Initio Ligand Field Theory (pilot matlab implementation)
  Alexander A. Auer      : GIAO ZORA, VPT2 properties, NMR spectrum      
  Ute Becker             : All parallelization in ORCA, NUMFREQ, NUMCALC 
  Giovanni Bistoni       : ED, misc. LED, open-shell LED, HFLD           
  Martin Brehm           : Molecular dynamics                            
  Dmytro Bykov           : pre 5.0 version of the SCF Hessian            
  Marcos Casanova-Páez   : Triplet and SCS-CIS(D). UHF-(DLPNO)-IP/EA/STEOM-CCSD. UHF-CVS-IP/STEOM-CCSD   
  Vijay G. Chilkuri      : MRCI spin determinant printing, contributions to CSF-ICE 
  Pauline Colinet        : FMM embedding                                 
  Dipayan Datta          : RHF DLPNO-CCSD density                        
  Achintya Kumar Dutta   : EOM-CC, STEOM-CC                              
  Nicolas Foglia         : Exact transition moments, OPA infrastructure, MCD improvements    
  Dmitry Ganyushin       : Spin-Orbit,Spin-Spin,Magnetic field MRCI      
  Miquel Garcia-Rates    : C-PCM and meta-GGA Hessian, CCSD/C-PCM, Gaussian charge scheme 
  Tiago L. C. Gouveia    : GS-ROHF, GS-ROCIS                             
  Yang Guo               : DLPNO-NEVPT2, F12-NEVPT2, CIM, IAO-localization        
  Andreas Hansen         : Spin unrestricted coupled pair/coupled cluster methods 
  Ingolf Harden          : AUTO-CI MPn and infrastructure                
  Benjamin Helmich-Paris : MC-RPA, TRAH-(SCF,CASSCF), AVAS, COSX integrals, SCF dyn. polar. 
  Lee Huntington         : MR-EOM, pCC                                   
  Robert Izsak           : Overlap fitted RIJCOSX, COSX-SCS-MP3, EOM     
  Riya Kayal             : Wick's Theorem for AUTO-CI, AUTO-CI UHF-CCSDT 
  Emily Kempfer          : AUTO-CI, RHF CISDT and CCSDT                  
  Christian Kollmar      : KDIIS, OOCD, Brueckner-CCSD(T), CCSD density, CASPT2, CASPT2-K, improved NEVPT2 
  Axel Koslowski         : Symmetry handling                             
  Simone Kossmann        : meta-GGA functionals, TD-DFT gradient, OOMP2, (MP2 Hessian; deprecated post 5.0) 
  Lucas Lang             : DCDCAS                                        
  Marvin Lechner         : AUTO-CI (C++ implementation), FIC-MRCC        
  Spencer Leger          : CASSCF response                               
  Dagmar Lenk            : GEPOL surface, SMD, ORCA-2-JSON               
  Dimitrios Liakos       : Extrapolation schemes; Compound Job, initial MDCI parallelization 
  Dimitrios Manganas     : Further ROCIS development; embedding schemes. LFT, Crystal Embedding 
  Dimitrios Pantazis     : SARC Basis sets                               
  Anastasios Papadopoulos: AUTO-CI, single reference methods and gradients 
  Taras Petrenko         : pre 6.0 DFT Hessian and TD-DFT gradient, (ASA, deprecated), ECA, 1-Electron XAS/XES, NRVS 
  Peter Pinski           : DLPNO-MP2, DLPNO-MP2 Gradient                 
  Christoph Reimann      : Effective Core Potentials                     
  Marius Retegan         : Local ZFS, SOC                                
  Christoph Riplinger    : Optimizer, TS searches, QM/MM, DLPNO-CCSD(T), (RO)-DLPNO pert. Triples 
  Michael Roemelt        : Original ROCIS implementation                 
  Masaaki Saitow         : Open-shell DLPNO-CCSD energy and density      
  Barbara Sandhoefer     : DKH picture change effects                    
  Kantharuban Sivalingam : CASSCF convergence/infrastructure, NEVPT2 and variants, FIC-MRCI 
  Bernardo de Souza      : ESD, SOC TD-DFT                               
  Georgi L. Stoychev     : AutoAux, RI-MP2 NMR, DLPNO-MP2 response, X2C  
  Van Anh Tran           : RI-MP2 g-tensors                              
  Willem Van den Heuvel  : Paramagnetic NMR                              
  Zikuan Wang            : NOTCH, Electric field optimization            
  Frank Wennmohs         : Technical directorship and infrastructure     
  Hang Xu                : AUTO-CI-Response properties                   
                                                                         
[FACCTs GmbH]                                                            
  Markus Bursch, Miquel Garcia-Rates, Christoph Riplinger, Bernardo de Souza, Georgi L. Stoychev 
                                                                 
  APM, Basis sets (HGBS, AHGBS, def-TZVP (Ac-Lr), def2-XVPD (La-Lu)), CI-OPT, improved COSX, DLPNO-Multilevel,           
  DOCKER, DRACO, updates on ESD, GOAT, IRC, LR-CPCM, MBIS, meta-GGA TD-DFT gradient, ML-optimized integration grids, 
  MM, NACMEs, nearIR, NEB, NEB-TS, NL-DFT gradient (VV10), 2- and 3-layer-ONIOM, interface openCOSMO-RS, QMMM,   
  Crystal-QMMM, SF, symmetry and pop. for TD-DFT, r2SCAN hybrids, SOLVATOR                                   
                                                                         
[Other institutions]                                                     
  V. Asgeirsson          : NEB                                           
  Christoph Bannwarth    : sTDA-DFT, sTD-DFT, PBEh-3c, B97-3c, D3        
  Sebastian Ehlert       : rSCAN, r2SCAN, r2SCAN-3c, D4, dhf basis sets  
  Marvin Friede          : D4 for Fr, Ra, Ac-Lr                          
  Lars Goerigk           : TD-DFT with DH, B97 family of functionals     
  Stefan Grimme          : VdW corrections, initial TS optimization, DFT functionals, gCP, sTDA/sTD-DF 
  Waldemar Hujo          : DFT-NL                                        
  H. Jonsson             : NEB                                           
  Holger Kruse           : gCP                                           
  Marcel Mueller         : wB97X-3c, vDZP basis set                      
  Hagen Neugebauer       : wr2SCAN                                       
  Tobias Risthaus        : range-separated hybrid DFT                    
  Lukas Wittmann         : regularized MP2, r2SCAN double-hybrids, wr2SCAN        
                                                                         
We gratefully acknowledge several colleagues who have allowed us to      
interface, adapt or use parts of their codes:                            
  Ed Valeev, F. Pavosevic, A. Kumar             : LibInt (2-el integral package), F12 methods 
  Garnet Chan, S. Sharma, J. Yang, R. Olivares  : DMRG                   
  Ulf Ekstrom                                   : XCFun DFT Library      
  Mihaly Kallay                                 : mrcc  (arbitrary order and MRCC methods)
  Frank Weinhold                                : gennbo (NPA and NBO analysis)           
  Simon Mueller                                 : openCOSMO-RS                            
  Christopher J. Cramer and Donald G. Truhlar   : smd solvation model                     
  S Lehtola, MJT Oliveira, MAL Marques          : LibXC Library                           
  Liviu Ungur et al                             : ANISO software                          


 Your calculation uses the libint2 library for the computation of 2-el integrals
 For citations please refer to: http://libint.valeyev.net

 Your ORCA version has been built with support for libXC version: 6.2.2
 For citations please refer to: https://libxc.gitlab.io

 This ORCA versions uses:
   CBLAS   interface :  Fast vector & matrix operations
   LAPACKE interface :  Fast linear algebra routines
   SCALAPACK package :  Parallel linear algebra routines
   Shared memory     :  Shared parallel matrices
   BLAS/LAPACK       :  OpenBLAS 0.3.27  USE64BITINT DYNAMIC_ARCH NO_AFFINITY SkylakeX SINGLE_THREADED
        Core in use  :  SkylakeX
   Copyright (c) 2011-2014, The OpenBLAS Project


NOTE: MaxCore=5000 MB was set to SCF,MP2,MDCI,CIPSI,MRCI and CIS
      => If you want to overwrite this, your respective input block should be placed after the MaxCore statement
Your calculation utilizes the atom-pairwise dispersion correction
based on EEQ partial charges (D4)


Warning: RI is on but no J-basis has been assigned. Assigning Def2/J (nothing to worry about!)
================================================================================

----- Orbital basis set information -----
Your calculation utilizes the basis: def2-TZVP
   F. Weigend and R. Ahlrichs, Phys. Chem. Chem. Phys. 7, 3297 (2005).

----- AuxJ basis set information -----
Your calculation utilizes the auxiliary basis: def2/J
   F. Weigend, Phys. Chem. Chem. Phys. 8, 1057 (2006).

================================================================================
                                        WARNINGS
                       Please study these warnings very carefully!
================================================================================

WARNING: Old DensityContainer found on disk!
         Will remove this file - 
         If you want to keep old densities, please start your calculation with a different basename. 


WARNING: Geometry Optimization
  ===> : Switching off AutoStart
         For restart on a previous wavefunction, please use MOREAD

================================================================================
                                       INPUT FILE
================================================================================
NAME = 01_Aminobutyric-acid_zwitterion.inp
|  1> ! Opt B3LYP D4 def2-TZVP TightSCF TightOpt CPCM(water)
|  2> 
|  3> %maxcore 5000
|  4> 
|  5> %pal
|  6> nprocs 18
|  7> end
|  8> 
|  9> * xyz 0 1
| 10> N          1.28290       -0.09880        0.37130
| 11> C          2.73550       -0.03380        0.21400
| 12> C          3.11410        0.43510       -1.19720
| 13> C          4.63640        0.50550       -1.36360
| 14> C          5.00730        0.96970       -2.74260
| 15> O          5.71860        2.10170       -2.90470
| 16> O          4.67640        0.31970       -3.72170
| 17> H          0.86220        0.84710        0.22230
| 18> H          0.87690       -0.77750       -0.31330
| 19> H          3.16940       -1.04170        0.39980
| 20> H          3.15370        0.67260        0.96550
| 21> H          2.67860        1.44280       -1.37730
| 22> H          2.69200       -0.27530       -1.94190
| 23> H          5.08340       -0.49740       -1.19010
| 24> H          5.05480        1.21350       -0.61510
| 25> H          1.05740       -0.42040        1.34030
| 26> *
| 27> 
| 28>                          ****END OF INPUT****
================================================================================

                       *****************************
                       * Geometry Optimization Run *
                       *****************************

Geometry optimization settings:
Update method            Update   .... BFGS
Choice of coordinates    CoordSys .... (2022) Redundant Internals
Initial Hessian          InHess   .... Almloef's Model
Max. no of cycles        MaxIter  .... 50

Convergence Tolerances:
Energy Change            TolE     ....  1.0000e-06 Eh
Max. Gradient            TolMAXG  ....  1.0000e-04 Eh/bohr
RMS Gradient             TolRMSG  ....  3.0000e-05 Eh/bohr
Max. Displacement        TolMAXD  ....  1.0000e-03 bohr
RMS Displacement         TolRMSD  ....  6.0000e-04 bohr
Strict Convergence                .... False

------------------------------------------------------------------------------
                        ORCA OPTIMIZATION COORDINATE SETUP
------------------------------------------------------------------------------

The optimization will be done in redundant internal coordinates (2022)
Making redundant internal coordinates   ...  (2022 redundants) done
Evaluating the initial hessian          ...  (Almloef) done
Evaluating the coordinates              ...  done
Calculating the B-matrix                .... done
Calculating the G-matrix                .... done
Diagonalizing the G-matrix              .... done
Small eigenvalue found = 2.414e-02
The first mode is                       ....   23
The number of degrees of freedom        ....   42

    -----------------------------------------------------------------
                    Redundant Internal Coordinates


    -----------------------------------------------------------------
         Definition                    Initial Value    Approx d2E/dq
    -----------------------------------------------------------------
      1. B(C   1,N   0)                  1.4625         0.428694   
      2. B(C   2,C   1)                  1.5345         0.367450   
      3. B(C   3,C   2)                  1.5330         0.369501   
      4. B(C   4,C   3)                  1.5016         0.414713   
      5. B(O   5,C   4)                  1.3467         0.656039   
      6. B(O   6,C   4)                  1.2209         1.041456   
      7. B(H   7,N   0)                  1.0459         0.379238   
      8. B(H   8,N   0)                  1.0460         0.379084   
      9. B(H   9,C   1)                  1.1129         0.330987   
     10. B(H  10,C   1)                  1.1129         0.330992   
     11. B(H  11,C   2)                  1.1125         0.331587   
     12. B(H  12,C   2)                  1.1124         0.331665   
     13. B(H  13,C   3)                  1.1116         0.332594   
     14. B(H  14,C   3)                  1.1120         0.332125   
     15. B(H  15,N   0)                  1.0456         0.379690   
     16. A(H   8,N   0,H  15)          108.8606         0.290875   
     17. A(H   7,N   0,H   8)          109.7211         0.290820   
     18. A(C   1,N   0,H   8)          110.1176         0.329744   
     19. A(C   1,N   0,H  15)          109.1201         0.329831   
     20. A(C   1,N   0,H   7)          110.1200         0.329766   
     21. A(H   7,N   0,H  15)          108.8715         0.290893   
     22. A(H   9,C   1,H  10)          108.3959         0.283283   
     23. A(C   2,C   1,H  10)          109.5312         0.319010   
     24. A(N   0,C   1,H  10)          109.1955         0.325217   
     25. A(C   2,C   1,H   9)          109.5160         0.319009   
     26. A(N   0,C   1,C   2)          110.9492         0.368655   
     27. A(N   0,C   1,H   9)          109.2089         0.325216   
     28. A(C   1,C   2,H  11)          109.2139         0.319103   
     29. A(C   3,C   2,H  12)          109.4794         0.319406   
     30. A(C   1,C   2,H  12)          109.0807         0.319116   
     31. A(C   3,C   2,H  11)          109.2430         0.319394   
     32. A(C   1,C   2,C   3)          111.0304         0.361649   
     33. A(H  11,C   2,H  12)          108.7573         0.283452   
     34. A(H  13,C   3,H  14)          108.5454         0.283646   
     35. A(C   2,C   3,C   4)          111.0493         0.369220   
     36. A(C   4,C   3,H  14)          109.1715         0.325579   
     37. A(C   2,C   3,H  14)          109.2571         0.319478   
     38. A(C   4,C   3,H  13)          108.8396         0.325655   
     39. A(C   2,C   3,H  13)          109.9339         0.319552   
     40. A(O   5,C   4,O   6)          119.6122         0.475600   
     41. A(C   3,C   4,O   6)          120.3282         0.440372   
     42. A(C   3,C   4,O   5)          120.0570         0.405475   
     43. D(H   9,C   1,N   0,H   8)    -60.2367         0.016789   
     44. D(H   9,C   1,N   0,H   7)    178.6379         0.016789   
     45. D(H   9,C   1,N   0,H  15)     59.1932         0.016789   
     46. D(C   2,C   1,N   0,H  15)   -179.9968         0.016789   
     47. D(C   2,C   1,N   0,H   7)    -60.5521         0.016789   
     48. D(C   2,C   1,N   0,H   8)     60.5734         0.016789   
     49. D(C   3,C   2,C   1,N   0)    179.9327         0.010803   
     50. D(H  11,C   2,C   1,H  10)    -61.2141         0.010803   
     51. D(H  11,C   2,C   1,H   9)   -179.9640         0.010803   
     52. D(H  11,C   2,C   1,N   0)     59.4076         0.010803   
     53. D(C   3,C   2,C   1,H  10)     59.3111         0.010803   
     54. D(C   3,C   2,C   1,H   9)    -59.4389         0.010803   
     55. D(C   4,C   3,C   2,H  12)     59.7360         0.010916   
     56. D(C   4,C   3,C   2,H  11)    -59.2595         0.010916   
     57. D(C   4,C   3,C   2,C   1)   -179.7674         0.010916   
     58. D(H  13,C   3,C   2,H  12)    -60.7702         0.010916   
     59. D(H  13,C   3,C   2,H  11)   -179.7657         0.010916   
     60. D(H  13,C   3,C   2,C   1)     59.7264         0.010916   
     61. D(O   6,C   4,C   3,C   2)    -61.2141         0.012728   
     62. D(O   5,C   4,C   3,H  14)     -1.1493         0.012728   
     63. D(O   5,C   4,C   3,H  13)   -119.4709         0.012728   
     64. D(O   6,C   4,C   3,H  13)     59.9374         0.012728   
     65. D(O   5,C   4,C   3,C   2)    119.3776         0.012728   
    -----------------------------------------------------------------

Number of atoms                         .... 16
Number of degrees of freedom            .... 65


         *************************************************************
         *                GEOMETRY OPTIMIZATION CYCLE   1            *
         *************************************************************
---------------------------------
CARTESIAN COORDINATES (ANGSTROEM)
---------------------------------
  N      1.282900   -0.098800    0.371300
  C      2.735500   -0.033800    0.214000
  C      3.114100    0.435100   -1.197200
  C      4.636400    0.505500   -1.363600
  C      5.007300    0.969700   -2.742600
  O      5.718600    2.101700   -2.904700
  O      4.676400    0.319700   -3.721700
  H      0.862200    0.847100    0.222300
  H      0.876900   -0.777500   -0.313300
  H      3.169400   -1.041700    0.399800
  H      3.153700    0.672600    0.965500
  H      2.678600    1.442800   -1.377300
  H      2.692000   -0.275300   -1.941900
  H      5.083400   -0.497400   -1.190100
  H      5.054800    1.213500   -0.615100
  H      1.057400   -0.420400    1.340300

----------------------------
CARTESIAN COORDINATES (A.U.)
----------------------------
  NO LB      ZA    FRAG     MASS         X           Y           Z
   0 N     7.0000    0    14.007    2.424330   -0.186705    0.701655
   1 C     6.0000    0    12.011    5.169346   -0.063873    0.404401
   2 C     6.0000    0    12.011    5.884796    0.822220   -2.262380
   3 C     6.0000    0    12.011    8.761526    0.955257   -2.576831
   4 C     6.0000    0    12.011    9.462426    1.832467   -5.182763
   5 O     8.0000    0    15.999   10.806588    3.971637   -5.489088
   6 O     8.0000    0    15.999    8.837115    0.604145   -7.032994
   7 H     1.0000    0     1.008    1.629322    1.600787    0.420086
   8 H     1.0000    0     1.008    1.657101   -1.469262   -0.592051
   9 H     1.0000    0     1.008    5.989298   -1.968528    0.755513
  10 H     1.0000    0     1.008    5.959629    1.271030    1.824531
  11 H     1.0000    0     1.008    5.061820    2.726497   -2.602720
  12 H     1.0000    0     1.008    5.087143   -0.520242   -3.669659
  13 H     1.0000    0     1.008    9.606234   -0.939950   -2.248963
  14 H     1.0000    0     1.008    9.552188    2.293183   -1.162371
  15 H     1.0000    0     1.008    1.998196   -0.794441    2.532800

--------------------------------
INTERNAL COORDINATES (ANGSTROEM)
--------------------------------
 N      0   0   0     0.000000000000     0.00000000     0.00000000
 C      1   0   0     1.462537196108     0.00000000     0.00000000
 C      2   1   0     1.534500117302   110.94921338     0.00000000
 C      3   2   1     1.532984804230   111.03038874   179.93272878
 C      4   3   2     1.501562336368   111.04930887   180.23257229
 O      5   4   3     1.346717527917   120.05698667   119.37763516
 O      5   4   3     1.220914255794   120.32817555   298.78587199
 H      1   2   3     1.045904536753   110.11995282   299.44791961
 H      1   2   3     1.046014746550   110.11757777    60.57338257
 H      2   1   3     1.112948004176   109.20886748   239.18995416
 H      2   1   3     1.112944046213   109.19548526   120.82019669
 H      3   2   1     1.112454740652   109.21391901    59.40756416
 H      3   2   1     1.112391414926   109.08073428   300.66495511
 H      4   3   2     1.111629281730   109.93393988    59.72636281
 H      4   3   2     1.112013853331   109.25709774   300.70886657
 H      1   2   3     1.045580130836   109.12012168   180.00324133

---------------------------
INTERNAL COORDINATES (A.U.)
---------------------------
 N      0   0   0     0.000000000000     0.00000000     0.00000000
 C      1   0   0     2.763794761318     0.00000000     0.00000000
 C      2   1   0     2.899784974171   110.94921338     0.00000000
 C      3   2   1     2.896921447458   111.03038874   179.93272878
 C      4   3   2     2.837541588747   111.04930887   180.23257229
 O      5   4   3     2.544927307515   120.05698667   119.37763516
 O      5   4   3     2.307193576450   120.32817555   298.78587199
 H      1   2   3     1.976473136688   110.11995282   299.44791961
 H      1   2   3     1.976681403022   110.11757777    60.57338257
 H      2   1   3     2.103166929187   109.20886748   239.18995416
 H      2   1   3     2.103159449720   109.19548526   120.82019669
 H      3   2   1     2.102234796215   109.21391901    59.40756416
 H      3   2   1     2.102115127934   109.08073428   300.66495511
 H      4   3   2     2.100674904918   109.93393988    59.72636281
 H      4   3   2     2.101401639922   109.25709774   300.70886657
 H      1   2   3     1.975860098350   109.12012168   180.00324133

---------------------
BASIS SET INFORMATION
---------------------
There are 4 groups of distinct atoms

 Group   1 Type N   : 11s6p2d1f contracted to 5s3p2d1f pattern {62111/411/11/1}
 Group   2 Type C   : 11s6p2d1f contracted to 5s3p2d1f pattern {62111/411/11/1}
 Group   3 Type O   : 11s6p2d1f contracted to 5s3p2d1f pattern {62111/411/11/1}
 Group   4 Type H   : 5s1p contracted to 3s1p pattern {311/1}

Atom   0N    basis set group =>   1
Atom   1C    basis set group =>   2
Atom   2C    basis set group =>   2
Atom   3C    basis set group =>   2
Atom   4C    basis set group =>   2
Atom   5O    basis set group =>   3
Atom   6O    basis set group =>   3
Atom   7H    basis set group =>   4
Atom   8H    basis set group =>   4
Atom   9H    basis set group =>   4
Atom  10H    basis set group =>   4
Atom  11H    basis set group =>   4
Atom  12H    basis set group =>   4
Atom  13H    basis set group =>   4
Atom  14H    basis set group =>   4
Atom  15H    basis set group =>   4
---------------------------------
AUXILIARY/J BASIS SET INFORMATION
---------------------------------
There are 4 groups of distinct atoms

 Group   1 Type N   : 12s5p4d2f1g contracted to 6s4p3d1f1g pattern {711111/2111/211/2/1}
 Group   2 Type C   : 12s5p4d2f1g contracted to 6s4p3d1f1g pattern {711111/2111/211/2/1}
 Group   3 Type O   : 12s5p4d2f1g contracted to 6s4p3d1f1g pattern {711111/2111/211/2/1}
 Group   4 Type H   : 5s2p1d contracted to 3s1p1d pattern {311/2/1}

Atom   0N    basis set group =>   1
Atom   1C    basis set group =>   2
Atom   2C    basis set group =>   2
Atom   3C    basis set group =>   2
Atom   4C    basis set group =>   2
Atom   5O    basis set group =>   3
Atom   6O    basis set group =>   3
Atom   7H    basis set group =>   4
Atom   8H    basis set group =>   4
Atom   9H    basis set group =>   4
Atom  10H    basis set group =>   4
Atom  11H    basis set group =>   4
Atom  12H    basis set group =>   4
Atom  13H    basis set group =>   4
Atom  14H    basis set group =>   4
Atom  15H    basis set group =>   4
--------------------------------------------------------------------------
WARNING: There was an error initializing an OpenFabrics device.

  Local host:   ga02
  Local device: mlx5_0
--------------------------------------------------------------------------


           ************************************************************
           *        Program running with 18 parallel MPI-processes    *
           *              working on a common directory               *
           ************************************************************
------------------------------------------------------------------------------
                             ORCA STARTUP CALCULATIONS
                           -- RI-GTO INTEGRALS CHOSEN --
------------------------------------------------------------------------------
------------------------------------------------------------------------------
                   ___                                                        
                  /   \      - P O W E R E D   B Y -                         
                 /     \                                                     
                 |  |  |   _    _      __       _____    __    __             
                 |  |  |  | |  | |    /  \     |  _  \  |  |  /  |          
                  \  \/   | |  | |   /    \    | | | |  |  | /  /          
                 / \  \   | |__| |  /  /\  \   | |_| |  |  |/  /          
                |  |  |   |  __  | /  /__\  \  |    /   |      \           
                |  |  |   | |  | | |   __   |  |    \   |  |\   \          
                \     /   | |  | | |  |  |  |  | |\  \  |  | \   \       
                 \___/    |_|  |_| |__|  |__|  |_| \__\ |__|  \__/        
                                                                              
                      - O R C A' S   B I G   F R I E N D -                    
                                      &                                       
                       - I N T E G R A L  F E E D E R -                       
                                                                              
 v1 FN, 2020, v2 2021, v3 2022-2024                                           
------------------------------------------------------------------------------


----------------------
SHARK INTEGRAL PACKAGE
----------------------

Number of atoms                             ...     16
Number of basis functions                   ...    271
Number of shells                            ...    113
Maximum angular momentum                    ...      3
Integral batch strategy                     ... SHARK/LIBINT Hybrid
RI-J (if used) integral strategy            ... SPLIT-RIJ (Revised 2003 algorithm where possible)
Printlevel                                  ...      1
Contraction scheme used                     ... SEGMENTED contraction
Prescreening option                         ... SCHWARTZ
   Thresh                                   ... 2.500e-11
   Tcut                                     ... 2.500e-12
   Tpresel                                  ... 2.500e-12 
Coulomb Range Separation                    ... NOT USED
Exchange Range Separation                   ... NOT USED
Multipole approximations                    ... NOT USED
Finite Nucleus Model                        ... NOT USED
CABS basis                                  ... NOT available
Auxiliary Coulomb fitting basis             ... AVAILABLE
   # of basis functions in Aux-J            ...    442
   # of shells in Aux-J                     ...    150
   Maximum angular momentum in Aux-J        ...      4
Auxiliary J/K fitting basis                 ... NOT available
Auxiliary Correlation fitting basis         ... NOT available
Auxiliary 'external' fitting basis          ... NOT available

Checking pre-screening integrals            ... done (  0.0 sec) Dimension = 113
Check shell pair data                       ... done (  0.0 sec)
Shell pair information
Shell pair cut-off parameter TPreSel        ...   2.5e-12
Total number of shell pairs                 ...      6441
Shell pairs after pre-screening             ...      5689
Total number of primitive shell pairs       ...     19096
Primitive shell pairs kept                  ...     12862
          la=0 lb=0:   1704 shell pairs
          la=1 lb=0:   1673 shell pairs
          la=1 lb=1:    431 shell pairs
          la=2 lb=0:    752 shell pairs
          la=2 lb=1:    377 shell pairs
          la=2 lb=2:     92 shell pairs
          la=3 lb=0:    369 shell pairs
          la=3 lb=1:    183 shell pairs
          la=3 lb=2:     84 shell pairs
          la=3 lb=3:     24 shell pairs

Calculating one electron integrals          ... done (  0.0 sec)
Calculating RI/J V-Matrix + Cholesky decomp.... done (  0.0 sec)
Calculating Nuclear repulsion               ... done (  0.0 sec) ENN=    302.004624452774 Eh

Diagonalization of the overlap matrix:
Smallest eigenvalue                        ... 1.582e-04
Time for diagonalization                   ...    0.006 sec
Threshold for overlap eigenvalues          ... 1.000e-07
Number of eigenvalues below threshold      ... 0
Time for construction of square roots      ...    0.004 sec
Total time needed                          ...    0.012 sec

-------------------
DFT GRID GENERATION
-------------------

General Integration Accuracy     IntAcc      ... 4.388
Radial Grid Type                 RadialGrid  ... OptM3 with GC (2021)
Angular Grid (max. ang.)         AngularGrid ... 4 (Lebedev-302)
Angular grid pruning method      GridPruning ... 4 (adaptive)
Weight generation scheme         WeightScheme... mBecke (2022)
Basis function cutoff            BFCut       ... 1.0000e-11
Integration weight cutoff        WCut        ... 1.0000e-14
Partially contracted basis set               ... off
Rotationally invariant grid construction     ... off
Angular grids for H and He will be reduced by one unit

Total number of grid points                  ...    71176
Total number of batches                      ...     1121
Average number of points per batch           ...       63
Average number of grid points per atom       ...     4448

--------------------
COSX GRID GENERATION
--------------------

GRIDX 1
-------
General Integration Accuracy     IntAcc      ... 3.816
Radial Grid Type                 RadialGrid  ... OptM3 with GC (2021)
Angular Grid (max. ang.)         AngularGrid ... 1 (Lebedev-50)
Angular grid pruning method      GridPruning ... 4 (adaptive)
Weight generation scheme         WeightScheme... mBecke (2022)
Basis function cutoff            BFCut       ... 1.0000e-11
Integration weight cutoff        WCut        ... 1.0000e-14
Partially contracted basis set               ... on
Rotationally invariant grid construction     ... off
Angular grids for H and He will be reduced by one unit

Total number of grid points                  ...     9110
Total number of batches                      ...       82
Average number of points per batch           ...      111
Average number of grid points per atom       ...      569
UseSFitting                                  ... on

GRIDX 2
-------
General Integration Accuracy     IntAcc      ... 4.020
Radial Grid Type                 RadialGrid  ... OptM3 with GC (2021)
Angular Grid (max. ang.)         AngularGrid ... 2 (Lebedev-110)
Angular grid pruning method      GridPruning ... 4 (adaptive)
Weight generation scheme         WeightScheme... mBecke (2022)
Basis function cutoff            BFCut       ... 1.0000e-11
Integration weight cutoff        WCut        ... 1.0000e-14
Partially contracted basis set               ... on
Rotationally invariant grid construction     ... off
Angular grids for H and He will be reduced by one unit

Total number of grid points                  ...    19590
Total number of batches                      ...      162
Average number of points per batch           ...      120
Average number of grid points per atom       ...     1224
UseSFitting                                  ... on

GRIDX 3
-------
General Integration Accuracy     IntAcc      ... 4.338
Radial Grid Type                 RadialGrid  ... OptM3 with GC (2021)
Angular Grid (max. ang.)         AngularGrid ... 3 (Lebedev-194)
Angular grid pruning method      GridPruning ... 4 (adaptive)
Weight generation scheme         WeightScheme... mBecke (2022)
Basis function cutoff            BFCut       ... 1.0000e-11
Integration weight cutoff        WCut        ... 1.0000e-14
Partially contracted basis set               ... on
Rotationally invariant grid construction     ... off
Angular grids for H and He will be reduced by one unit

Total number of grid points                  ...    42892
Total number of batches                      ...      343
Average number of points per batch           ...      125
Average number of grid points per atom       ...     2681
UseSFitting                                  ... on
Initializing property integral containers    ... done (  0.0 sec)

SHARK setup successfully completed in   0.6 seconds

Maximum memory used throughout the entire STARTUP-calculation: 23.7 MB
[ga02:1517472] 17 more processes have sent help message help-mpi-btl-openib.txt / error in device init
[ga02:1517472] Set MCA parameter "orte_base_help_aggregate" to 0 to see all help / error messages
--------------------------------------------------------------------------
WARNING: There was an error initializing an OpenFabrics device.

  Local host:   ga02
  Local device: mlx5_0
--------------------------------------------------------------------------


           ************************************************************
           *        Program running with 18 parallel MPI-processes    *
           *              working on a common directory               *
           ************************************************************
-------------------------------------------------------------------------------
                                 ORCA GUESS
                   Start orbitals & Density for SCF / CASSCF
-------------------------------------------------------------------------------

------------
SCF SETTINGS
------------
Hamiltonian:
 Density Functional     Method          .... DFT(GTOs)
 Exchange Functional    Exchange        .... B88
   X-Alpha parameter    XAlpha          ....  0.666667
   Becke's b parameter  XBeta           ....  0.004200
 Correlation Functional Correlation     .... LYP
 LDA part of GGA corr.  LDAOpt          .... VWN-5
 Gradients option       PostSCFGGA      .... off
 Hybrid DFT is turned on
   Fraction HF Exchange ScalHFX         ....  0.200000
   Scaling of DF-GGA-X  ScalDFX         ....  0.720000
   Scaling of DF-GGA-C  ScalDFC         ....  0.810000
   Scaling of DF-LDA-C  ScalLDAC        ....  1.000000
   Perturbative correction              ....  0.000000
   NL short-range parameter             ....  4.800000
 RI-approximation to the Coulomb term is turned on
   Number of AuxJ basis functions       .... 442
   RIJ-COSX (HFX calculated with COS-X)).... on


General Settings:
 Integral files         IntName         .... 01_Aminobutyric-acid_zwitterion
 Hartree-Fock type      HFTyp           .... RHF
 Total Charge           Charge          ....    0
 Multiplicity           Mult            ....    1
 Number of Electrons    NEL             ....   56
 Basis Dimension        Dim             ....  271
 Nuclear Repulsion      ENuc            ....    302.0046244528 Eh

Convergence Acceleration:
 AO-DIIS                CNVDIIS         .... on
   Start iteration      DIISMaxIt       ....    12
   Startup error        DIISStart       ....  0.200000
   # of expansion vecs  DIISMaxEq       ....     5
   Bias factor          DIISBfac        ....   1.050
   Max. coefficient     DIISMaxC        ....  10.000
 MO-DIIS                CNVKDIIS        .... off
 Trust-Rad. Augm. Hess. CNVTRAH         .... auto
   Auto Start mean grad. ratio tolernc. ....  1.125000
   Auto Start start iteration           ....    50
   Auto Start num. interpolation iter.  ....    10
   Max. Number of Micro iterations      ....    24
   Max. Number of Macro iterations      .... Maxiter - #DIIS iter
   Number of Davidson start vectors     ....     2
   Converg. threshold    (grad. norm)   ....   1.000e-05
   Grad. Scal. Fac. for Micro threshold ....   0.100
   Minimum threshold for Micro iter.    ....   1.000e-02
   NR start threshold (gradient norm)   ....   1.000e-04
   Initial trust radius                 ....   0.400
   Minimum AH scaling param. (alpha)    ....   1.000
   Maximum AH scaling param. (alpha)    .... 1000.000
   Quad. conv. algorithm                .... NR
   White noise on init. David. guess    .... on
   Maximum white noise                  ....   0.010
   Pseudo random numbers                .... off
   Inactive MOs                         .... canonical
   Orbital update algorithm             .... Taylor
   Preconditioner                       .... Diag
   Full preconditioner red. dimension   ....   250
 SOSCF                  CNVSOSCF        .... on
   Start iteration      SOSCFMaxIt      ....   150
   Startup grad/error   SOSCFStart      ....  0.003300
   Hessian update       SOSCFHessUp     .... L-BFGS
 Level Shifting         CNVShift        .... on
   Level shift para.    LevelShift      ....    0.2500
   Turn off err/grad.   ShiftErr        ....    0.0010
 Zerner damping         CNVZerner       .... off
 Static damping         CNVDamp         .... on
   Fraction old density DampFac         ....    0.7000
   Max. Damping (<1)    DampMax         ....    0.9800
   Min. Damping (>=0)   DampMin         ....    0.0000
   Turn off err/grad.   DampErr         ....    0.1000

SCF Procedure:
 Maximum # iterations   MaxIter         ....   125
 SCF integral mode      SCFMode         .... Direct
   Integral package                     .... SHARK and LIBINT hybrid scheme
 Reset frequency        DirectResetFreq ....    20
 Integral Threshold     Thresh          ....  2.500e-11 Eh
 Primitive CutOff       TCut            ....  2.500e-12 Eh

Convergence Tolerance:
 Convergence Check Mode ConvCheckMode   .... Total+1el-Energy
 Convergence forced     ConvForced      .... 0
 Energy Change          TolE            ....  1.000e-08 Eh
 1-El. energy change                    ....  1.000e-05 Eh
 Orbital Gradient       TolG            ....  1.000e-05
 Orbital Rotation angle TolX            ....  1.000e-05
 DIIS Error             TolErr          ....  5.000e-07

------------------------------
INITIAL GUESS: MODEL POTENTIAL
------------------------------
Loading Hartree-Fock densities                     ... done
Calculating cut-offs                               ... done
Initializing the effective Hamiltonian             ... done
Setting up the integral package (SHARK)            ... done
Starting the Coulomb interaction                   ... done (   0.0 sec)
Making the grid                                    ... done (   0.1 sec)
Mapping shells                                     ... done
Starting the XC term evaluation                    ... done (   0.0 sec)
  promolecular density results
     # of electrons  =     55.999167779
     EX              =    -46.174607298
     EC              =     -1.887960399
     EX+EC           =    -48.062567696
Transforming the Hamiltonian                       ... done (   0.0 sec)
Diagonalizing the Hamiltonian                      ... done (   0.0 sec)
Back transforming the eigenvectors                 ... done (   0.0 sec)
Now organizing SCF variables                       ... done
                      ------------------
                      INITIAL GUESS DONE (   0.1 sec)
                      ------------------
             **** ENERGY FILE WAS UPDATED (01_Aminobutyric-acid_zwitterion.en.tmp) ****
Finished Guess after   0.5 sec
Maximum memory used throughout the entire GUESS-calculation: 15.6 MB
[ga02:1517550] 17 more processes have sent help message help-mpi-btl-openib.txt / error in device init
[ga02:1517550] Set MCA parameter "orte_base_help_aggregate" to 0 to see all help / error messages
--------------------------------------------------------------------------
WARNING: There was an error initializing an OpenFabrics device.

  Local host:   ga02
  Local device: mlx5_0
--------------------------------------------------------------------------


           ************************************************************
           *        Program running with 18 parallel MPI-processes    *
           *              working on a common directory               *
           ************************************************************

-------------------------------------------------------------------------------------------
                                      ORCA LEAN-SCF
                              memory conserving SCF solver
-------------------------------------------------------------------------------------------

--------------------
CPCM SOLVATION MODEL
--------------------
CPCM parameters:
  Epsilon                                         ...      80.1510
  Refrac                                          ...       1.3328
  Rsolv                                           ...       1.3000
  Surface type                                    ... GAUSSIAN VDW
  Discretization scheme                           ... Constant charge density
    Threshold for H atoms                         ...       5.0000 (charges/Ang^2)
    Threshold for non-H atoms                     ...       5.0000 (charges/Ang^2)
  Epsilon function type                           ...         CPCM
Solvent:                                          ... WATER
Radii:
  Scheme                                          ... Element-dependent radii
  Radius for N  used is    3.5149 Bohr (=   1.8600 Ang.)
  Radius for C  used is    3.8550 Bohr (=   2.0400 Ang.)
  Radius for O  used is    3.4469 Bohr (=   1.8240 Ang.)
  Radius for H  used is    2.4944 Bohr (=   1.3200 Ang.)
Calculating surface                               ...        done! (  0.0s)
Cavity surface points                             ...         1414
Cavity Volume                                     ...     911.8042
Cavity Surface-area                               ...     557.0732
Calculating surface distance matrix               ...        done! (  0.0s)
Performing Cholesky decomposition & store         ...        done! (  0.0s)
Overall time for CPCM initialization              ...                 0.1s

----------------------------------------D-I-I-S--------------------------------------------
Iteration    Energy (Eh)           Delta-E    RMSDP     MaxDP     DIISErr   Damp  Time(sec)
-------------------------------------------------------------------------------------------
               ***  Starting incremental Fock matrix formation  ***
    1    -362.6822223006427635     0.00e+00  4.35e-03  4.69e-01  3.56e-01  0.700   0.6
    2    -362.8402781179384533    -1.58e-01  4.05e-03  4.72e-01  1.38e-01  0.700   0.4
                               ***Turning on AO-DIIS***
    3    -362.8946304067850974    -5.44e-02  1.34e-03  1.36e-01  3.78e-02  0.700   0.4
    4    -362.9288550618448994    -3.42e-02  1.12e-03  7.53e-02  1.57e-02  0.000   0.4
    5    -363.0067553672815279    -7.79e-02  1.04e-03  1.28e-01  8.76e-03  0.000   0.4
                              *** Initializing SOSCF ***
---------------------------------------S-O-S-C-F--------------------------------------
Iteration    Energy (Eh)           Delta-E    RMSDP     MaxDP     MaxGrad    Time(sec)
--------------------------------------------------------------------------------------
    6    -363.0072217163323671    -4.66e-04  3.65e-04  4.47e-02  2.46e-03     0.4
               *** Restarting incremental Fock matrix formation ***
    7    -363.0072690442759153    -4.73e-05  2.48e-04  2.97e-02  3.70e-04     0.6
    8    -363.0072658041635236     3.24e-06  3.82e-05  2.68e-03  7.02e-04     0.5
    9    -363.0072737862070085    -7.98e-06  4.86e-05  5.69e-03  8.37e-05     0.4
   10    -363.0072736688153441     1.17e-07  9.67e-06  1.02e-03  9.74e-05     0.4
[ga02:1517634] 17 more processes have sent help message help-mpi-btl-openib.txt / error in device init
[ga02:1517634] Set MCA parameter "orte_base_help_aggregate" to 0 to see all help / error messages
   11    -363.0072741052643437    -4.36e-07  1.16e-05  1.40e-03  1.59e-05     0.4
   12    -363.0072740912798395     1.40e-08  5.61e-06  6.74e-04  2.32e-05     0.4
   13    -363.0072741187270253    -2.74e-08  6.00e-07  7.02e-05  7.39e-07     0.4
                  *** Gradient check signals convergence ***

               *****************************************************
               *                     SUCCESS                       *
               *           SCF CONVERGED AFTER  13 CYCLES          *
               *****************************************************

Recomputing exchange energy using gridx3       ... done (    0.627 sec)
Old exchange energy                            :     -9.388579521 Eh
New exchange energy                            :     -9.388582525 Eh
Exchange energy change after final integration :     -0.000003005 Eh
Total energy after final integration           :   -363.007277123 Eh
             **** ENERGY FILE WAS UPDATED (01_Aminobutyric-acid_zwitterion.en.tmp) ****

----------------
TOTAL SCF ENERGY
----------------

Total Energy       :       -363.00727712335231 Eh           -9877.93019 eV

Components:
Nuclear Repulsion  :        302.00462445277395 Eh            8217.96362 eV
Electronic Energy  :       -664.86772802897906 Eh          -18091.97066 eV
One Electron Energy:      -1093.22877247796760 Eh          -29748.26727 eV
Two Electron Energy:        428.36104444898854 Eh           11656.29661 eV
CPCM Dielectric    :         -0.14417054252197 Eh              -3.92308 eV

Virial components:
Potential Energy   :       -724.09065107898493 Eh          -19703.50832 eV
Kinetic Energy     :        361.08337395563262 Eh            9825.57813 eV
Virial Ratio       :          2.00532814110670

DFT components:
N(Alpha)           :       27.999986760964 electrons
N(Beta)            :       27.999986760964 electrons
N(Total)           :       55.999973521928 electrons
E(X)               :      -37.338998575324 Eh       
E(C)               :       -2.233820542410 Eh       
E(XC)              :      -39.572819117734 Eh       

CPCM Solvation Model Properties:
Surface-charge          :         -0.02199025037005
Corrected charge        :          0.00000000000000
Outlying charge corr.   :          0.00003681618514 Eh               0.00100 eV
Free-energy (cav+disp)  :  This term is not implemented in the current solvation scheme

---------------
SCF CONVERGENCE
---------------

  Last Energy change         ...    2.7447e-08  Tolerance :   1.0000e-08
  Last MAX-Density change    ...    7.0238e-05  Tolerance :   1.0000e-07
  Last RMS-Density change    ...    6.0006e-07  Tolerance :   5.0000e-09
  Last DIIS Error            ...    2.4635e-03  Tolerance :   5.0000e-07
  Last Orbital Gradient      ...    7.3867e-07  Tolerance :   1.0000e-05
  Last Orbital Rotation      ...    1.2172e-06  Tolerance :   1.0000e-05


----------------
ORBITAL ENERGIES
----------------

  NO   OCC          E(Eh)            E(eV) 
   0   2.0000     -19.058085      -518.5969 
   1   2.0000     -19.039057      -518.0791 
   2   2.0000     -14.434507      -392.7829 
   3   2.0000     -10.241897      -278.6962 
   4   2.0000     -10.228459      -278.3305 
   5   2.0000     -10.181468      -277.0518 
   6   2.0000     -10.165693      -276.6226 
   7   2.0000      -1.014082       -27.5946 
   8   2.0000      -0.997282       -27.1374 
   9   2.0000      -0.891372       -24.2555 
  10   2.0000      -0.792469       -21.5642 
  11   2.0000      -0.702749       -19.1228 
  12   2.0000      -0.619792       -16.8654 
  13   2.0000      -0.579925       -15.7806 
  14   2.0000      -0.560301       -15.2466 
  15   2.0000      -0.513824       -13.9819 
  16   2.0000      -0.473929       -12.8963 
  17   2.0000      -0.467188       -12.7128 
  18   2.0000      -0.423199       -11.5158 
  19   2.0000      -0.408194       -11.1075 
  20   2.0000      -0.404157       -10.9977 
  21   2.0000      -0.371013       -10.0958 
  22   2.0000      -0.364345        -9.9143 
  23   2.0000      -0.345286        -9.3957 
  24   2.0000      -0.334456        -9.1010 
  25   2.0000      -0.239917        -6.5285 
  26   2.0000      -0.234996        -6.3946 
  27   2.0000      -0.211298        -5.7497 
  28   0.0000       0.010306         0.2805 
  29   0.0000       0.042131         1.1464 
  30   0.0000       0.057929         1.5763 
  31   0.0000       0.061470         1.6727 
  32   0.0000       0.065943         1.7944 
  33   0.0000       0.098563         2.6820 
  34   0.0000       0.105001         2.8572 
  35   0.0000       0.110316         3.0018 
  36   0.0000       0.133082         3.6213 
  37   0.0000       0.134391         3.6570 
  38   0.0000       0.143702         3.9103 
*Only the first 10 virtual orbitals were printed.

                    ********************************
                    * MULLIKEN POPULATION ANALYSIS *
                    ********************************

-----------------------
MULLIKEN ATOMIC CHARGES
-----------------------
   0 N :   -0.251899
   1 C :   -0.132287
   2 C :   -0.232432
   3 C :   -0.141942
   4 C :    0.201660
   5 O :   -0.693826
   6 O :   -0.497240
   7 H :    0.338844
   8 H :    0.338546
   9 H :    0.159800
  10 H :    0.159071
  11 H :    0.120854
  12 H :    0.107828
  13 H :    0.103982
  14 H :    0.076819
  15 H :    0.342223
Sum of atomic charges:    0.0000000

--------------------------------
MULLIKEN REDUCED ORBITAL CHARGES
--------------------------------
  0 N s       :     3.446323  s :     3.446323
      pz      :     1.275614  p :     3.756604
      px      :     1.205874
      py      :     1.275116
      dz2     :     0.006806  d :     0.046642
      dxz     :     0.013638
      dyz     :     0.004521
      dx2y2   :     0.005374
      dxy     :     0.016303
      f0      :     0.000391  f :     0.002330
      f+1     :     0.000210
      f-1     :     0.000408
      f+2     :     0.000313
      f-2     :     0.000078
      f+3     :     0.000507
      f-3     :     0.000423

  1 C s       :     3.253953  s :     3.253953
      pz      :     0.983833  p :     2.770105
      px      :     0.707882
      py      :     1.078391
      dz2     :     0.018554  d :     0.099931
      dxz     :     0.024711
      dyz     :     0.019491
      dx2y2   :     0.018851
      dxy     :     0.018324
      f0      :     0.001446  f :     0.008298
      f+1     :     0.001393
      f-1     :     0.001061
      f+2     :     0.001218
      f-2     :     0.000231
      f+3     :     0.001584
      f-3     :     0.001366

  2 C s       :     3.261258  s :     3.261258
      pz      :     0.911244  p :     2.878323
      px      :     0.946108
      py      :     1.020971
      dz2     :     0.015964  d :     0.086879
      dxz     :     0.023980
      dyz     :     0.016215
      dx2y2   :     0.008100
      dxy     :     0.022621
      f0      :     0.001286  f :     0.005972
      f+1     :     0.000828
      f-1     :     0.001004
      f+2     :     0.000879
      f-2     :     0.000228
      f+3     :     0.000906
      f-3     :     0.000841

  3 C s       :     3.162417  s :     3.162417
      pz      :     0.976199  p :     2.898715
      px      :     0.920174
      py      :     1.002342
      dz2     :     0.013574  d :     0.074986
      dxz     :     0.020394
      dyz     :     0.013169
      dx2y2   :     0.007199
      dxy     :     0.020650
      f0      :     0.001235  f :     0.005824
      f+1     :     0.000778
      f-1     :     0.001046
      f+2     :     0.000717
      f-2     :     0.000228
      f+3     :     0.000948
      f-3     :     0.000871

  4 C s       :     3.035456  s :     3.035456
      pz      :     0.970493  p :     2.538307
      px      :     0.783021
      py      :     0.784793
      dz2     :     0.045303  d :     0.200152
      dxz     :     0.033910
      dyz     :     0.044114
      dx2y2   :     0.045252
      dxy     :     0.031574
      f0      :     0.006539  f :     0.024425
      f+1     :     0.002456
      f-1     :     0.003823
      f+2     :     0.003111
      f-2     :     0.004587
      f+3     :     0.001439
      f-3     :     0.002470

  5 O s       :     3.805300  s :     3.805300
      pz      :     1.850824  p :     4.864188
      px      :     1.552239
      py      :     1.461125
      dz2     :     0.003293  d :     0.022965
      dxz     :     0.001548
      dyz     :     0.003776
      dx2y2   :     0.006483
      dxy     :     0.007865
      f0      :     0.000149  f :     0.001373
      f+1     :     0.000105
      f-1     :     0.000214
      f+2     :     0.000061
      f-2     :     0.000177
      f+3     :     0.000346
      f-3     :     0.000321

  6 O s       :     3.746272  s :     3.746272
      pz      :     1.527509  p :     4.721602
      px      :     1.574104
      py      :     1.619989
      dz2     :     0.007320  d :     0.027569
      dxz     :     0.006474
      dyz     :     0.007476
      dx2y2   :     0.003221
      dxy     :     0.003079
      f0      :     0.000363  f :     0.001798
      f+1     :     0.000242
      f-1     :     0.000406
      f+2     :     0.000356
      f-2     :     0.000315
      f+3     :     0.000057
      f-3     :     0.000059

  7 H s       :     0.629513  s :     0.629513
      pz      :     0.005798  p :     0.031643
      px      :     0.008213
      py      :     0.017632

  8 H s       :     0.629815  s :     0.629815
      pz      :     0.011826  p :     0.031639
      px      :     0.008032
      py      :     0.011781

  9 H s       :     0.819452  s :     0.819452
      pz      :     0.004348  p :     0.020748
      px      :     0.004752
      py      :     0.011648

 10 H s       :     0.820139  s :     0.820139
      pz      :     0.008522  p :     0.020790
      px      :     0.004651
      py      :     0.007618

 11 H s       :     0.858360  s :     0.858360
      pz      :     0.004147  p :     0.020786
      px      :     0.005410
      py      :     0.011229

 12 H s       :     0.870960  s :     0.870960
      pz      :     0.008635  p :     0.021212
      px      :     0.005316
      py      :     0.007260

 13 H s       :     0.875001  s :     0.875001
      pz      :     0.004306  p :     0.021017
      px      :     0.005645
      py      :     0.011066

 14 H s       :     0.901893  s :     0.901893
      pz      :     0.008235  p :     0.021289
      px      :     0.005509
      py      :     0.007544

 15 H s       :     0.626290  s :     0.626290
      pz      :     0.018227  p :     0.031487
      px      :     0.006371
      py      :     0.006889



                     *******************************
                     * LOEWDIN POPULATION ANALYSIS *
                     *******************************

----------------------
LOEWDIN ATOMIC CHARGES
----------------------
   0 N :    0.179558
   1 C :   -0.267391
   2 C :   -0.257090
   3 C :   -0.246182
   4 C :   -0.647558
   5 O :   -0.297753
   6 O :   -0.069648
   7 H :    0.239162
   8 H :    0.239029
   9 H :    0.153456
  10 H :    0.153199
  11 H :    0.146502
  12 H :    0.143000
  13 H :    0.149718
  14 H :    0.142147
  15 H :    0.239850

-------------------------------
LOEWDIN REDUCED ORBITAL CHARGES
-------------------------------
  0 N s       :     2.985533  s :     2.985533
      pz      :     1.215030  p :     3.665730
      px      :     1.235134
      py      :     1.215567
      dz2     :     0.025388  d :     0.158997
      dxz     :     0.040901
      dyz     :     0.015875
      dx2y2   :     0.027125
      dxy     :     0.049708
      f0      :     0.001336  f :     0.010182
      f+1     :     0.001149
      f-1     :     0.000876
      f+2     :     0.001889
      f-2     :     0.001068
      f+3     :     0.001551
      f-3     :     0.002313

  1 C s       :     2.803278  s :     2.803278
      pz      :     1.060674  p :     2.974465
      px      :     0.848505
      py      :     1.065285
      dz2     :     0.088794  d :     0.437690
      dxz     :     0.100584
      dyz     :     0.074214
      dx2y2   :     0.094453
      dxy     :     0.079645
      f0      :     0.008130  f :     0.051958
      f+1     :     0.009552
      f-1     :     0.004950
      f+2     :     0.008161
      f-2     :     0.004141
      f+3     :     0.008564
      f-3     :     0.008460

  2 C s       :     2.791795  s :     2.791795
      pz      :     1.002723  p :     3.040812
      px      :     1.011517
      py      :     1.026572
      dz2     :     0.081893  d :     0.386435
      dxz     :     0.088042
      dyz     :     0.073167
      dx2y2   :     0.061707
      dxy     :     0.081626
      f0      :     0.007222  f :     0.038048
      f+1     :     0.005997
      f-1     :     0.005087
      f+2     :     0.005748
      f-2     :     0.004110
      f+3     :     0.004545
      f-3     :     0.005339

  3 C s       :     2.791396  s :     2.791396
      pz      :     1.023304  p :     3.052307
      px      :     1.003528
      py      :     1.025475
      dz2     :     0.078355  d :     0.364722
      dxz     :     0.085358
      dyz     :     0.065222
      dx2y2   :     0.059087
      dxy     :     0.076700
      f0      :     0.006741  f :     0.037757
      f+1     :     0.006268
      f-1     :     0.005041
      f+2     :     0.005189
      f-2     :     0.004193
      f+3     :     0.005091
      f-3     :     0.005234

  4 C s       :     2.784045  s :     2.784045
      pz      :     1.032935  p :     2.736247
      px      :     0.798948
      py      :     0.904363
      dz2     :     0.249654  d :     0.971449
      dxz     :     0.156221
      dyz     :     0.243743
      dx2y2   :     0.167484
      dxy     :     0.154347
      f0      :     0.041512  f :     0.155817
      f+1     :     0.015492
      f-1     :     0.023873
      f+2     :     0.021990
      f-2     :     0.028927
      f+3     :     0.012806
      f-3     :     0.011217

  5 O s       :     3.500063  s :     3.500063
      pz      :     1.747121  p :     4.746246
      px      :     1.511555
      py      :     1.487570
      dz2     :     0.006771  d :     0.047699
      dxz     :     0.003775
      dyz     :     0.009303
      dx2y2   :     0.010599
      dxy     :     0.017252
      f0      :     0.000427  f :     0.003745
      f+1     :     0.000252
      f-1     :     0.000569
      f+2     :     0.000155
      f-2     :     0.000616
      f+3     :     0.001112
      f-3     :     0.000615

  6 O s       :     3.404471  s :     3.404471
      pz      :     1.552160  p :     4.593720
      px      :     1.478449
      py      :     1.563111
      dz2     :     0.021213  d :     0.065446
      dxz     :     0.011302
      dyz     :     0.019523
      dx2y2   :     0.006146
      dxy     :     0.007262
      f0      :     0.001332  f :     0.006011
      f+1     :     0.000658
      f-1     :     0.001634
      f+2     :     0.000888
      f-2     :     0.001068
      f+3     :     0.000254
      f-3     :     0.000177

  7 H s       :     0.666617  s :     0.666617
      pz      :     0.016631  p :     0.094221
      px      :     0.022569
      py      :     0.055021

  8 H s       :     0.666768  s :     0.666768
      pz      :     0.036509  p :     0.094202
      px      :     0.022056
      py      :     0.035637

  9 H s       :     0.789038  s :     0.789038
      pz      :     0.012571  p :     0.057506
      px      :     0.012687
      py      :     0.032247

 10 H s       :     0.789272  s :     0.789272
      pz      :     0.022701  p :     0.057530
      px      :     0.012399
      py      :     0.022429

 11 H s       :     0.796957  s :     0.796957
      pz      :     0.011869  p :     0.056541
      px      :     0.014569
      py      :     0.030103

 12 H s       :     0.799794  s :     0.799794
      pz      :     0.022080  p :     0.057206
      px      :     0.014298
      py      :     0.020828

 13 H s       :     0.793695  s :     0.793695
      pz      :     0.012156  p :     0.056586
      px      :     0.014828
      py      :     0.029603

 14 H s       :     0.802133  s :     0.802133
      pz      :     0.020608  p :     0.055720
      px      :     0.014274
      py      :     0.020838

 15 H s       :     0.665894  s :     0.665894
      pz      :     0.056345  p :     0.094257
      px      :     0.017806
      py      :     0.020106



                      *****************************
                      * MAYER POPULATION ANALYSIS *
                      *****************************

  NA   - Mulliken gross atomic population
  ZA   - Total nuclear charge
  QA   - Mulliken gross atomic charge
  VA   - Mayer's total valence
  BVA  - Mayer's bonded valence
  FA   - Mayer's free valence

  ATOM       NA         ZA         QA         VA         BVA        FA
  0 N      7.2519     7.0000    -0.2519     3.5224     3.5224    -0.0000
  1 C      6.1323     6.0000    -0.1323     3.7957     3.7957     0.0000
  2 C      6.2324     6.0000    -0.2324     3.8871     3.8871     0.0000
  3 C      6.1419     6.0000    -0.1419     3.5730     3.5730     0.0000
  4 C      5.7983     6.0000     0.2017     4.6244     4.6244     0.0000
  5 O      8.6938     8.0000    -0.6938     1.7084     1.7084     0.0000
  6 O      8.4972     8.0000    -0.4972     1.8821     1.8821    -0.0000
  7 H      0.6612     1.0000     0.3388     0.8838     0.8838     0.0000
  8 H      0.6615     1.0000     0.3385     0.8842     0.8842    -0.0000
  9 H      0.8402     1.0000     0.1598     0.9629     0.9629     0.0000
 10 H      0.8409     1.0000     0.1591     0.9623     0.9623     0.0000
 11 H      0.8791     1.0000     0.1209     0.9697     0.9697    -0.0000
 12 H      0.8922     1.0000     0.1078     0.9965     0.9965    -0.0000
 13 H      0.8960     1.0000     0.1040     0.9795     0.9795     0.0000
 14 H      0.9232     1.0000     0.0768     1.0090     1.0090    -0.0000
 15 H      0.6578     1.0000     0.3422     0.8788     0.8788     0.0000

  Mayer bond orders larger than 0.100000
B(  0-N ,  1-C ) :   0.9189 B(  0-N ,  7-H ) :   0.8658 B(  0-N ,  8-H ) :   0.8656 
B(  0-N , 15-H ) :   0.8677 B(  1-C ,  2-C ) :   0.9687 B(  1-C ,  9-H ) :   0.9578 
B(  1-C , 10-H ) :   0.9552 B(  2-C ,  3-C ) :   0.9692 B(  2-C , 11-H ) :   0.9597 
B(  2-C , 12-H ) :   0.9549 B(  3-C ,  4-C ) :   0.9140 B(  3-C ,  5-O ) :  -0.1020 
B(  3-C , 13-H ) :   0.9297 B(  3-C , 14-H ) :   0.9451 B(  4-C ,  5-O ) :   1.7623 
B(  4-C ,  6-O ) :   1.9029 

-------
TIMINGS
-------

Total SCF time: 0 days 0 hours 0 min 6 sec 

Total time                  ....       6.802 sec
Sum of individual times     ....       6.739 sec  ( 99.1%)

SCF preparation             ....       0.504 sec  (  7.4%)
Fock matrix formation       ....       5.724 sec  ( 84.2%)
  Startup                   ....       0.037 sec  (  0.7% of F)
  Split-RI-J                ....       0.439 sec  (  7.7% of F)
  Chain of spheres X        ....       3.557 sec  ( 62.1% of F)
  XC integration            ....       0.915 sec  ( 16.0% of F)
    XC Preparation          ....       0.000 sec  (  0.0% of XC)
    Basis function eval.    ....       0.198 sec  ( 21.7% of XC)
    Density eval.           ....       0.187 sec  ( 20.4% of XC)
    XC-Functional eval.     ....       0.030 sec  (  3.3% of XC)
    XC-Potential eval.      ....       0.261 sec  ( 28.5% of XC)
  CPCM terms                ....       0.685 sec  ( 12.0% of F)
Diagonalization             ....       0.000 sec  (  0.0%)
Density matrix formation    ....       0.075 sec  (  1.1%)
Total Energy calculation    ....       0.055 sec  (  0.8%)
Population analysis         ....       0.022 sec  (  0.3%)
Orbital Transformation      ....       0.039 sec  (  0.6%)
Orbital Orthonormalization  ....       0.000 sec  (  0.0%)
DIIS solution               ....       0.194 sec  (  2.9%)
SOSCF solution              ....       0.126 sec  (  1.8%)
Finished LeanSCF after   6.8 sec

Maximum memory used throughout the entire LEANSCF-calculation: 26.1 MB


-------------------------------------------------------------------------------
                          DFT DISPERSION CORRECTION                            
                                                                               
                                DFTD4 V3.4.0                                   
-------------------------------------------------------------------------------
The B3LYP functional is recognized
Active option DFTDOPT                   ...         5   

-------------------------   ----------------
Dispersion correction           -0.017496300
-------------------------   ----------------


-------------------------   --------------------
FINAL SINGLE POINT ENERGY      -363.024773423416
-------------------------   --------------------

--------------------------------------------------------------------------
WARNING: There was an error initializing an OpenFabrics device.

  Local host:   ga02
  Local device: mlx5_0
--------------------------------------------------------------------------


           ************************************************************
           *        Program running with 18 parallel MPI-processes    *
           *              working on a common directory               *
           ************************************************************
------------------------------------------------------------------------------
                         ORCA SCF GRADIENT CALCULATION
------------------------------------------------------------------------------

Nuc. rep. gradient        (SHARK) ... done (  0.0 sec)
HCore & Overlap gradient  (SHARK) ... done (  0.0 sec)
Split-RIJ-J gradient      (SHARK) ... done (  0.2 sec)
COSX-gradient                     ... done (  2.1 sec)
XC gradient                       ... done (  0.3 sec)
CPCM gradient                     ... done (  0.3 sec)
Dispersion correction             ... done (  0.0 sec)

-------------------
DISPERSION GRADIENT
-------------------

   1   N   :   -0.000364562   -0.000082955    0.000246768
   2   C   :   -0.000127950   -0.000098556    0.000314504
   3   C   :   -0.000158652   -0.000024145    0.000066991
   4   C   :    0.000313653    0.000003429   -0.000024078
   5   C   :    0.000258809    0.000101583   -0.000280636
   6   O   :    0.000302426    0.000295930   -0.000195985
   7   O   :    0.000124519   -0.000094186   -0.000459045
   8   H   :   -0.000122644    0.000049976    0.000045144
   9   H   :   -0.000122034   -0.000068727    0.000006733
  10   H   :   -0.000060984   -0.000068107    0.000092966
  11   H   :   -0.000061744   -0.000000590    0.000113613
  12   H   :   -0.000079231    0.000082809   -0.000003745
  13   H   :   -0.000052458   -0.000048783   -0.000062553
  14   H   :    0.000118843   -0.000076484   -0.000009250
  15   H   :    0.000123396    0.000069037    0.000028845
  16   H   :   -0.000091387   -0.000040230    0.000119728

Difference to translation invariance:
           :   -0.0000000000    0.0000000000    0.0000000000

Difference to rotation invariance:
           :    0.0000000000   -0.0000000000    0.0000000000

Norm of the Dispersion gradient    ...    0.0011062700
RMS gradient                       ...    0.0001596763
MAX gradient                       ...    0.0004590453

------------------
CARTESIAN GRADIENT
------------------

   1   N   :    0.021067015    0.003249431   -0.008676718
   2   C   :   -0.037703383   -0.002349738    0.004553208
   3   C   :    0.006454792    0.002435549    0.001378335
   4   C   :   -0.003892171   -0.003305087   -0.019637954
   5   C   :   -0.052819084   -0.076072127    0.017509099
   6   O   :    0.031575916    0.046842635   -0.026105443
   7   O   :    0.018623634    0.030638859    0.020412709
   8   H   :   -0.002480712    0.018494276   -0.002822519
   9   H   :   -0.002388008   -0.013528068   -0.013319206
  10   H   :    0.008892362   -0.012141065    0.000147328
  11   H   :    0.008855882    0.010018020    0.007211014
  12   H   :   -0.002999268    0.010733144   -0.000653785
  13   H   :   -0.003699157   -0.009167837   -0.006943791
  14   H   :    0.004346234   -0.009587273    0.001317758
  15   H   :    0.003819411    0.009722339    0.007365381
  16   H   :    0.002346537   -0.005983058    0.018264583

Difference to translation invariance:
           :    0.0000000000   -0.0000000000   -0.0000000000

Difference to rotation invariance:
           :   -0.0003550448    0.0001883906   -0.0003208937

Norm of the Cartesian gradient     ...    0.1378333314
RMS gradient                       ...    0.0198945277
MAX gradient                       ...    0.0760721269

-------
TIMINGS
-------

Total SCF gradient time     ....        2.832 sec

Densities                   ....       0.002 sec  (  0.1%)
One electron gradient       ....       0.025 sec  (  0.9%)
RI-J Coulomb gradient       ....       0.168 sec  (  5.9%)
COSX gradient               ....       2.059 sec  ( 72.7%)
XC gradient                 ....       0.287 sec  ( 10.1%)
CPCM gradient               ....       0.267 sec  (  9.4%)
   A-Matrix (El+Nuc)        ....       0.057 sec  (  2.0%)
   Potential                ....       0.210 sec  (  7.4%)

Maximum memory used throughout the entire SCFGRAD-calculation: 34.1 MB
[ga02:1517714] 17 more processes have sent help message help-mpi-btl-openib.txt / error in device init
[ga02:1517714] Set MCA parameter "orte_base_help_aggregate" to 0 to see all help / error messages
------------------------------------------------------------------------------
                         ORCA GEOMETRY RELAXATION STEP
------------------------------------------------------------------------------

Reading the OPT-File                    .... done
Getting information on internals        .... done
Copying old internal coords+grads       .... done
Making the new internal coordinates     .... (2022 redundants) done
Validating the new internal coordinates .... (2022 redundants) done
Calculating the B-matrix                .... done
Calculating the G,G- and P matrices     .... done
Transforming gradient to internals      .... done
Projecting the internal gradient        .... done
Number of atoms                         ....  16
Number of internal coordinates          ....  65
Current Energy                          ....  -363.024773423 Eh
Current gradient norm                   ....     0.137833331 Eh/bohr
Maximum allowed component of the step   ....  0.300
Current trust radius                    ....  0.300
Evaluating the initial hessian          ....  (Almloef) done
Projecting the Hessian                  .... done
Forming the augmented Hessian           .... done
Diagonalizing the augmented Hessian     .... done
Last element of RFO vector              ....  0.980992121
Lowest eigenvalues of augmented Hessian:
 -0.016997611  0.010803281  0.010917919  0.012727878  0.012829412
Length of the computed step             ....  0.197807469
The final length of the internal step   ....  0.197807469
Converting the step to Cartesian space:
 Initial RMS(Int)=    0.0245349969
Transforming coordinates:
 Iter   0:  RMS(Cart)=    0.0288207030 RMS(Int)=    1.3487369750
done
Storing new coordinates                 .... done

                                .--------------------.
          ----------------------|Geometry convergence|-------------------------
          Item                value                   Tolerance       Converged
          ---------------------------------------------------------------------
          RMS gradient        0.0118038206            0.0000300000      NO
          MAX gradient        0.0592016853            0.0001000000      NO
          RMS step            0.0245349969            0.0006000000      NO
          MAX step            0.0879620124            0.0010000000      NO
          ........................................................
          Max(Bonds)      0.0465      Max(Angles)    3.53
          Max(Dihed)        2.18      Max(Improp)    0.00
          ---------------------------------------------------------------------

The optimization has not yet converged - more geometry cycles are needed


    ---------------------------------------------------------------------------
                         Redundant Internal Coordinates
                            (Angstroem and degrees)

        Definition                    Value    dE/dq     Step     New-Value
    ----------------------------------------------------------------------------
     1. B(C   1,N   0)                1.4625 -0.019221  0.0228    1.4854   
     2. B(C   2,C   1)                1.5345  0.005956 -0.0082    1.5263   
     3. B(C   3,C   2)                1.5330  0.001471 -0.0020    1.5310   
     4. B(C   4,C   3)                1.5016 -0.011065  0.0136    1.5151   
     5. B(O   5,C   4)                1.3467  0.059202 -0.0465    1.3002   
     6. B(O   6,C   4)                1.2209 -0.037737  0.0189    1.2398   
     7. B(H   7,N   0)                1.0459  0.018120 -0.0242    1.0217   
     8. B(H   8,N   0)                1.0460  0.018429 -0.0246    1.0214   
     9. B(H   9,C   1)                1.1129  0.014490 -0.0220    1.0909   
    10. B(H  10,C   1)                1.1129  0.014551 -0.0221    1.0908   
    11. B(H  11,C   2)                1.1125  0.011003 -0.0167    1.0958   
    12. B(H  12,C   2)                1.1124  0.011906 -0.0181    1.0943   
    13. B(H  13,C   3)                1.1116  0.010599 -0.0160    1.0956   
    14. B(H  14,C   3)                1.1120  0.012589 -0.0191    1.0929   
    15. B(H  15,N   0)                1.0456  0.018260 -0.0244    1.0212   
    16. A(H   8,N   0,H  15)          108.86  0.005366   -0.86    108.00   
    17. A(H   7,N   0,H   8)          109.72  0.005707   -1.15    108.58   
    18. A(C   1,N   0,H   8)          110.12 -0.004485    0.76    110.88   
    19. A(C   1,N   0,H  15)          109.12 -0.007266    1.32    110.44   
    20. A(C   1,N   0,H   7)          110.12 -0.004628    0.78    110.90   
    21. A(H   7,N   0,H  15)          108.87  0.005465   -0.88    107.99   
    22. A(H   9,C   1,H  10)          108.40  0.001171   -0.05    108.35   
    23. A(C   2,C   1,H  10)          109.53 -0.004697    0.80    110.33   
    24. A(N   0,C   1,H  10)          109.20  0.004731   -0.94    108.25   
    25. A(C   2,C   1,H   9)          109.52 -0.001745    0.60    110.11   
    26. A(N   0,C   1,C   2)          110.95 -0.003934    0.53    111.48   
    27. A(N   0,C   1,H   9)          109.21  0.004634   -0.95    108.26   
    28. A(C   1,C   2,H  11)          109.21  0.000394   -0.01    109.21   
    29. A(C   3,C   2,H  12)          109.48 -0.000712    0.07    109.55   
    30. A(C   1,C   2,H  12)          109.08 -0.000357    0.17    109.25   
    31. A(C   3,C   2,H  11)          109.24 -0.000484    0.14    109.38   
    32. A(C   1,C   2,C   3)          111.03 -0.000594    0.20    111.23   
    33. A(H  11,C   2,H  12)          108.76  0.001812   -0.59    108.17   
    34. A(H  13,C   3,H  14)          108.55  0.001931   -0.40    108.15   
    35. A(C   2,C   3,C   4)          111.05 -0.002750    0.44    111.49   
    36. A(C   4,C   3,H  14)          109.17 -0.001914    0.43    109.60   
    37. A(C   2,C   3,H  14)          109.26  0.000173    0.21    109.47   
    38. A(C   4,C   3,H  13)          108.84  0.000819   -0.28    108.56   
    39. A(C   2,C   3,H  13)          109.93  0.001821   -0.43    109.51   
    40. A(O   5,C   4,O   6)          119.61 -0.029088    3.53    123.15   
    41. A(C   3,C   4,O   6)          120.33  0.009362   -1.01    119.32   
    42. A(C   3,C   4,O   5)          120.06  0.019720   -2.50    117.56   
    43. D(H   9,C   1,N   0,H   8)    -60.24  0.001482   -0.54    -60.78   
    44. D(H   9,C   1,N   0,H   7)    178.64  0.000280   -0.12    178.52   
    45. D(H   9,C   1,N   0,H  15)     59.19  0.000865   -0.32     58.87   
    46. D(C   2,C   1,N   0,H  15)   -180.00 -0.000773    0.14   -179.86   
    47. D(C   2,C   1,N   0,H   7)    -60.55 -0.001357    0.34    -60.21   
    48. D(C   2,C   1,N   0,H   8)     60.57 -0.000155   -0.08     60.49   
    49. D(C   3,C   2,C   1,N   0)    179.93 -0.000912    0.09    180.02   
[...]
      f0      :     0.001339  f :     0.009472
      f+1     :     0.001127
      f-1     :     0.000699
      f+2     :     0.001744
      f-2     :     0.001223
      f+3     :     0.001750
      f-3     :     0.001589

  1 C s       :     2.800807  s :     2.800807
      pz      :     1.068026  p :     2.958457
      px      :     0.823525
      py      :     1.066906
      dz2     :     0.085674  d :     0.426271
      dxz     :     0.091458
      dyz     :     0.088875
      dx2y2   :     0.087529
      dxy     :     0.072736
      f0      :     0.007863  f :     0.049147
      f+1     :     0.009804
      f-1     :     0.004976
      f+2     :     0.007618
      f-2     :     0.003765
      f+3     :     0.008220
      f-3     :     0.006901

  2 C s       :     2.779389  s :     2.779389
      pz      :     1.003571  p :     3.055204
      px      :     1.022196
      py      :     1.029436
      dz2     :     0.084598  d :     0.393629
      dxz     :     0.085656
      dyz     :     0.081662
      dx2y2   :     0.054679
      dxy     :     0.087034
      f0      :     0.007949  f :     0.039611
      f+1     :     0.006321
      f-1     :     0.005270
      f+2     :     0.006050
      f-2     :     0.004037
      f+3     :     0.005186
      f-3     :     0.004798

  3 C s       :     2.790584  s :     2.790584
      pz      :     1.029333  p :     3.063576
      px      :     1.004556
      py      :     1.029687
      dz2     :     0.069761  d :     0.362362
      dxz     :     0.088623
      dyz     :     0.060282
      dx2y2   :     0.059335
      dxy     :     0.084360
      f0      :     0.006219  f :     0.036010
      f+1     :     0.006390
      f-1     :     0.003766
      f+2     :     0.005371
      f-2     :     0.004260
      f+3     :     0.005212
      f-3     :     0.004792

  4 C s       :     2.780506  s :     2.780506
      pz      :     0.991116  p :     2.735092
      px      :     0.982163
      py      :     0.761814
      dz2     :     0.226010  d :     1.006364
      dxz     :     0.308827
      dyz     :     0.099999
      dx2y2   :     0.173465
      dxy     :     0.198063
      f0      :     0.033892  f :     0.157665
      f+1     :     0.030188
      f-1     :     0.010310
      f+2     :     0.028556
      f-2     :     0.020733
      f+3     :     0.018163
      f-3     :     0.015824

  5 O s       :     3.433367  s :     3.433367
      pz      :     1.674216  p :     4.658036
      px      :     1.497502
      py      :     1.486318
      dz2     :     0.007608  d :     0.058768
      dxz     :     0.017075
      dyz     :     0.000818
      dx2y2   :     0.020074
      dxy     :     0.013193
      f0      :     0.000625  f :     0.005148
      f+1     :     0.000974
      f-1     :     0.000101
      f+2     :     0.000917
      f-2     :     0.000169
      f+3     :     0.001291
      f-3     :     0.001072

  6 O s       :     3.430029  s :     3.430029
      pz      :     1.568054  p :     4.640890
      px      :     1.593640
      py      :     1.479195
      dz2     :     0.015435  d :     0.059246
      dxz     :     0.022127
      dyz     :     0.006234
      dx2y2   :     0.009155
      dxy     :     0.006295
      f0      :     0.000812  f :     0.005194
      f+1     :     0.001696
      f-1     :     0.000154
      f+2     :     0.001231
      f-2     :     0.000681
      f+3     :     0.000356
      f-3     :     0.000265

  7 H s       :     0.676015  s :     0.676015
      pz      :     0.020007  p :     0.100270
      px      :     0.029313
      py      :     0.050950

  8 H s       :     0.676118  s :     0.676118
      pz      :     0.035477  p :     0.100250
      px      :     0.023027
      py      :     0.041746

  9 H s       :     0.791674  s :     0.791674
      pz      :     0.014674  p :     0.060977
      px      :     0.014554
      py      :     0.031749

 10 H s       :     0.791653  s :     0.791653
      pz      :     0.023565  p :     0.060989
      px      :     0.011342
      py      :     0.026082

 11 H s       :     0.800194  s :     0.800194
      pz      :     0.013421  p :     0.059115
      px      :     0.017124
      py      :     0.028570

 12 H s       :     0.800383  s :     0.800383
      pz      :     0.021330  p :     0.059314
      px      :     0.014692
      py      :     0.023292

 13 H s       :     0.796469  s :     0.796469
      pz      :     0.015072  p :     0.059640
      px      :     0.017055
      py      :     0.027512

 14 H s       :     0.798070  s :     0.798070
      pz      :     0.021659  p :     0.059611
      px      :     0.014563
      py      :     0.023388

 15 H s       :     0.675518  s :     0.675518
      pz      :     0.058907  p :     0.100548
      px      :     0.020403
      py      :     0.021238



                      *****************************
                      * MAYER POPULATION ANALYSIS *
                      *****************************

  NA   - Mulliken gross atomic population
  ZA   - Total nuclear charge
  QA   - Mulliken gross atomic charge
  VA   - Mayer's total valence
  BVA  - Mayer's bonded valence
  FA   - Mayer's free valence

  ATOM       NA         ZA         QA         VA         BVA        FA
  0 N      7.2524     7.0000    -0.2524     3.5307     3.5307     0.0000
  1 C      6.1185     6.0000    -0.1185     3.7904     3.7904    -0.0000
  2 C      6.1721     6.0000    -0.1721     3.8487     3.8487     0.0000
  3 C      6.2668     6.0000    -0.2668     3.6250     3.6250     0.0000
  4 C      5.7510     6.0000     0.2490     4.6208     4.6208    -0.0000
  5 O      8.5873     8.0000    -0.5873     1.8254     1.8254    -0.0000
  6 O      8.5685     8.0000    -0.5685     1.8325     1.8325    -0.0000
  7 H      0.6731     1.0000     0.3269     0.8934     0.8934     0.0000
  8 H      0.6732     1.0000     0.3268     0.8936     0.8936    -0.0000
  9 H      0.8418     1.0000     0.1582     0.9618     0.9618    -0.0000
 10 H      0.8416     1.0000     0.1584     0.9613     0.9613     0.0000
 11 H      0.8951     1.0000     0.1049     0.9836     0.9836     0.0000
 12 H      0.8970     1.0000     0.1030     0.9892     0.9892     0.0000
 13 H      0.8953     1.0000     0.1047     0.9831     0.9831     0.0000
 14 H      0.8975     1.0000     0.1025     0.9871     0.9871    -0.0000
 15 H      0.6688     1.0000     0.3312     0.8885     0.8885     0.0000

  Mayer bond orders larger than 0.100000
B(  0-N ,  1-C ) :   0.8926 B(  0-N ,  7-H ) :   0.8774 B(  0-N ,  8-H ) :   0.8774 
B(  0-N , 15-H ) :   0.8778 B(  1-C ,  2-C ) :   0.9631 B(  1-C ,  9-H ) :   0.9598 
B(  1-C , 10-H ) :   0.9590 B(  2-C ,  3-C ) :   0.9467 B(  2-C , 11-H ) :   0.9637 
B(  2-C , 12-H ) :   0.9630 B(  3-C ,  4-C ) :   0.9301 B(  3-C ,  6-O ) :  -0.1048 
B(  3-C , 13-H ) :   0.9471 B(  3-C , 14-H ) :   0.9509 B(  4-C ,  5-O ) :   1.8366 
B(  4-C ,  6-O ) :   1.8333 

-------
TIMINGS
-------

Total SCF time: 0 days 0 hours 0 min 3 sec 

Total time                  ....       3.152 sec
Sum of individual times     ....       3.106 sec  ( 98.6%)

SCF preparation             ....       0.522 sec  ( 16.6%)
Fock matrix formation       ....       2.346 sec  ( 74.4%)
  Startup                   ....       0.014 sec  (  0.6% of F)
  Split-RI-J                ....       0.133 sec  (  5.7% of F)
  Chain of spheres X        ....       1.697 sec  ( 72.3% of F)
  XC integration            ....       0.271 sec  ( 11.6% of F)
    Basis function eval.    ....       0.058 sec  ( 21.4% of XC)
    Density eval.           ....       0.057 sec  ( 20.8% of XC)
    XC-Functional eval.     ....       0.009 sec  (  3.4% of XC)
    XC-Potential eval.      ....       0.072 sec  ( 26.6% of XC)
  CPCM terms                ....       0.204 sec  (  8.7% of F)
Diagonalization             ....       0.000 sec  (  0.0%)
Density matrix formation    ....       0.020 sec  (  0.6%)
Total Energy calculation    ....       0.019 sec  (  0.6%)
Population analysis         ....       0.090 sec  (  2.9%)
Orbital Transformation      ....       0.020 sec  (  0.6%)
Orbital Orthonormalization  ....       0.000 sec  (  0.0%)
DIIS solution               ....       0.025 sec  (  0.8%)
SOSCF solution              ....       0.064 sec  (  2.0%)
Finished LeanSCF after   3.3 sec

Maximum memory used throughout the entire LEANSCF-calculation: 29.5 MB
[ga02:1528278] 17 more processes have sent help message help-mpi-btl-openib.txt / error in device init
[ga02:1528278] Set MCA parameter "orte_base_help_aggregate" to 0 to see all help / error messages


-------------------------------------------------------------------------------
                          DFT DISPERSION CORRECTION                            
                                                                               
                                DFTD4 V3.4.0                                   
-------------------------------------------------------------------------------
The B3LYP functional is recognized
Active option DFTDOPT                   ...         5   

-------------------------   ----------------
Dispersion correction           -0.017446751
-------------------------   ----------------


-------------------------   --------------------
FINAL SINGLE POINT ENERGY      -363.039909937932
-------------------------   --------------------

                                *** OPTIMIZATION RUN DONE ***

--------------------------------------------------------------------------
WARNING: There was an error initializing an OpenFabrics device.

  Local host:   ga02
  Local device: mlx5_0
--------------------------------------------------------------------------


           ************************************************************
           *        Program running with 18 parallel MPI-processes    *
           *              working on a common directory               *
           ************************************************************

------------------------------------------------------------------------------
                              ORCA PROPERTY CALCULATIONS
------------------------------------------------------------------------------

GBWName                                 ... 01_Aminobutyric-acid_zwitterion.gbw
Number of atoms                         ...     16
Number of basis functions               ...    271
Max core memory                         ...   5000 MB

Electric properties:
Dipole moment                           ... YES
Quadrupole moment                       ...  NO
Static polarizability (Dipole/Dipole)   ...  NO
Static polarizability (Dipole/Quad.)    ...  NO
Static polarizability (Quad./Quad.)     ...  NO
Static polarizability (Velocity)        ...  NO

Atomic electric properties:
Dipole moment                           ...  NO
Quadrupole moment                       ...  NO
Static polarizability                   ...  NO

Choice of electric origin               ... Center of mass
Position of electric origin             ...     7.283232     1.103645    -3.024088

General magnetic properties:
Magnetizability                         ...  NO

EPR properties:
g-Tensor (aka g-matrix)                 ...  NO
Zero-Field splitting spin-orbit         ...  NO
Zero-field splitting spin-spin          ...  NO
Hyperfine couplings                     ...  NO (   0 nuclei)
Quadrupole couplings                    ...  NO (   0 nuclei)
Contact density                         ...  NO (   0 nuclei)

NMR properties:
Chemical shifts                         ...  NO (   0 nuclei)
Spin-rotation constants                 ...  NO (   0 nuclei)
Spin-spin couplings                     ...  NO (   0 nuclei,    0 pairs)

Choice of magnetic origin               ... GIAO
Position of magnetic origin             ...     0.000000     0.000000     0.000000

Properties with geometric perturbations:
SCF Hessian                             ...  NO
IR spectrum                             ...  NO
VCD spectrum                            ...  NO
X-ray spectroscopy properties:
SCF XES/XAS/RIXS spectra                ...  NO


-------------
DIPOLE MOMENT
-------------

Method             : SCF
Type of density    : Electron Density
Multiplicity       :   1
Irrep              :   0
Energy             :  -363.0224631871116685 Eh
Relativity type    : 
Basis              : AO
                                X                 Y                 Z
Electronic contribution:      2.278955820       1.211459348      -3.890824773
Nuclear contribution   :     -9.562343948      -3.805423470      11.168726069
                        -----------------------------------------
Total Dipole Moment    :     -7.283388128      -2.593964121       7.277901297
                        -----------------------------------------
Magnitude (a.u.)       :     10.618109049
Magnitude (Debye)      :     26.989088344



--------------------
Rotational spectrum 
--------------------
 
Rotational constants in cm-1:             0.269172             0.034763             0.031488 
Rotational constants in MHz :          8069.566070          1042.165445           943.994293 

Dipole components along the rotational axes: 
x,y,z [a.u.] :   -10.611643     0.370511     0.002111 
x,y,z [Debye]:   -26.972652     0.941764     0.005365 

 

Dipole moment calculation done in   0.0 sec 

Maximum memory used throughout the entire PROP-calculation: 16.2 MB
[ga02:1528362] 17 more processes have sent help message help-mpi-btl-openib.txt / error in device init
[ga02:1528362] Set MCA parameter "orte_base_help_aggregate" to 0 to see all help / error messages
--------------------------------------------------------------------------
WARNING: There was an error initializing an OpenFabrics device.

  Local host:   ga02
  Local device: mlx5_0
--------------------------------------------------------------------------
[ga02:1528438] 17 more processes have sent help message help-mpi-btl-openib.txt / error in device init
[ga02:1528438] Set MCA parameter "orte_base_help_aggregate" to 0 to see all help / error messages

--------------------------------
SUGGESTED CITATIONS FOR THIS RUN
--------------------------------

Below you find a list of papers that are relevant to this ORCA run
We neither can nor want to force you to cite these papers, but we appreciate if you do
You receive ORCA, which is the product of decades of hard work by many enthusiastic individuals, for free
The only thing we kindly ask in return is that you cite our papers,
We deeply appreciate it, if you show your appreciation for ORCA by not just citing the generic ORCA reference.

Please note that relegating all ORCA citations to the supporting information does *not* help us.
SI sections are not indexed - citations you put there will not count into any citation statistics
But we need these citations in order to attract the funding resources that allow us to do what we are doing

Therefore, if you are a happy ORCA user, please consider citing a few of the papers listed below in the main body of your paper

In addition to the list printed below, the program has created the file 01_Aminobutyric-acid_zwitterion.bibtex that contains the list in bibtex format
You can import this file easily into all common literature databanks and citation aid programs


List of essential papers. We consider these as the minimum necessary citations

  1. Neese,F.
     Software update: the ORCA program system, version 5.0
     WIRES Comput. Molec. Sci., 2022 12(1)e1606
     doi.org/10.1002/wcms.1606

List of papers to cite with high priority. The work reported in these papers was absolutely
necessary for this run to complete.
Our perspective: the developers of density functionals and basis sets usually get cited in chemistry papers
Good! But without the algorithms to do something with them, the functionals or basis sets would not do anything.
Hence, in our opinion, the algorithm design and method developments papers are equally worthy of getting cited

  1. Neese,F.
     An improvement of the resolution of the identity approximation for the formation of the Coulomb matrix
     J. Comp. Chem., 2003 24(14)1740-1747
     doi.org/10.1002/jcc.10318
  2. Neese,F.; Wennmohs,F.; Hansen,A.; Becker,U.
     Efficient, approximate and parallel Hartree-Fock and hybrid DFT calculations. A 'chain-of-spheres' algorithm for the Hartree-Fock exchange
     Chem. Phys., 2009 356(1-3)98-109
     doi.org/10.1016/j.chemphys.2008.10.036
  3. Garcia-Rates,M.; Neese,F.
     Effect of the Solute Cavity on the Solvation Energy and its Derivatives within the Framework of the Gaussian Charge Scheme
     J. Comput. Chem., 2020 41 922-939
     doi.org/10.1002/jcc.26139
  4. Helmich-Paris,B.; de Souza,B.; Neese,F.; Izsák,R.
     An improved chain of spheres for exchange algorithm
     J. Chem. Phys., 2021 155 104109
     doi.org/doi: 10.1063/5.0058766.
  5. Neese,F.
     The SHARK Integral Generation and Digestion System
     J. Comp. Chem., 2022  1-16
     doi.org/10.1002/jcc.26942
  6. Caldeweyher,E.; Bannwarth,C.; Grimme,S.
     Extension of the D3 dispersion coefficient model
     J. Chem. Phys., 2017 147 034112
     doi.org/10.1063/1.4993215
  7. Caldeweyher,E.; Ehlert,S.; Hansen,A.; Neugebauer,H.; Spicher,S.; Bannwarth,C.; Grimme,S.
     A generally applicable atomic-charge dependent London dispersion correction
     J. Chem. Phys., 2019 150 154122
     doi.org/10.1063/1.5090222
  8. Caldeweyher,E.; Mewes,J.; Ehlert,S.; Grimme,S.
     Extension and evaluation of the D4 London-dispersion model for periodic systems
     Phys. Chem. Chem. Phys., 2020 22(16)8499-8512
     doi.org/10.1039/D0CP00502A
  9. Wittmann,L.; Gordiy,I.; Friede,M.; Helmich-Paris,B.; Grimme,S.; Hansen,A.; Bursch,M.
     Extension of the D3 and D4 London Dispersion Corrections to the full Actinides Series
     Phys. Chem. Chem. Phys., 2024 26(32)21379-21394
     doi.org/https://doi.org/10.1039/D4CP01514B 

List of suggested additional citations. These are papers that are important in the 'surrounding' of 
of this run, or papers that preceded the highly important papers. If you like your results we are grateful for a citation.

  1. Izsak,R.; Neese,F.
     An overlap fitted chain of spheres exchange method
     J. Chem. Phys., 2011 135 144105
     doi.org/10.1063/1.3646921
  2. Izsak,R.; Hansen,A.; Neese,F.
     The resolution of identity and chain of spheres approximations for the LPNO-CCSD singles Fock term
     Molec. Phys., 2012 110 2413-2417
     doi.org/10.1080/00268976.2012.687466
  3. Neese,F.
     The ORCA program system
     WIRES Comput. Molec. Sci., 2012 2(1)73-78
     doi.org/10.1002/wcms.81
  4. Izsak,R.; Neese,F.; Klopper,W.
     Robust fitting techniques in the chain of spheres approximation to the Fock exchange: The role of the complementary space
     J. Chem. Phys., 2013 139 
     doi.org/10.1063/1.4819264
  5. Neese,F.
     Software update: the ORCA program system, version 4.0
     WIRES Comput. Molec. Sci., 2018 8(1)1-6
     doi.org/10.1002/wcms.1327
  6. Neese,F.; Wennmohs,F.; Becker,U.; Riplinger,C.
     The ORCA quantum chemistry program package
     J. Chem. Phys., 2020 152 Art. No. L224108
     doi.org/10.1063/5.0004608

List of optional additional citations

  1. Neese,F.
     Approximate second-order SCF convergence for spin unrestricted wavefunctions
     Chem. Phys. Lett., 2000 325(1-3)93-98
     doi.org/10.1016/s0009-2614(00)00662-x

Timings for individual modules:

Sum of individual times          ...      286.146 sec (=   4.769 min)
Startup calculation              ...       30.487 sec (=   0.508 min)  10.7 %
SCF iterations                   ...      166.274 sec (=   2.771 min)  58.1 %
Property calculations            ...        0.677 sec (=   0.011 min)   0.2 %
SCF Gradient evaluation          ...       88.613 sec (=   1.477 min)  31.0 %
Geometry relaxation              ...        0.096 sec (=   0.002 min)   0.0 %
                             ****ORCA TERMINATED NORMALLY****
TOTAL RUN TIME: 0 days 0 hours 5 minutes 3 seconds 660 msec
