34
 energy: -56.599873391178 gnorm: 0.178369953612 xtb: 6.7.1 (edcfbbe)
H            1.42053100000000       -0.69343900000000       -0.45759400000000
C            0.31562500000000       -0.64091500000000       -0.57275600000000
H            0.37944700000000        0.34125600000000       -2.37510200000000
H           -0.02020400000000       -1.57726700000000       -1.06978300000000
N           -0.04283300000000        0.48932200000000       -1.43082700000000
H           -0.10434400000000       -1.52577500000000        1.34227500000000
C           -0.35607200000000       -0.58177200000000        0.80987700000000
O           -0.15503900000000        1.84564400000000        1.27779400000000
C            0.09900500000000        0.57829600000000        1.65429800000000
H            0.33459400000000        1.38391400000000       -1.05046800000000
O            0.66999200000000        0.37333800000000        2.71201200000000
H           -1.08151800000000        0.54834700000000       -1.53303300000000
H           -1.45918500000000       -0.54094800000000        0.69330800000000
O            0.00353700000000        2.36336300000000       -5.79371700000000
H           -0.68568200000000        1.78879900000000       -5.37483100000000
H            0.31850700000000        1.84329500000000       -6.57534100000000
O            1.73833500000000        0.34165400000000       -4.87051000000000
H            2.05405200000000        1.14146300000000       -5.36167100000000
H            0.81853200000000        0.19190600000000       -5.20540000000000
O            0.94014100000000        4.00400700000000       -0.78531500000000
H           -0.01123400000000        4.27230600000000       -0.84457600000000
H            1.23874200000000        3.93907700000000       -1.72724700000000
O           -2.29765900000000        2.98218600000000       -2.94906800000000
H           -1.75822400000000        2.87679100000000       -3.77278700000000
H           -2.29156200000000        2.08410400000000       -2.53190500000000
O            0.33015000000000       -1.13529000000000        5.47209400000000
H            0.06032100000000       -1.32402000000000        6.40600200000000
H            0.99276500000000       -1.83941600000000        5.25817600000000
O           -3.01400200000000        1.24114200000000       -0.25470500000000
H           -3.71101100000000        1.65549600000000        0.31371400000000
H           -3.49546500000000        0.96188800000000       -1.07374300000000
O           -3.02813600000000        1.40737300000000        2.66674500000000
H           -2.64525800000000        0.76067300000000        2.02192400000000
H           -2.73777200000000        1.07521000000000        3.55329400000000
34
 energy: -56.623381969726 gnorm: 0.089945609280 xtb: 6.7.1 (edcfbbe)
H            1.40541564041466       -0.68792746394554       -0.44976558928616
C            0.31659533178787       -0.65017683863643       -0.57736153444738
H            0.38278557315037        0.37566262402995       -2.36380194684668
H           -0.01047924498562       -1.57372284519109       -1.07255395014367
N           -0.03838357214359        0.49651474903192       -1.42687166671221
H           -0.11133524493966       -1.50215191313924        1.34770880545337
C           -0.35261780420853       -0.58356722111027        0.79730930285291
O           -0.12666831113630        1.78415045526426        1.22140649403776
C            0.09768991866126        0.58853213896149        1.66034465871652
H            0.30996286149930        1.37914270404772       -1.01014042816571
O            0.69678217170637        0.37501935076907        2.72269759212274
H           -1.06557400464263        0.56285143863770       -1.50525351598952
H           -1.44193308833332       -0.52999974377796        0.67649923359020
O           -0.00278602762128        2.34762974540048       -5.78829660628778
H           -0.69890646633380        1.78527579267333       -5.40906072569632
H            0.28935709924159        1.87907941718841       -6.58984714269278
O            1.73355912443934        0.33626929195695       -4.84940852065867
H            2.05498643403562        1.12280993443360       -5.32186428724149
H            0.84645187538875        0.17106440164388       -5.21365764728723
O            0.93380548024655        3.97546533445263       -0.80663010959873
H            0.00766945911586        4.27042647600210       -0.83813748507298
H            1.23272998689420        3.97211233771703       -1.73425995527498
O           -2.29360278937229        2.98287939813466       -2.95491619668685
H           -1.75948438423600        2.89125075787779       -3.76202471160091
H           -2.28829581493548        2.10646891143250       -2.53471771949570
O            0.32305644487789       -1.15870494753914        5.48251718250745
H            0.06435962801472       -1.33426420784541        6.40337085005716
H            0.98626405707841       -1.83503125771984        5.26757477468034
O           -3.02844617527261        1.19993073061748       -0.29322154263826
H           -3.64948279157300        1.66421089031683        0.29860074977796
H           -3.55833548810252        0.95981198836166       -1.07463961744078
O           -3.09184447870251        1.36514400069716        2.68546781816717
H           -2.62111357674078        0.80188761988560        2.03789277853462
H           -2.72310582327261        1.09396394937146        3.54617465876676
34
 energy: -56.631812635689 gnorm: 0.048405265368 xtb: 6.7.1 (edcfbbe)
H            1.40307135699045       -0.68750115273657       -0.44823748782196
C            0.32600600993848       -0.66245616933877       -0.58107887539938
H            0.38805644014756        0.42727870683000       -2.34228745034488
H           -0.00168962126789       -1.56836101290256       -1.08248026255448
N           -0.03370964136197        0.50882082242568       -1.41128044264830
H           -0.12173484472320       -1.49536021381124        1.35053432930715
C           -0.34282669460560       -0.59519652565025        0.78363290270943
O           -0.14772442367945        1.72622716970557        1.19202185416337
C            0.16883939607194        0.61198044053003        1.61482537058319
H            0.28155043158236        1.37530839571052       -0.93928704846214
O            0.69963274641199        0.36959123808543        2.72442639536524
H           -1.05336532989748        0.58099658806562       -1.45845288020624
H           -1.42184977626886       -0.50370597706032        0.66700778442448
O           -0.02354323504858        2.33349316166117       -5.79107888491999
H           -0.72680804025838        1.77827386518989       -5.45243470640290
H            0.25434782341820        1.92744655835471       -6.61750027499683
O            1.72696475754957        0.32785214855961       -4.81456675264946
H            2.06240955231409        1.10422361933748       -5.26406524744731
H            0.87634441116534        0.14003923760607       -5.22112541070478
O            0.92872285848399        3.94284291938047       -0.83690174616321
H            0.02404907270419        4.26025536365156       -0.83067282982447
H            1.23049535448110        4.00813927299570       -1.75047974727416
O           -2.28805976503930        2.98785373673659       -2.96057564579445
H           -1.75539295842566        2.91449217032044       -3.75234297165318
H           -2.28563936723863        2.13245039066706       -2.53163081210406
O            0.31095392476480       -1.19173984264509        5.49988877475304
H            0.06661958411509       -1.35099885729439        6.41243551617634
H            0.98302877820954       -1.83474126258479        5.27687350075975
O           -3.03483642675659        1.18099950913673       -0.36214909013071
H           -3.57716920588666        1.65064706554053        0.28453952139320
H           -3.63401133798906        0.93953381428080       -1.08021003388426
O           -3.08948893079620        1.36395450358854        2.69446680706298
H           -2.62585217549996        0.82478605465233        2.05564500015820
H           -2.74831472360462        1.10458226101329        3.54367484453135
34
 energy: -56.638438447865 gnorm: 0.064852169187 xtb: 6.7.1 (edcfbbe)
H            1.41264756123248       -0.68381332876443       -0.44567225750704
C            0.33468249772682       -0.66546494479813       -0.57720587828934
H            0.39177966671589        0.47868295898107       -2.31511183211102
H            0.01209220145318       -1.56198181815460       -1.10142727063966
N           -0.03483191117042        0.52529554263213       -1.38323681269673
H           -0.12364935838156       -1.51026315730515        1.35521085774883
C           -0.34149425831639       -0.61306926811549        0.78475837813391
O           -0.08413494399071        1.72513499248631        1.11713634462174
C            0.13385844203129        0.62235194620036        1.62220684683171
H            0.26243696830191        1.38096314017259       -0.87298986319677
O            0.74073069426250        0.37889978485667        2.69045068169352
H           -1.05603768968276        0.59446776450067       -1.41926691419059
H           -1.41767480281476       -0.51043711219244        0.65864123374658
O           -0.02691991694589        2.31317922075218       -5.77339522461157
H           -0.77343443972278        1.76254334040084       -5.50212094859873
H            0.22165685780753        1.98331833799205       -6.65697931472026
O            1.71434360960649        0.32137031057925       -4.75997119527353
H            2.07763055622626        1.09163163511332       -5.20179670715444
H            0.89991161704563        0.09908968817172       -5.24220374249265
O            0.92336792123782        3.87878019145509       -0.86349171136760
H            0.03646153452031        4.26207607274630       -0.81508246785139
H            1.23162663435315        4.06181494640887       -1.77797402856744
O           -2.29136688982108        3.00416360418066       -2.96698725300583
H           -1.74104776848674        2.93563100916389       -3.74790535639090
H           -2.28216768414735        2.15775506246722       -2.51770555360139
O            0.28394404217928       -1.22725522438892        5.51049377372715
H            0.06553268424308       -1.37423352150527        6.43323308222272
H            0.98572611329710       -1.84031346045782        5.28154796479905
O           -3.03290841734235        1.14509104803006       -0.43467787092263
H           -3.49178979779218        1.65166276847619        0.27187085994874
H           -3.72235513502201        0.91690782313465       -1.09581641302972
O           -3.17675228478518        1.31602355943184        2.70355787390089
H           -2.57675724634097        0.86799261377552        2.06010918761144
H           -2.73603105747642        1.14401247357584        3.55293553123390
34
 energy: -56.640818486481 gnorm: 0.056206128439 xtb: 6.7.1 (edcfbbe)
H            1.42323572408124       -0.68243880254293       -0.44367315981496
C            0.34206093069334       -0.66753949244977       -0.57303206983649
H            0.39600691904022        0.53788844975233       -2.28152505764245
H            0.02620018342394       -1.55612905090343       -1.12293656925179
N           -0.03674863030454        0.54406933999050       -1.34817037246063
H           -0.12421821623196       -1.52346472652211        1.36652312243374
C           -0.33721333037031       -0.62857351651967        0.78947377518759
O           -0.01871988772554        1.73420699566500        1.03499059554186
C            0.12399676336218        0.62793389181661        1.62116389493959
H            0.24526237468639        1.38720131496776       -0.79874466316829
O            0.76333608596023        0.40016368716260        2.67085637396602
H           -1.06121959375452        0.60716933763238       -1.38083543506119
H           -1.41292839693352       -0.51923126182914        0.65282211332883
O           -0.06695701766936        2.31411956594755       -5.79135443287144
H           -0.82063005607360        1.75442584688715       -5.55163043985423
H            0.19949748310649        2.02315337611136       -6.67923507630192
O            1.70498834773381        0.30103700737420       -4.70973606154494
H            2.09042860818917        1.07998229389752       -5.12809410194832
H            0.91954685900007        0.06882053832559       -5.24370633594668
O            0.93703923832956        3.88448775751905       -0.89562918230917
H            0.04540126916567        4.24146072660630       -0.81347297821019
H            1.22301114543974        4.05063645117016       -1.80117047840755
O           -2.31226688913144        3.02280781745519       -2.98431910069467
H           -1.70895418219851        2.95342514230935       -3.73444797880226
H           -2.27491132796084        2.19248100921594       -2.49190295144464
O            0.24009960468968       -1.27666962163030        5.52036624394293
H            0.06525024508356       -1.40730378242255        6.46190226602298
H            0.98687967384839       -1.84852328345185        5.28886409649585
O           -3.02720067320740        1.13297733675532       -0.48763754552223
H           -3.47063841258527        1.62490797420248        0.21459607670866
H           -3.72539019926653        0.88487587199929       -1.11775701045648
O           -3.10666732030439        1.36824156074488        2.69129964595933
H           -2.62395987044633        0.84454556450848        2.07665083109847
H           -2.78454145166758        1.16086268025862        3.56063596592583
34
 energy: -56.646192626080 gnorm: 0.039815800639 xtb: 6.7.1 (edcfbbe)
H            1.43045420460787       -0.68466479767816       -0.45147741702489
C            0.34552674197421       -0.66752498892463       -0.57716081444796
H            0.39874457077864        0.58689474502497       -2.25666831490549
H            0.03096883994554       -1.55134565264544       -1.14125843626212
N           -0.04016325427387        0.55804273881800       -1.32445042813802
H           -0.12191166559358       -1.52557441227387        1.37164721509902
C           -0.32678998188074       -0.63049746603802        0.78831626286253
O           -0.01428880486629        1.74052525227591        1.02666979611278
C            0.19850322537403        0.62914441227247        1.58396302622088
H            0.23092392974878        1.38786526659099       -0.73711342675209
O            0.75175036837030        0.40970653667532        2.67404108330095
H           -1.06800387695930        0.61386504027833       -1.36016926894218
H           -1.40538166602931       -0.51359956646840        0.65554904567491
O           -0.11058903776051        2.31717857892609       -5.81714162857356
H           -0.85989937569060        1.75134122165539       -5.59170717521763
H            0.17982494152481        2.04786125122201       -6.69117836373807
O            1.70367661502693        0.27093359371086       -4.68238988880121
H            2.09374279680581        1.06769094223627       -5.07170174975719
H            0.92756822345277        0.06067730392186       -5.21127356589169
O            0.94163931169504        3.85787176553237       -0.92640291833841
H            0.05631312529182        4.22618462667421       -0.81127458959464
H            1.22102122962778        4.07027896735284       -1.82358696879377
O           -2.33687975723829        3.03949131467577       -3.00273026355735
H           -1.67573116644481        2.96208438779440       -3.71662544418132
H           -2.26765419206321        2.22845693100042       -2.46286884221867
O            0.20938506779880       -1.31710705238730        5.53164536604480
H            0.06855460720178       -1.43282885469612        6.48746944771203
H            0.98475790488058       -1.85959948189122        5.30069600879314
O           -3.01866049116520        1.10956036060458       -0.54015880955259
H           -3.43591289605270        1.61045782990843        0.15552820767828
H           -3.72933529237227        0.85917088275258       -1.14039798978923
O           -3.16910820438910        1.33523900155338        2.68064744341189
H           -2.57615634359452        0.86096452596757        2.08553788781249
H           -2.79781369772840        1.21326279558321        3.56715951375571
34
 energy: -56.647336689786 gnorm: 0.078369456398 xtb: 6.7.1 (edcfbbe)
H            1.42792569788642       -0.67776807581440       -0.46795068353487
C            0.34226707687363       -0.65806740907392       -0.58744299834804
H            0.39604534158499        0.63031535853816       -2.23782781585406
H            0.02934480215214       -1.53772529907915       -1.15512237172501
N           -0.05100345327316        0.57158559270399       -1.31499573739112
H           -0.11319068966310       -1.51567607734715        1.36223272329686
C           -0.32035823388708       -0.62111764556066        0.78100084137341
O            0.01121839558200        1.73692403436326        1.05396476881707
C            0.24941727214135        0.62605802777010        1.56771528837316
H            0.20196838217133        1.38754762544924       -0.68718524198568
O            0.75830873259953        0.39948926070994        2.67451613328532
H           -1.07928116008031        0.61614148544780       -1.35697145383097
H           -1.40004050384434       -0.51080928272939        0.66128953384387
O           -0.11834207337804        2.28079945220279       -5.79190028471770
H           -0.92269213579890        1.73133457801069       -5.65565722806212
H            0.13559972898451        2.10597694365028       -6.72805148757980
O            1.67482329564524        0.28048608401118       -4.59553744168307
H            2.09750993996740        1.03474732136546       -5.02253776528003
H            0.94979766797595        0.02337263248666       -5.20658486688633
O            0.93259249782815        3.79665247676044       -0.95842117924813
H            0.06764705319201        4.21071090285380       -0.81120474806683
H            1.22645348051313        4.12718294511275       -1.84541329440349
O           -2.30300079924021        3.06884133493270       -2.98154026375888
H           -1.68536704461571        2.96171785107149       -3.70941254588296
H           -2.28484975693801        2.26252607182043       -2.44985367076310
O            0.22495249436265       -1.33288439547643        5.56061013235132
H            0.07718462759308       -1.44334827933249        6.50796639313510
H            0.98132887896209       -1.87568269674868        5.32761005526803
O           -2.99386001759613        1.07426872221308       -0.65116175396847
H           -3.31055693026038        1.61085390797939        0.12333971393129
H           -3.81464352317173        0.82128473543613       -1.16467558838581
O           -3.17330232031168        1.33794255191260        2.66580133550827
H           -2.54449958294732        0.87103916838176        2.09734853000732
H           -2.85032114100706        1.23728809598530        3.56718697216718
34
 energy: -56.651521639913 gnorm: 0.057337880973 xtb: 6.7.1 (edcfbbe)
H            1.42578208193267       -0.66868751426478       -0.47952175645741
C            0.34079763207268       -0.64698913343361       -0.59225133752889
H            0.39505284452120        0.66101961917435       -2.22174225959284
H            0.02838679813972       -1.52340813147201       -1.15996607692109
N           -0.05878703277164        0.58235020570503       -1.30907817087525
H           -0.10025637865316       -1.50909197415160        1.35403270289460
C           -0.31551965649561       -0.61462544866529        0.77897615035389
O            0.06355207871966        1.73200120678265        1.06564513219305
C            0.23544416617202        0.62218480992831        1.58736703722532
H            0.17744512123460        1.38818304656926       -0.65435361121273
O            0.78446739610693        0.38808773072495        2.66871913742334
H           -1.08614068916240        0.61765592739892       -1.35789497367833
H           -1.39422407501080       -0.51517442771074        0.66706138425323
O           -0.17777399927835        2.28938167218147       -5.83991118778145
H           -0.93642919996239        1.73262694588372       -5.66697608079470
H            0.10913903103542        2.10401297422720       -6.73737239083720
O            1.66998901300195        0.26889698683289       -4.56614159410079
H            2.09028109674934        1.02042905928339       -4.98705657313160
H            0.95143253708755        0.02068109660005       -5.16020256182378
O            0.94243945251174        3.82618221855061       -0.98315379550196
H            0.07109823655920        4.18408261316936       -0.82781908748605
H            1.22404285038536        4.09963952063671       -1.85422019752434
O           -2.28729025309188        3.08582545251440       -2.97199402676826
H           -1.67988104330756        2.95962866501926       -3.69432625294318
H           -2.29665517084976        2.29096484894166       -2.43499467442009
O            0.22917473928814       -1.35318625671305        5.58541168051959
H            0.08134263146357       -1.45852631698071        6.52585032699060
H            0.98078636972682       -1.88610673450638        5.34969167113332
O           -2.98096787166883        1.06553309091235       -0.69133847689728
H           -3.30870369467517        1.58023800172366        0.05957055380466
H           -3.76366841857791        0.80298841251088       -1.20047399331488
O           -3.21657932695661        1.31919363417180        2.65297200433406
H           -2.49947525297880        0.89540782440826        2.10497331834791
H           -2.87922601326553        1.27060837405599        3.56165198012049
34
 energy: -56.647687918675 gnorm: 0.111615821493 xtb: 6.7.1 (edcfbbe)
H            1.42696127956525       -0.65988477567304       -0.48980700759110
C            0.34117824110488       -0.63627760483965       -0.59317662316277
H            0.39591780946618        0.69304844179896       -2.20486173015231
H            0.02427733744882       -1.51118568406911       -1.16106731696077
N           -0.06386674123084        0.59584898627696       -1.29866506764379
H           -0.08366892557051       -1.51202149239619        1.35635376947173
C           -0.30270950207792       -0.61459125036715        0.78611965868811
O            0.11921851394556        1.73213979780457        1.04735876580612
C            0.22136240155263        0.61483577274123        1.61131914909184
H            0.16314017331743        1.39174950293784       -0.63259794824109
O            0.79855063983990        0.38544743682492        2.68002102541659
H           -1.09097210917645        0.62540749975266       -1.36040369779074
H           -1.38182927824357       -0.51361812013378        0.67672408208045
O           -0.19898422615951        2.27674025431581       -5.84315876777983
H           -0.98339374389958        1.73267050390053       -5.71283031007106
H            0.08255470029496        2.13182962693459       -6.75215891238630
O            1.66467249538004        0.24720316060024       -4.55314427987715
H            2.08996074240194        1.01705438617944       -4.94050031847610
H            0.94279184181335        0.03303982381064       -5.11033713524209
O            0.93469075719081        3.72302937397610       -1.01814026895308
H            0.09504359823385        4.19864895293452       -0.81117474646818
H            1.22722146904624        4.17603328917863       -1.88936763681403
O           -2.33457654924639        3.09390110762809       -3.00631596187947
H           -1.61415876121389        2.94907179673269       -3.65680196177293
H           -2.29367588223777        2.33720044940135       -2.38509287574745
O            0.16441896984074       -1.41679531852914        5.59039176963788
H            0.07656102826676       -1.50124219794024        6.55214382621618
H            0.98430861822259       -1.88925733543499        5.35562623179697
O           -2.96450627133877        1.06903713039957       -0.72090071990973
H           -3.32457567277226        1.54695969733740       -0.01662805997705
H           -3.68424496902758        0.78818275182679       -1.23521552809304
O           -3.17302953235146        1.35979040164650        2.64092798766749
H           -2.55960037115360        0.87473218332686        2.11169233209674
H           -2.87996208122813        1.29327945112580        3.55480227702210
34
 energy: -56.653020886783 gnorm: 0.082404160371 xtb: 6.7.1 (edcfbbe)
H            1.42695766884934       -0.65402559915222       -0.49804992245861
C            0.33925678848450       -0.63003168002694       -0.59567023393183
H            0.39472867655170        0.70970529160269       -2.20043948831857
H            0.01738077265583       -1.50627516655678       -1.16269271087169
N           -0.06818262194887        0.60480270237988       -1.29451323596014
H           -0.07559017689344       -1.51769061400388        1.35706019490119
C           -0.29442864848301       -0.61533009166854        0.79039856437228
O            0.12812448172097        1.73596028637325        1.04133261083467
C            0.24438852420226        0.60729168800235        1.60695440422123
H            0.16021988145937        1.39714072099699       -0.63206535015334
O            0.79063579576894        0.38367311162737        2.69583275025021
H           -1.09597687190771        0.63179553108762       -1.36768893467867
H           -1.37619081057368       -0.50813269717131        0.68345297250386
O           -0.19417190795410        2.25937973888058       -5.83060867255812
H           -1.01278395811410        1.72772669918519       -5.74028108099479
H            0.06964445694573        2.14508523336357       -6.76126158630206
O            1.63863490365472        0.26348924540749       -4.50088627673741
H            2.10045796634463        1.01020303824565       -4.90993871648276
H            0.94811580299916        0.01189543996111       -5.13318883541900
O            0.95855875692735        3.83010341183546       -1.02472737105744
H            0.08562537107335        4.17148275127684       -0.83175765920829
H            1.21486915647792        4.09007260588437       -1.88313873659336
O           -2.33913125699356        3.10321515090740       -3.00520791461451
H           -1.60057509452178        2.94641679389837       -3.64581550292245
H           -2.29586474683150        2.35187203482441       -2.36789680672125
O            0.14301840661519       -1.43866781201981        5.59276704086005
H            0.07676357814854       -1.51520836833064        6.56492127038010
H            0.98523650150041       -1.89433662421915        5.35757359465624
O           -2.93953207841816        1.07854774938663       -0.78918588651857
H           -3.24811356224258        1.55272775706506       -0.01061720601859
H           -3.74825940296238        0.75695716217557       -1.23810334099670
O           -3.16573288787902        1.36904446811497        2.63324304526548
H           -2.56612270809244        0.86609492125271        2.11835318513259
H           -2.88288475655945        1.30702311942344        3.55297983614261
34
 energy: -56.650056762689 gnorm: 0.110120071952 xtb: 6.7.1 (edcfbbe)
H            1.42173083382883       -0.64989513575472       -0.50977094428144
C            0.33363465263090       -0.62723152695549       -0.60294632869914
H            0.39288912052068        0.72095221461031       -2.19996325023142
H            0.00911439637522       -1.50304095650047       -1.16680188579861
N           -0.07537481594652        0.60758505606479       -1.29777650646722
H           -0.07054886282525       -1.51666329674367        1.34634061232151
C           -0.29314486883282       -0.61166755498278        0.78578203278625
O            0.11356644568288        1.72989053778757        1.07517511952251
C            0.28961883589126        0.60309182513203        1.58508754329600
H            0.14958684061302        1.39560120500322       -0.62190746056604
O            0.78118623808114        0.37302431342992        2.70162665143132
H           -1.10318081876908        0.63095420830246       -1.37770193789368
H           -1.37645465613716       -0.51009543330527        0.69170513733592
O           -0.25421158114359        2.27312574303977       -5.89040168743609
H           -0.99666866322756        1.72782605831472       -5.71798662352186
H            0.05584727076879        2.11053300873157       -6.75691489678893
O            1.61632634280465        0.28352215659046       -4.44453688674974
H            2.09440692527255        0.99607605024636       -4.88928930936467
H            0.95404722780788       -0.01375946817122       -5.14003546919525
O            0.94531200810325        3.77626017834848       -1.04022031683034
H            0.09024088201078        4.15592293557216       -0.82784924833983
H            1.21584183966779        4.15054245138992       -1.90113589850630
O           -2.22929736635075        3.12335520748786       -2.91832967863637
H           -1.68928176570788        2.95629908162522       -3.66387406821544
H           -2.32699578244485        2.32941109546009       -2.40718256033669
O            0.22727942250757       -1.39905580744009        5.62884101707768
H            0.09477069151683       -1.48855320881933        6.56874197225783
H            0.97592640515658       -1.91237533141823        5.38512375196951
O           -2.92623855226268        1.06592181639338       -0.83938041941262
H           -3.19955309873857        1.55540703959967       -0.01497904394157
H           -3.77284352725819        0.74647760443885       -1.26237207574812
O           -3.22098079682317        1.33691776624778        2.61722884191061
H           -2.47083869477235        0.88528425907962        2.13051546578769
H           -2.93663652799857        1.33036390720762        3.54632235126724
34