34
 energy: -56.594450868551 gnorm: 0.175139912498 xtb: 6.7.1 (edcfbbe)
H            1.51131700000000       -0.30682800000000       -0.55501400000000
C            0.42356400000000       -0.53272100000000       -0.60971700000000
H            0.15351800000000        0.48284000000000       -2.37712700000000
H            0.30622500000000       -1.51992900000000       -1.10801900000000
N           -0.26687200000000        0.47309100000000       -1.42055200000000
H            0.31243500000000       -1.51306200000000        1.31258500000000
C           -0.16516600000000       -0.64664900000000        0.80679900000000
O            0.75046400000000        1.63132300000000        1.24106600000000
C            0.05694300000000        0.56251400000000        1.67849900000000
H           -0.17036900000000        1.42768900000000       -1.01141000000000
O           -0.37805100000000        0.56237000000000        2.81853100000000
H           -1.27994500000000        0.22829700000000       -1.50380900000000
H           -1.25406300000000       -0.84893600000000        0.72816900000000
O            2.17780100000000       -2.66061400000000       -0.00327100000000
H            1.99900500000000       -2.91609400000000       -0.94315000000000
H            2.73353300000000       -3.39873000000000        0.35304400000000
O            0.03693800000000       -2.09527700000000       -6.60197500000000
H            0.11651800000000       -1.11131000000000       -6.67999500000000
H            0.50773500000000       -2.31621900000000       -5.75927200000000
O           -1.66923400000000       -1.85152100000000       -4.27526500000000
H           -0.97987500000000       -2.55199900000000       -4.15391400000000
H           -1.39302400000000       -1.37114000000000       -5.09596900000000
O            0.65876200000000        3.01904300000000        3.65745300000000
H            0.73177900000000        2.07923700000000        3.96083900000000
H            0.49887000000000        3.53580300000000        4.48691500000000
O            1.44352100000000       -0.46757000000000       -5.03970900000000
H            1.71808700000000       -0.97574100000000       -4.23535500000000
H            0.56519000000000       -0.07842200000000       -4.79947800000000
O            1.63916400000000       -1.90392800000000        3.72243300000000
H            2.51547200000000       -1.49928100000000        3.94368900000000
H            1.59314200000000       -2.71837900000000        4.28382800000000
O            1.19907200000000        1.22706300000000        6.35039500000000
H            1.90185300000000        0.99465700000000        5.69259700000000
H            0.97105700000000        2.16910100000000        6.14744800000000
34
 energy: -56.620958890614 gnorm: 0.094357532445 xtb: 6.7.1 (edcfbbe)
H            1.48921727327636       -0.30252896048051       -0.54160489450837
C            0.42167082067308       -0.54053024235480       -0.61905650420851
H            0.14869221568554        0.51216274476612       -2.36781931874575
H            0.30417104523003       -1.51203814997490       -1.10991698656687
N           -0.26503163170843        0.48090843800271       -1.42404252943002
H            0.30583488233710       -1.49248404518442        1.30463817944440
C           -0.16194883281553       -0.64573443492185        0.78735312030264
O            0.71143769198831        1.57374811287525        1.17575466533958
C            0.07265588667072        0.56374601222249        1.67621410926444
H           -0.16022601250596        1.41121501105543       -0.98235140074064
O           -0.37672991840829        0.56540175852452        2.83026675955408
H           -1.26859894186899        0.25022279859199       -1.50420048182485
H           -1.24109868847663       -0.84234075270044        0.74421940052536
O            2.19730062874387       -2.68297239293016       -0.01602572577795
H            2.02170292449319       -2.94751649217799       -0.93393912009685
H            2.73826043865126       -3.39853938086019        0.35215727939144
O           -0.02913827108171       -2.09761698967698       -6.59071489461118
H            0.15349635983321       -1.14438521031926       -6.72764163422715
H            0.53665714782961       -2.32488445064008       -5.82188280890840
O           -1.61922369705210       -1.79251810091987       -4.22124841372817
H           -1.02465577836868       -2.57122263714278       -4.16938002162511
H           -1.42798371780771       -1.42671632311580       -5.11781349116926
O            0.71864318453566        3.05719597448319        3.69027695401003
H            0.66143513284755        2.09987273931906        3.92139294083511
H            0.47732162681229        3.53166636698014        4.50823770880499
O            1.44635281766917       -0.43971805265437       -5.00260129544254
H            1.72672892131605       -0.95331918768024       -4.22804603629763
H            0.57520421836843       -0.07298557772536       -4.77333116228108
O            1.65751847368718       -1.91729555279880        3.71780127096718
H            2.51067134504833       -1.51381252816983        3.94370765548409
H            1.58841450692290       -2.70303605921343        4.28792640094989
O            1.21001923259854        1.22976284945189        6.35549424811555
H            1.89031702725511        1.00149984358734        5.70204935419852
H            0.97627768762050        2.15347087178184        6.16541567300286
34
 energy: -56.630797736817 gnorm: 0.049982323467 xtb: 6.7.1 (edcfbbe)
H            1.46573567106756       -0.29598194369161       -0.52524586794089
C            0.41500168790285       -0.54834164351961       -0.62125593174423
H            0.14612172733148        0.55235875998083       -2.35271815352197
H            0.29836371549376       -1.50330602293010       -1.11365041235560
N           -0.26461526752845        0.49348476508939       -1.42118215618119
H            0.29945945040097       -1.47401986966602        1.30335111155646
C           -0.17387002940650       -0.65117415575363        0.77171159221536
O            0.69613226190729        1.51800403488258        1.11751155431487
C            0.04953619167531        0.60373049951641        1.64139426325503
H           -0.14452701496874        1.39285489622852       -0.92942505203239
O           -0.34166540336059        0.56233079705443        2.83377967020643
H           -1.26066597173476        0.27877045517823       -1.50147214097708
H           -1.24292849544650       -0.85083982666922        0.75642874861759
O            2.22331759023731       -2.71603093442063       -0.03479658224533
H            2.05173891084015       -2.99732589711137       -0.93253149217040
H            2.75258963243367       -3.40453568111099        0.36014246670600
O           -0.03727103787607       -2.09352466163072       -6.60536268517744
H            0.17173469979069       -1.16830334894867       -6.76714897885385
H            0.55281252506494       -2.32711056851984       -5.87833906227878
O           -1.61369582146775       -1.79149338585319       -4.22396326554177
H           -1.05492884696816       -2.56092557273620       -4.14471909542087
H           -1.43343396748034       -1.45782224274353       -5.10898724236731
O            0.75441444563919        3.09510541265155        3.71922788423295
H            0.58951492534958        2.12618290422956        3.85575950151831
H            0.45227782712236        3.52677815490982        4.52732625172925
O            1.42960313862286       -0.43607720200780       -4.97474643090388
H            1.74596152486520       -0.91712585367818       -4.21245541550963
H            0.57600992531837       -0.06859297514708       -4.74536248367945
O            1.68067395413704       -1.93479687770753        3.71258036205621
H            2.51497240352358       -1.53095791307095        3.93969803736278
H            1.57898652133463       -2.69138735950481        4.29492400908530
O            1.22538556171472        1.23230452882366        6.36653646799021
H            1.87936192295835        1.00513561909591        5.70904529824164
H            0.98326164150607        2.14131110878074        6.19523422981347
34
 energy: -56.633568415838 gnorm: 0.101302951839 xtb: 6.7.1 (edcfbbe)
H            1.45376632597703       -0.30435438397176       -0.51432742271311
C            0.40400011512291       -0.55851631931765       -0.61632746384126
H            0.15079761298881        0.59074523438437       -2.33334103111613
H            0.28613903646525       -1.50477143311400       -1.12507814410238
N           -0.26366706962391        0.50711302742913       -1.40514181578725
H            0.29648732800737       -1.48615628772668        1.30741229203550
C           -0.18297606069110       -0.66792646405228        0.77692913762149
O            0.63818310965418        1.54535006812457        1.02917556860241
C            0.09908552328919        0.60957756095610        1.63031711193633
H           -0.12642543844364        1.38472132675429       -0.87323603282275
O           -0.31947035761430        0.59644663668311        2.81433757374776
H           -1.26174628912055        0.30782442854353       -1.49272245307756
H           -1.25436964469489       -0.85554908831812        0.77536356237143
O            2.25139116848441       -2.73938536961536       -0.05898647408626
H            2.08076940454679       -3.06383415702494       -0.94467881630271
H            2.77129027280392       -3.41112566362913        0.38361122111441
O           -0.10958047622823       -2.08424388760610       -6.58963372107187
H            0.21333652542521       -1.18345725225230       -6.83446294306056
H            0.59573467203541       -2.33905066650556       -5.94319240025813
O           -1.53153637110551       -1.68546201190038       -4.14423496724656
H           -1.12765491598901       -2.61208518415613       -4.14674916506568
H           -1.46733647672280       -1.53519361035910       -5.16295821514161
O            0.77234181405842        3.12177358858856        3.73382214366385
H            0.54074017610065        2.14907681037359        3.79258532472422
H            0.40201967213142        3.51636004723648        4.54124616450004
O            1.41622104847189       -0.42766085234643       -4.95422849198027
H            1.77563382710823       -0.88021261480960       -4.18994910299294
H            0.56425821878376       -0.06539745002600       -4.71258510227156
O            1.70928390647922       -1.96396502027472        3.68591942689198
H            2.52820043985615       -1.54223701597006        3.94136512644543
H            1.55978257160233       -2.68151602889884        4.31656238678086
O            1.24765631359433        1.23200561828093        6.39266152145961
H            1.86912816982408        1.00279594269395        5.70167314570478
H            0.98388184742317        2.13698847182635        6.23014105533832
34
 energy: -56.637749400325 gnorm: 0.070032891766 xtb: 6.7.1 (edcfbbe)
H            1.44681504861867       -0.31686546748247       -0.50836204667978
C            0.39367505567952       -0.56855982454179       -0.61417928598976
H            0.15656878699350        0.62095376452615       -2.31752554378914
H            0.27613346753454       -1.51057952785798       -1.13944663054857
N           -0.26288013904918        0.51721226580564       -1.38995460655716
H            0.29602746585269       -1.49703791693447        1.31389130194648
C           -0.18784165574806       -0.68030138775624        0.78499657419539
O            0.57908508339744        1.58769741060208        0.94621596190576
C            0.14879668911263        0.60310507407139        1.63040236790597
H           -0.11130185369936        1.37904909084580       -0.82896865018255
O           -0.29740370182794        0.63306822797890        2.80138487361311
H           -1.26521566985492        0.33091643035669       -1.48667696737476
H           -1.26320559745664       -0.85654692400458        0.79093429231426
O            2.27490220139635       -2.75262007204620       -0.08017901343870
H            2.10343198533735       -3.12078316698382       -0.95697450430689
H            2.78528901988716       -3.41491989161291        0.40448647349135
O           -0.09389744057848       -2.08743457755496       -6.62204215807810
H            0.20479747857325       -1.19343775008514       -6.86970260066082
H            0.59064947655819       -2.34900731118141       -5.97659490295963
O           -1.59738715501656       -1.76976818924451       -4.21606161202402
H           -1.11149159837072       -2.57911322340567       -4.09732959082825
H           -1.43640742589864       -1.49926748033843       -5.11421189433286
O            0.75332524931896        3.13072377786754        3.73947560708805
H            0.52613454557835        2.17178746876834        3.75474762326780
H            0.36614617256323        3.51101013712940        4.54452835022162
O            1.41432135682934       -0.41277984044685       -4.93560602014620
H            1.80059031692588       -0.85312887454444       -4.16985589892714
H            0.55144225152308       -0.06944278233857       -4.68571159936374
O            1.73110871707793       -1.98911843496374        3.66105991659631
H            2.53906472894255       -1.54908169973138        3.94574317700671
H            1.54467302100851       -2.67454755550901        4.33325780187072
O            1.26864004195535        1.23121420492773        6.41957960227514
H            1.85960100911498        1.00131662481929        5.69114476009441
H            0.98117906772144        2.13496542086552        6.25882384239507
34
 energy: -56.641182207217 gnorm: 0.065154665416 xtb: 6.7.1 (edcfbbe)
H            1.44628771404687       -0.33411384835763       -0.51466543672003
C            0.38847009493588       -0.57648677082041       -0.61917544290420
H            0.15959761012369        0.63748644295165       -2.30560354200095
H            0.26761786625363       -1.51951928699451       -1.14810006958203
N           -0.26348736885262        0.51988681982183       -1.37904999678345
H            0.30114701456389       -1.47286011812773        1.33178495818840
C           -0.19272794232338       -0.66874201616312        0.78329735944745
O            0.61890749452748        1.57683426491527        0.95796767035958
C            0.04952770727382        0.65680891940666        1.58433913582775
H           -0.10087737011807        1.37131971837411       -0.79627257386326
O           -0.23804213794181        0.63430999477995        2.80954607723121
H           -1.26933348661893        0.34332806026251       -1.48067088239487
H           -1.26374752579457       -0.86391848849105        0.78582741259054
O            2.28923434934644       -2.76427156141191       -0.09171430612258
H            2.11904913625425       -3.16029611005420       -0.96080225148704
H            2.79391392695441       -3.41946516251454        0.41131482215329
O           -0.01210937251326       -2.09126313229735       -6.67848216252212
H            0.16255177636590       -1.19260964517207       -6.87122171746865
H            0.55440597971290       -2.34699033493301       -5.97731315371844
O           -1.58560419003154       -1.75329331587057       -4.21043686305512
H           -1.13073341155221       -2.58440986560414       -4.07202276967293
H           -1.42866335164040       -1.51989604424479       -5.12822710228297
O            0.72782393001173        3.12990893248097        3.73640759493551
H            0.51246119422116        2.18407639515090        3.73206283018209
H            0.34406196291176        3.50712531340666        4.53628519116874
O            1.41519767675695       -0.40687757640044       -4.92787072843517
H            1.81437726497107       -0.82952349210736       -4.15584774526035
H            0.54239797502418       -0.08085353030666       -4.67132487500939
O            1.73032792692264       -1.99233344474408        3.66936954732958
H            2.54578170668826       -1.55933933068592        3.94490523246607
H            1.55177280990042       -2.68334503110087        4.32023015652146
O            1.28284406214038        1.22951628209118        6.43593448828291
H            1.85348007923237        1.00593106568123        5.68436491410541
H            0.97945489824759        2.13255389707930        6.27645322849371
34
 energy: -56.643634873411 gnorm: 0.086369659803 xtb: 6.7.1 (edcfbbe)
H            1.44794617112994       -0.35889974460531       -0.52387766926517
C            0.38636295729459       -0.58307670012174       -0.62049515257704
H            0.16683201528751        0.66209334078554       -2.28745966284861
H            0.24981348660179       -1.52154889717291       -1.15229563233283
N           -0.25693905664131        0.52924369900449       -1.36439291125150
H            0.30548289489026       -1.46259052710145        1.34094180984702
C           -0.18748772442678       -0.66322003728073        0.78470577968742
O            0.57650381054409        1.60313508839998        0.92984402603655
C            0.04317802557737        0.67804992387697        1.56507655721036
H           -0.07685465653431        1.36465795858530       -0.75377748170788
O           -0.21034020648472        0.65669575948478        2.79662851811390
H           -1.26468217572242        0.36780756204414       -1.46887062443755
H           -1.25839888838711       -0.85916979824976        0.79307509644426
O            2.30680983108336       -2.79005677337571       -0.10467768137679
H            2.14462060184789       -3.20334062337369       -0.96445585276558
H            2.81277078171474       -3.42856198200006        0.41081745587190
O           -0.12300255151089       -2.07632956797012       -6.63354532448054
H            0.20722578773522       -1.19350854127098       -6.93809907297839
H            0.61555924715563       -2.35353348004634       -6.02783499097929
O           -1.57681766264169       -1.74033035445050       -4.21419234392302
H           -1.15469772169965       -2.58809029993862       -4.03609365521746
H           -1.41028507286858       -1.55305260800131       -5.14947724218690
O            0.78427792638668        3.15740930153467        3.75193711256747
H            0.42249738177579        2.18599660092501        3.66050307787740
H            0.28958361806363        3.48338895788264        4.55281636190304
O            1.40258500382770       -0.40874576578545       -4.91649126162788
H            1.82550113472970       -0.79884445515289       -4.13857874278680
H            0.52814966060661       -0.09640099153808       -4.65092138946680
O            1.74351787464838       -2.00829111855712        3.66215889324775
H            2.55477775736637       -1.57481870599906        3.94294392615220
H            1.54877556178744       -2.68425678200871        4.32044787505847
O            1.29084100116494        1.22716385668363        6.45087749934672
H            1.84704563415878        1.01070052747005        5.69124947786950
H            0.98421355154003        2.12900317732320        6.30280222497617
34
 energy: -56.642699238020 gnorm: 0.105848229494 xtb: 6.7.1 (edcfbbe)
H            1.44451003726335       -0.38563181288699       -0.53286308378334
C            0.38129014424357       -0.58961420726535       -0.61804162250556
H            0.16874506038428        0.68045361539169       -2.26915303013888
H            0.22538111838134       -1.52179791137634       -1.14722278572461
N           -0.25332001591291        0.53464273515059       -1.35265247364830
H            0.30188029075013       -1.46026042295706        1.34617968930212
C           -0.18025987556834       -0.66190445651755        0.78993595124893
O            0.48145211855358        1.64393141686509        0.87722401417988
C            0.12074681888096        0.65986923720920        1.58077182188737
H           -0.05558749579355        1.35093540279385       -0.71523124555349
O           -0.21269016174238        0.69377318640803        2.77469053262525
H           -1.25968767961024        0.38766095296707       -1.45701993404359
H           -1.25389892702935       -0.84457185600585        0.81038902458485
O            2.32028107178721       -2.81971165023445       -0.11470589447718
H            2.16857755228445       -3.24229587148051       -0.96160208989898
H            2.82634488390597       -3.43677254443750        0.40936425208781
O           -0.12835033916607       -2.07189725642288       -6.64846486800816
H            0.20755204572646       -1.18920221504606       -6.97397979595894
H            0.62829130953494       -2.35465013933536       -6.05261639023213
O           -1.52855247916818       -1.67898534501272       -4.17334621530902
H           -1.19866252133211       -2.60747767645818       -4.02375234161832
H           -1.42045543016299       -1.60676278103257       -5.18421610929308
O            0.64708229819428        3.13981088129327        3.73953307046508
H            0.46282209048171        2.20936545454484        3.63704959601418
H            0.32358005922697        3.49395701746282        4.53262303926059
O            1.39561000696216       -0.40306661018357       -4.90004435843426
H            1.83115427604263       -0.76892431909984       -4.12567160242425
H            0.52057233773692       -0.10942542071569       -4.63370542656252
O            1.76235026903896       -2.02839488674247        3.65169211938367
H            2.56282705511480       -1.59101742558436        3.94060867007325
H            1.54216384691856       -2.68049290295041        4.32694085189924
O            1.30026992384861        1.22655969629772        6.45768280884384
H            1.84144900624532        1.01774438664917        5.69825975731300
H            0.99189730398049        2.12283172871203        6.32263306844581
34
 energy: -56.645202426527 gnorm: 0.100882604035 xtb: 6.7.1 (edcfbbe)
H            1.44533304813074       -0.39641271819541       -0.53975554200899
C            0.37742950043060       -0.59081690763507       -0.61854763311480
H            0.17198372216981        0.68714144575350       -2.26707652382914
H            0.21238788760765       -1.52540155717412       -1.14564970021811
N           -0.25139589512762        0.53657772808123       -1.35090120012190
H            0.30417961875484       -1.45139842445895        1.35346671221887
C           -0.18114806950498       -0.65616348244710        0.79343487533634
O            0.46759380457174        1.66021524053196        0.87010679806176
C            0.12127254175456        0.66342262151689        1.58190156800386
H           -0.05029032203167        1.34809763624024       -0.70488844924996
O           -0.20108180825611        0.70333680600479        2.77891174820915
H           -1.25900397459886        0.39389454732718       -1.45519767626573
H           -1.25546610290264       -0.84065346616388        0.81214329522435
O            2.32605853191130       -2.82346345165069       -0.12807480483623
H            2.17630151412464       -3.27238838478380       -0.96939836444291
H            2.83027913907273       -3.43390030068747        0.42037302578968
O            0.01114324802725       -2.08017714431351       -6.73084011871958
H            0.14680042685117       -1.18694328116445       -6.93990254090256
H            0.55821167054045       -2.34276975771008       -6.03101906428900
O           -1.52669654562650       -1.69891876609605       -4.17542136496796
H           -1.18554462727568       -2.60773523683775       -4.03653162588514
H           -1.41946099275578       -1.59294722126016       -5.15729954875293
O            0.72773054306894        3.16497427121778        3.74850441345350
H            0.41519819455543        2.21189019913323        3.58536133567518
H            0.24868952036694        3.46511245830374        4.55392491281487
O            1.39765942600327       -0.39821627934049       -4.89549728699597
H            1.84138600606339       -0.75637412126798       -4.11977036395846
H            0.51334713509297       -0.12231157249525       -4.62813485795471
O            1.77211745514352       -2.04277798185082        3.63592359103802
H            2.56701430662869       -1.59630329426197        3.94319919302723
H            1.53253908434745       -2.67873048570312        4.33388939565809
O            1.31169049410630        1.22771982571351        6.47168606380355
H            1.83197652541872        1.01864957991352        5.68669125961984
H            0.98713099333816        2.12244947576033        6.33567747857997
34
 energy: -56.640053264769 gnorm: 0.131967937529 xtb: 6.7.1 (edcfbbe)
H            1.45097187990376       -0.41035993621153       -0.55188927549869
C            0.37544299666755       -0.59366841558029       -0.62315744821299
H            0.17844540356694        0.69239483807502       -2.26700550647564
H            0.19930012848953       -1.53582523086665       -1.14430144951756
N           -0.24797300882084        0.53551939112761       -1.34912927695482
H            0.31694818044533       -1.42733320285060        1.37116563945241
C           -0.18086991145253       -0.64051366479564        0.79449029016595
O            0.52671592735560        1.64290371766865        0.91217975662335
C           -0.00779094759306        0.72294899809111        1.53454057863065
H           -0.04697809290010        1.34506030338107       -0.69263224483608
O           -0.14298194036400        0.68867043609930        2.80447613277135
H           -1.25869550242398        0.39663838918015       -1.45322300654285
H           -1.25150109764850       -0.84386327808558        0.80629899281697
O            2.33221855004322       -2.82702572862644       -0.13808777948405
H            2.18583416067042       -3.30206292457193       -0.97717719742390
H            2.83751959459482       -3.43464275565155        0.43072021549685
O           -0.07295994412925       -2.06865400342274       -6.68838903123925
H            0.17343080830084       -1.18910287017404       -6.97276223512076
H            0.59868262751377       -2.33606149842176       -6.05745577532448
O           -1.57351761547966       -1.78799674945133       -4.24032738081132
H           -1.14722165227060       -2.58056156837778       -4.03385953503302
H           -1.39007634468485       -1.54455514815960       -5.09817003175940
O            0.68407591689007        3.15329656162216        3.72488027747744
H            0.43840245566036        2.22760293273717        3.59569929834670
H            0.23367298535105        3.46924151705997        4.53525296749615
O            1.39021912563137       -0.39804102974924       -4.89608774573167
H            1.84847342653273       -0.74218370748054       -4.11323608642453
H            0.49554491638322       -0.13972548192670       -4.61816136250452
O            1.76992083354924       -2.04601432397643        3.64039676729137
H            2.57468523543628       -1.60404440361173        3.94127801333197
H            1.53908972501972       -2.68763909363973        4.32386113595592
O            1.32201262446681        1.22698267246154        6.48468126854207
H            1.82939901205697        1.02146646035360        5.67670641818243
H            0.98492554323959        2.12582679777427        6.34971361631436
34
 energy: -56.654047852964 gnorm: 0.027063044206 xtb: 6.7.1 (edcfbbe)
H            1.44964197894379       -0.42186977458631       -0.55506222401854
C            0.37449289212057       -0.59389296579991       -0.61934214765896
H            0.18325976618704        0.69768511698384       -2.25936422547471
H            0.18813870507284       -1.53243936748981       -1.13803794444953
N           -0.24345063272892        0.53995181677241       -1.34514614004200
H            0.31407221847611       -1.42796657658280        1.37087805700629
C           -0.17651846846519       -0.63982954725855        0.79891305051436
O            0.47595060340878        1.66873265493208        0.88679004916043
C            0.05822319415225        0.70027652061792        1.55677626335475
H           -0.03767832083687        1.34482368605835       -0.68560669150009
O           -0.16430579827190        0.70956554724214        2.78577314113167
H           -1.25277146596222        0.40587456828776       -1.45130423907964
H           -1.24907593359697       -0.83570842132502        0.81542747101996
O            2.33804864889255       -2.84278896136248       -0.14033848119239
H            2.19652046169673       -3.31023752886948       -0.97376783247077
H            2.84370184538605       -3.44039130076161        0.42006935610016
O           -0.08425708634733       -2.06868750616008       -6.69177361361801
H            0.17353511138812       -1.18293535759104       -6.99207015265728
H            0.61356729833668       -2.33435449049452       -6.06530725989764
O           -1.54376839474755       -1.73154281216348       -4.21010178599934
H           -1.18185236390476       -2.60088616369927       -4.00410337965940
H           -1.38274959140086       -1.58766747167799       -5.15209869936758
O            0.68452307003046        3.16146099820722        3.73451703576143
H            0.40141797687022        2.22591846860949        3.56868636244896
H            0.23493090472359        3.46354216594816        4.53521029747277
O            1.38672764407850       -0.39410289540622       -4.88716743345201
H            1.84578735571608       -0.73292402801693       -4.10993074800728
H            0.49127645034990       -0.14954855965508       -4.61240267671413
O            1.77519108629677       -2.05292650473937        3.64023727854557
H            2.57673658659173       -1.61408559448527        3.93708245580558
H            1.53947632487454       -2.68958553827724        4.32103366125557
O            1.31763507113897        1.22575209080783        6.48248490558699
H            1.82740402287418        1.02578413824432        5.68974994688178
H            0.99153483865798        2.12368159369059        6.36058534321332
34