34
 energy: -56.716941469101 gnorm: 0.000384156371 xtb: 6.7.1 (edcfbbe)
H            1.27628501571946       -0.62379695187343       -0.21146534703987
C            0.29593775197136       -0.23537458749752        0.06616137766750
H            0.45948834116757        1.03973082894770       -1.59677011028615
H           -0.46044715005757       -0.95156328941715       -0.25220720438047
N            0.09611240603751        1.06488680271246       -0.60528580786175
H            0.37725757152269       -1.02804591760079        2.06967783172387
C            0.24106654498215       -0.06484879197184        1.58169635866998
O            1.44613478005138        2.00433597363136        1.49186444356613
C            1.32332219739067        0.91067284752662        2.08095720851552
H            0.64383455956903        1.75033811508603       -0.03418185564430
O            2.02984311802487        0.55518624715481        3.06052562814873
H           -0.88551610279544        1.34117202600525       -0.60002924251917
H           -0.72407957703246        0.34202639557508        1.89129155025426
O            0.89150940999827       -3.64495465005451        0.95072436607290
H            1.27166820224773       -3.60820643717590        1.85591919810876
H            0.73809172344121       -4.57515224734331        0.76372892020866
O            2.92095561684677       -2.18510472531675       -0.19216512230889
H            2.19202143125912       -2.75222621296444        0.13348964570491
H            3.37751805054728       -1.88370755112955        0.60696373742021
O            1.02087842264364       -1.26887600529347        4.80924545790477
H            1.37214912088476       -0.56957828787316        4.21626364377444
H            1.32916656443912       -1.04981510373774        5.69343166014526
O            3.86287877525289       -1.35466760559587        2.37252564174514
H            4.73615516605637       -1.09903900464788        2.68492371332416
H            3.25364693254508       -0.63745201583947        2.63752071115412
O            2.62041061260676       -1.39217743620426       -2.82169967250478
H            2.82477077522702       -1.63057438561792       -1.89902849897191
H            2.33301569290262       -2.20521726160312       -3.24731728278798
O            2.13040029150317       -3.34130805557564        3.34441454712254
H            2.86681692719328       -2.79183986195008        3.02092179835909
H            1.62745397091359       -2.74954705020803        3.93495050858823
O            1.15768233060097        0.88601736617358       -3.07754829607443
H            1.78071468627179        1.56909267471725       -3.34062408234057
H            1.66945084000966        0.05045815897052       -3.04000542545968
