34
 energy: -56.544822186475 gnorm: 0.200085403042 xtb: 6.7.1 (edcfbbe)
H            1.51131700000000       -0.30682800000000       -0.55501400000000
C            0.42356400000000       -0.53272100000000       -0.60971700000000
H            0.15351800000000        0.48284000000000       -2.37712700000000
H            0.30622500000000       -1.51992900000000       -1.10801900000000
N           -0.26687200000000        0.47309100000000       -1.42055200000000
H            0.31243500000000       -1.51306200000000        1.31258500000000
C           -0.16516600000000       -0.64664900000000        0.80679900000000
O            0.75046400000000        1.63132300000000        1.24106600000000
C            0.05694300000000        0.56251400000000        1.67849900000000
H           -0.17036900000000        1.42768900000000       -1.01141000000000
O           -0.37805100000000        0.56237000000000        2.81853100000000
H           -1.27994500000000        0.22829700000000       -1.50380900000000
H           -1.25406300000000       -0.84893600000000        0.72816900000000
O            1.73685200000000        3.09459700000000       -3.29553100000000
H            2.00172200000000        3.53775500000000       -2.45050700000000
H            1.28443700000000        2.26203100000000       -3.00783700000000
O           -1.48306400000000        3.65833300000000       -0.58639800000000
H           -2.06765200000000        4.29859000000000       -1.06487400000000
H           -1.09185700000000        4.18573400000000        0.15482900000000
O           -2.86559500000000        2.63754300000000       -2.60884200000000
H           -3.43117700000000        3.44804700000000       -2.67058100000000
H           -3.41279200000000        1.92133400000000       -3.01900300000000
O           -1.52133600000000        2.72544500000000       -4.33432500000000
H           -1.81375500000000        2.74067700000000       -5.28030100000000
H           -1.50183300000000        1.76446200000000       -4.09611500000000
O           -3.44311900000000        2.24892900000000       -0.51964600000000
H           -3.78930500000000        3.15445200000000       -0.31766700000000
H           -3.17636100000000        1.88315100000000        0.36106900000000
O            0.93802200000000        2.92781100000000       -5.52677500000000
H            0.56915400000000        3.71376500000000       -5.05051600000000
H            0.43474400000000        2.15738800000000       -5.16102600000000
O            0.01352000000000        4.45177900000000       -2.21320400000000
H           -0.26033400000000        3.97132900000000       -3.03465500000000
H           -0.50124600000000        5.29739000000000       -2.23708900000000
34
 energy: -56.589287627322 gnorm: 0.103269193466 xtb: 6.7.1 (edcfbbe)
H            1.49447344524160       -0.29988326022654       -0.54939543835775
C            0.42569054392094       -0.54078467579504       -0.61723462225798
H            0.14211843927608        0.49900767278663       -2.36856069101055
H            0.31292421582599       -1.51608215991252       -1.10866553321098
N           -0.26673970097818        0.47830652006784       -1.42246158450352
H            0.30197310597029       -1.49620221034538        1.30933034067341
C           -0.15617022393815       -0.64221126142232        0.79206505074749
O            0.72755230807919        1.58279326177372        1.21293414212919
C            0.07178286376078        0.57222769180396        1.68339005559043
H           -0.17657823293548        1.42063533710747       -0.99829934494389
O           -0.38803635367630        0.56487876400922        2.83401952561113
H           -1.27217555345753        0.25413096766369       -1.49747996219859
H           -1.23626760858447       -0.83827141091087        0.74118068664889
O            1.82506610693340        3.04971661951226       -3.26894602649452
H            2.00071263962012        3.53770460947201       -2.44357993122176
H            1.30036819472906        2.27822593781771       -2.98732064360855
O           -1.50251697495987        3.65894812730449       -0.51142514375816
H           -2.03755155430496        4.27887620658115       -1.04114123319026
H           -1.07363016544165        4.20023890983829        0.16727315669069
O           -2.91577915237373        2.63797758699568       -2.62052119440655
H           -3.45211313608034        3.43847789283922       -2.68128426577322
H           -3.45108797343142        1.93251490201442       -3.01168223375622
O           -1.42587663484547        2.71580425256712       -4.42426885862463
H           -1.80723797972735        2.73195340294535       -5.31897745811382
H           -1.50761749305584        1.78608280476563       -4.12832453289556
O           -3.55282908456350        2.18219504501590       -0.43688943962164
H           -3.78714964318636        3.12068461482439       -0.28711646497024
H           -3.18069410910185        1.88581947573817        0.41328859705814
O            0.90232888964224        2.92708784323318       -5.60207558888263
H            0.60213553283230        3.69427142024026       -5.07679081963713
H            0.45018822369610        2.17293154645428       -5.17734508083985
O            0.04635302807225        4.51694643882116       -2.26308325302508
H           -0.29094966996002        3.98131586106960       -3.01296057921914
H           -0.50364129299777        5.31422226534989       -2.25664463062714
34
 energy: -56.608632438969 gnorm: 0.037818919355 xtb: 6.7.1 (edcfbbe)
H            1.47974376475395       -0.28402090501672       -0.54299850860654
C            0.42551265268573       -0.54288891989269       -0.61822529314415
H            0.12989078551072        0.52343370309853       -2.35780645728054
H            0.31829728798118       -1.50595389789697       -1.11241636184991
N           -0.26966133741264        0.48915293918499       -1.41890169899718
H            0.29334254621878       -1.48630203669788        1.30972834869451
C           -0.15814203473617       -0.64652282449886        0.78087563287385
O            0.71919737408566        1.53608715588760        1.18930177937788
C            0.06793950111422        0.59888852276309        1.66960120410675
H           -0.17988278615032        1.41491441497136       -0.96831241788317
O           -0.38813422502857        0.55379523805716        2.83571182101315
H           -1.27187480647903        0.28700885353527       -1.48217278244923
H           -1.23197365855076       -0.83430783371401        0.75184529485629
O            1.89279128591210        3.01166123918861       -3.24058179087308
H            2.01531396371259        3.54439087809091       -2.44550179013375
H            1.32767660956957        2.28606829453275       -2.95674996022167
O           -1.50593075122161        3.65695142883001       -0.44395569930105
H           -2.00526693211795        4.25295776564476       -1.01483319029364
H           -1.04389332488504        4.20607667195334        0.18752668376670
O           -2.96274395785674        2.63838692736861       -2.65336050867001
H           -3.48342345736819        3.43198396349784       -2.69364311937726
H           -3.50726197511953        1.93021306612546       -2.99043508093663
O           -1.40563955223115        2.70105563153598       -4.46995986265744
H           -1.79888132081680        2.73444717266072       -5.33927871116715
H           -1.51184572236784        1.79994483961754       -4.15320228750384
O           -3.63200949445163        2.12717101588327       -0.35863789797667
H           -3.80880666283205        3.07006039654838       -0.24832500593125
H           -3.19083949959289        1.86954721776956        0.45745747550529
O            0.92972328650650        2.93049299069321       -5.67508025230599
H            0.66785306147508        3.68258296583367       -5.12947173517221
H            0.49631990852311        2.19177929736849       -5.23083772437827
O            0.03137928459191        4.55919997645608       -2.29931648954366
H           -0.32426825941527        4.00180953907406       -3.00792987729366
H           -0.49547655400674        5.35047531154585       -2.28910673624646
34
 energy: -56.619978826345 gnorm: 0.061173511427 xtb: 6.7.1 (edcfbbe)
H            1.46925423806713       -0.27148175457381       -0.53673418725980
C            0.41811901824374       -0.54265898056976       -0.61578689174333
H            0.11676780111823        0.55483774794270       -2.34500221893555
H            0.31795279978826       -1.49750483465760       -1.12710396052892
N           -0.27699962676287        0.50534610500452       -1.40453206505780
H            0.28804421208126       -1.49693726689895        1.31040453470978
C           -0.16455659333778       -0.66048884609960        0.78147701575512
O            0.69293090782060        1.54698343622330        1.13716571271038
C            0.10588410452342        0.59987983968285        1.66897137799731
H           -0.17689634607105        1.41679220308280       -0.92706680719246
O           -0.39225511469596        0.56139808620586        2.82143721372439
H           -1.28309148158142        0.32050663785042       -1.45967725459642
H           -1.24062643422335       -0.83119438645670        0.76376466185528
O            1.98001226943893        2.96355865609939       -3.22125558998986
H            2.02408233463092        3.57086674456056       -2.45295937121129
H            1.33614306966011        2.29601422414837       -2.92217026786875
O           -1.51928906737776        3.63137684005155       -0.35752922925704
H           -1.95966850892143        4.21341229410220       -1.00374866183162
H           -0.99176355614485        4.22171529434240        0.20436814274863
O           -3.00359713788003        2.63403658881158       -2.68040113055276
H           -3.51895370801549        3.43626012157562       -2.69615725161922
H           -3.58520181255239        1.91861483290295       -2.95357407990334
O           -1.33598722895129        2.68720966923912       -4.51644307726451
H           -1.80675052578142        2.74886147295223       -5.35952294633691
H           -1.55390854026531        1.80146587155150       -4.16731604193518
O           -3.72466684990693        2.05876213316710       -0.28962048351713
H           -3.82054056888853        3.02661557428634       -0.21846559776110
H           -3.18567177200022        1.84756523583033        0.49973767711081
O            0.95338056060009        2.93358420014048       -5.76562358320508
H            0.76530818113277        3.68651982014392       -5.17709804603050
H            0.54473398505725        2.20225479698714       -5.27999981060613
O            0.02609452908940        4.59664905577592       -2.34256526558608
H           -0.38318896240348        4.00551768866783       -3.00226608685364
H           -0.49606917549021        5.39420189792740       -2.32369942996712
34
 energy: -56.628748112459 gnorm: 0.051707403394 xtb: 6.7.1 (edcfbbe)
H            1.45520402444612       -0.26024230380905       -0.52900130278311
C            0.40573052313708       -0.54379954302996       -0.61583468039915
H            0.09972260227791        0.59413449006779       -2.32844530659800
H            0.31688836555265       -1.49069366413366       -1.14845930593476
N           -0.28822232760477        0.52416464527578       -1.38469077877928
H            0.28470483997175       -1.49836601229663        1.31571544051504
C           -0.17768624129537       -0.67117062196672        0.78090374587025
O            0.68712614431121        1.55263425511225        1.08761949469981
C            0.08761836009499        0.62118955824274        1.65102894253654
H           -0.17052766580884        1.41836040980779       -0.87365804729288
O           -0.36282862659007        0.56121422715679        2.81949298942346
H           -1.29936370220397        0.35718528485313       -1.43325598111030
H           -1.25288116909093       -0.83810938339399        0.77064666199600
O            1.99341084025738        2.96278915096982       -3.18645535319832
H            2.08454238535236        3.57379886807982       -2.46101262904960
H            1.38094405337768        2.29798854076279       -2.88705975973278
O           -1.50643036972737        3.61302263602416       -0.28096854416872
H           -1.91342860954244        4.16811274211853       -0.97282401022234
H           -0.95906499343960        4.21426188050067        0.24420142391706
O           -3.05530901777434        2.62804205552311       -2.71017260136959
H           -3.57277240672043        3.43649903584735       -2.69468834205574
H           -3.68194080025521        1.90313597137964       -2.89805509041807
O           -1.28480632462885        2.66916806456934       -4.56459185921943
H           -1.78545301048876        2.75625341757579       -5.39028606347738
H           -1.55820143850831        1.80712903764403       -4.19396560042284
O           -3.75382923346853        2.01604167565912       -0.21028982099953
H           -3.86668836494909        2.96140145737708       -0.16961905725488
H           -3.24026004691706        1.78993290020012        0.55041298916472
O            1.00720887407006        2.93716116657723       -5.85082337831107
H            0.86180012525597        3.69108141720224       -5.25618461633613
H            0.60455614352409        2.21127752233372       -5.35467184640281
O            0.00926071010705        4.63822037307011       -2.39263346661485
H           -0.43008053517052        4.02771839399045       -3.01409556726849
H           -0.49991810755125        5.45100335070848       -2.37727167870259
34
 energy: -56.633254021854 gnorm: 0.071228332399 xtb: 6.7.1 (edcfbbe)
H            1.44283951351130       -0.25806368665716       -0.52737012013096
C            0.39248607634816       -0.54366307228475       -0.62002652540846
H            0.07817620176892        0.63550743330812       -2.31024244004473
H            0.30819027394192       -1.48302677234349       -1.17111263465937
N           -0.30097174703731        0.54418667089379       -1.36190711626592
H            0.28290961054043       -1.49632325729074        1.31799924929645
C           -0.18702882349623       -0.67504310702358        0.77836263972152
O            0.67438739508381        1.56295886923402        1.05555025470889
C            0.05710903712185        0.64004757923591        1.63370954188999
H           -0.15820047825661        1.42039828515668       -0.81758187152580
O           -0.32958460871534        0.56348867018608        2.81905139061964
H           -1.31684495858358        0.39296539966411       -1.40380102322941
H           -1.26129114472783       -0.84330449965982        0.77205384051944
O            2.07284617429959        2.91951624587348       -3.15800015217386
H            2.09601193236363        3.61609946035359       -2.47405505356757
H            1.37468415381688        2.31954077055746       -2.83916459159580
O           -1.49382274516794        3.58556559945504       -0.23310917088379
H           -1.87949727363105        4.11852215697384       -0.93534818944465
H           -0.94758226891364        4.16442756318063        0.28378510150452
O           -3.12834503672744        2.61029917985142       -2.71144475735647
H           -3.63831792993702        3.42757265483164       -2.68619467128295
H           -3.76782972461498        1.89797731175545       -2.86793055861945
O           -1.29180065131195        2.65773458824765       -4.57749351738944
H           -1.73740424035166        2.77169023665137       -5.40609939967578
H           -1.52930019603357        1.82210995687382       -4.21807750085004
O           -3.85815190840362        1.93834768968378       -0.13043323349891
H           -3.86202864713541        2.92427596523139       -0.14743048564940
H           -3.20692460497476        1.77379189900141        0.59686696551654
O            1.08655550153895        2.94580239627649       -5.91296333335005
H            0.95673150095340        3.70236663148964       -5.34320687905720
H            0.66154385276347        2.22678994342426       -5.44108603074037
O           -0.02336158696841        4.64647659600323       -2.43636537307585
H           -0.45833013024652        4.05889789831900       -3.05091073626040
H           -0.48882751881682        5.49260774354592       -2.43501661804000
34
 energy: -56.639456878867 gnorm: 0.053917242749 xtb: 6.7.1 (edcfbbe)
H            1.43740068182788       -0.26560336964289       -0.53586428984617
C            0.38552647642128       -0.53896989130451       -0.62609742143507
H            0.06143919922208        0.66847914547267       -2.29472796780526
H            0.29028918697902       -1.47135533572329       -1.18390783096580
N           -0.30749098214895        0.56308581061060       -1.34458590323663
H            0.28109531144134       -1.49646595708585        1.31042576307722
C           -0.18422094036269       -0.67186788594423        0.77409852047733
O            0.62780025521355        1.58139010109018        1.04473703960373
C            0.07908520849374        0.62892916508269        1.63953477210376
H           -0.14418741382306        1.42609329630163       -0.78010010989812
O           -0.32991370517217        0.57490908635395        2.81108644443188
H           -1.32460916902179        0.42211753355941       -1.38015991736239
H           -1.25996974495582       -0.83751407483821        0.77251227764090
O            2.10071054756477        2.90922960615246       -3.14937294488552
H            2.10792795974925        3.64668407856282       -2.49207808980016
H            1.37660380932644        2.33707243081526       -2.81254294535574
O           -1.49286661847873        3.55501099663442       -0.19005643682466
H           -1.83538600257267        4.08044896119241       -0.93066908732801
H           -0.91016957132385        4.14326760797555        0.29308470315907
O           -3.16144837762667        2.60432324839589       -2.72679308924249
H           -3.67521878897368        3.41528289700660       -2.68880335399779
H           -3.79915298707551        1.89992917177258       -2.86040329997591
O           -1.23253971693747        2.64790262512635       -4.58172623893772
H           -1.71982378534672        2.79406348230202       -5.39415862323668
H           -1.60006032404484        1.82314475940244       -4.19777701479317
O           -3.84546335871592        1.91814135769817       -0.09210811091512
H           -3.90318272504666        2.87301984943147       -0.11718163626307
H           -3.23995810532984        1.72379843911574        0.62349049427352
O            1.12304290906981        2.94502884027849       -5.97027746446534
H            1.05318550141054        3.70826656350764       -5.37641668282696
H            0.69336382110290        2.23615215795070       -5.48216465017686
O           -0.05324004795643        4.65369961673875       -2.46261301544278
H           -0.49685896447084        4.06516737095743       -3.06777385494334
H           -0.48268453843770        5.51767931505030       -2.48960303480615
34
 energy: -56.634213360551 gnorm: 0.127579142123 xtb: 6.7.1 (edcfbbe)
H            1.43344104638413       -0.27508934649340       -0.55208126242387
C            0.37797043035352       -0.52784859722720       -0.63375294694861
H            0.04509001253688        0.70954862297377       -2.27657852966518
H            0.26356499999113       -1.45297099744179       -1.19439908549647
N           -0.31236078743441        0.58747586961044       -1.32651976679595
H            0.27980239051507       -1.49386632832404        1.30046772566543
C           -0.18046627786041       -0.66484398504387        0.76850889137397
O            0.57385616711167        1.59962456657940        1.04124681001656
C            0.10511224123026        0.61193207716361        1.64534217059770
H           -0.12759431496383        1.43413502931741       -0.74078532067328
O           -0.32681921544924        0.58771139582798        2.80412703724083
H           -1.32851544472174        0.45486035502290       -1.35557496547113
H           -1.25794030191510       -0.83264685094558        0.77043646149895
O            2.00239080830928        2.99046233641154       -3.13233684701460
H            2.18705907372502        3.61805170119434       -2.49851037630650
H            1.45079429466560        2.33436013102489       -2.82302057708057
O           -1.50915351988110        3.50880477404595       -0.14669322766298
H           -1.78270245531712        4.03426550501145       -0.94064213692996
H           -0.85999883995392        4.10917118658319        0.28907568360129
O           -3.20812285815542        2.58683560186476       -2.73527511304331
H           -3.71529582433845        3.39594715811799       -2.69214710977369
H           -3.85378181596560        1.88692586139576       -2.82490296355487
O           -1.18915876096468        2.63696879184522       -4.57904118484124
H           -1.72621144972792        2.82125924891512       -5.37636457484221
H           -1.61408034455406        1.82698183258389       -4.19702240493764
O           -3.88802644800963        1.86694263197257       -0.04364486618134
H           -3.88782592382164        2.84411804651208       -0.10608473594049
H           -3.21858138195124        1.70264257201790        0.65475296032399
O            1.14562114303829        2.94714582692067       -6.03756905064343
H            1.14047663943838        3.70811821809679       -5.40728814905716
H            0.73464821891484        2.23911145804480       -5.51192357823219
O           -0.07743002731037        4.68807549339505       -2.48430743428986
H           -0.56276701398011        4.04751761032705       -3.05229864190573
H           -0.49396945993715        5.54881320269886       -2.56418589060602
34
 energy: -56.643970481758 gnorm: 0.045642318865 xtb: 6.7.1 (edcfbbe)
H            1.43064244732477       -0.27584513850410       -0.55932800618537
C            0.37182815683635       -0.52221513266313       -0.63435307301289
H            0.03763102516749        0.72868607034373       -2.26994267155497
H            0.24954505115093       -1.44596365144310       -1.19805917107202
N           -0.31560956978482        0.59910433465692       -1.31853027278185
H            0.28237895748393       -1.49117167666546        1.30147526926526
C           -0.18378299182100       -0.66333337727112        0.77038044700606
O            0.57452976275420        1.60075701622359        1.04001560978864
C            0.07711127512960        0.62242329908338        1.63548578238551
H           -0.12568800813748        1.44020259810719       -0.72464329875214
O           -0.30846922050155        0.58192649891926        2.81368536923353
H           -1.33238373838791        0.46924214811220       -1.34469664540694
H           -1.26024806403170       -0.83701261407548        0.77104029800603
O            2.05656848285693        2.95192295253838       -3.14121889813849
H            2.18849260256269        3.66077551243059       -2.52193249790773
H            1.41995609610558        2.34718587439276       -2.78206880530606
O           -1.47408146398301        3.50365775838980       -0.16477931468917
H           -1.78208539061790        4.01498193925522       -0.91886171983471
H           -0.87145887269891        4.06923126649568        0.31372858482903
O           -3.22222831030282        2.58413705064880       -2.74297050175413
H           -3.73000787139507        3.39578565475299       -2.69408936695943
H           -3.88498587510475        1.87348884232705       -2.79538262604241
O           -1.20663830484363        2.64429989251681       -4.57542375430502
H           -1.70801386435593        2.82737885149552       -5.38114664807840
H           -1.57126923543414        1.84265066937935       -4.20826761458052
O           -3.86125865567888        1.86523629304453       -0.03195432957902
H           -3.90319065875340        2.82115088905103       -0.09119341492542
H           -3.24850331574496        1.67496671084027        0.66574206201658
O            1.17537836642598        2.95401707194331       -6.04016938855976
H            1.14666847472660        3.71168720823322       -5.43901114259768
H            0.74770773021084        2.24753149518307       -5.53424824811782
O           -0.08040479262861        4.68907554875462       -2.50049471944688
H           -0.57224658031432        4.04482915873741       -3.06417989556245
H           -0.49685864421420        5.54974998476518       -2.59360039737886
34
 energy: -56.633744097410 gnorm: 0.153455972524 xtb: 6.7.1 (edcfbbe)
H            1.42189640822756       -0.27466681476583       -0.56789352065577
C            0.35958147637387       -0.51792609569823       -0.63619985659319
H            0.02665944502828        0.75981846575484       -2.26006241083615
H            0.23022093760284       -1.43849776151474       -1.20834308872930
N           -0.32194332287980        0.61592642976747       -1.30756702222700
H            0.28777092939220       -1.48439201927150        1.30478447182951
C           -0.19343106224731       -0.66374545578215        0.77217601827622
O            0.58890054162713        1.59283200454190        1.03090280216618
C            0.00147505663692        0.65734943331209        1.60732493397616
H           -0.12528146761884        1.44592379532687       -0.69463795816405
O           -0.25796587908490        0.55878213250570        2.83700177836533
H           -1.34050423154624        0.49365928054957       -1.32915990237915
H           -1.26550108912190       -0.85012190203603        0.77222120846091
O            2.15170801051866        2.89161479545985       -3.14921691374469
H            2.17522481061812        3.71685074164897       -2.55219481116659
H            1.36330447720487        2.38423042032192       -2.72757060969230
O           -1.50570975304780        3.46669710669964       -0.11655250061772
H           -1.72073933538505        3.98678814705529       -0.95235215562478
H           -0.84742922519750        4.04528995974730        0.31318046712129
O           -3.24239430365110        2.57505627971773       -2.75207545926763
H           -3.74362040319628        3.39584354512145       -2.69711979376455
H           -3.90441472748706        1.87093709029630       -2.79496042929539
O           -1.15186768609201        2.64290781272260       -4.57358689550639
H           -1.65993953119033        2.84297637859699       -5.36523623155970
H           -1.65996283295259        1.85893183152579       -4.16621441350151
O           -3.90633370301630        1.82761439429980       -0.00268324352372
H           -3.90353380758628        2.79367490650723       -0.08219398549278
H           -3.21746741539974        1.66800175693576        0.67423985390800
O            1.20757704428636        2.96133013464114       -6.05451306230038
H            1.19275921713438        3.71600604837471       -5.46762566426530
H            0.75529228067828        2.26726115720463       -5.56981361910679
O           -0.16525763248665        4.62980109356228       -2.48153616372927
H           -0.51441283350459        4.09968774531757       -3.13480826385985
H           -0.49563539263639        5.54409816155246       -2.62670655849909
34
 energy: -56.648308448861 gnorm: 0.050765181334 xtb: 6.7.1 (edcfbbe)
H            1.41840767562221       -0.27898967258992       -0.57226057035257
C            0.35467468260306       -0.51303890549996       -0.63782037861108
H            0.02225135313897        0.77304661286211       -2.25296481382636
H            0.21752991563055       -1.43137554797116       -1.20953062844377
N           -0.32454853868468        0.62452047009578       -1.30173124201696
H            0.28460997972551       -1.48595984995351        1.29954092712956
C           -0.19239473766781       -0.66125444763699        0.77226570806577
O            0.55140304349278        1.60954134863179        1.02531117908599
C            0.05638582437126        0.62726090471375        1.62803525083949
H           -0.12326861207885        1.45028589807908       -0.68525076646319
O           -0.27485709406092        0.57363726139151        2.82580179314784
H           -1.34217702909144        0.50347593968366       -1.32363417937929
H           -1.26710289660041       -0.84656504975402        0.77517605553354
O            2.09641867650182        2.93974182547482       -3.14068098847530
H            2.19662915622450        3.69657409588068       -2.54439441524860
H            1.40837304052021        2.38167703852034       -2.74232901869286
O           -1.47294633041158        3.46597530523220       -0.14609764913503
H           -1.73370239414437        3.97157501919119       -0.92606841596569
H           -0.85290937264598        4.01289310730488        0.32572119426203
O           -3.26023691975896        2.56677931121629       -2.74575207286173
H           -3.75497135384756        3.38761648317049       -2.69986311476589
H           -3.91209930457297        1.86867392194216       -2.79260630009545
O           -1.17891244982345        2.64622327571695       -4.56375920203852
H           -1.65195532997214        2.84330485342516       -5.36805466383712
H           -1.61477863158093        1.86713114384964       -4.17466337177770
O           -3.89019434767162        1.82469086241381        0.00681617023627
H           -3.90875882329930        2.78194880242927       -0.07447451263630
H           -3.22821051753666        1.65424488756365        0.68537317472118
O            1.20697463627253        2.95818582534229       -6.07717232354054
H            1.22277059980099        3.71578268897537       -5.46727517076105
H            0.76165407842409        2.26531394038594       -5.57274147405194
O           -0.15366837276742        4.65672786233046       -2.49715076435375
H           -0.53017958945789        4.08657383643654       -3.14207020505558
H           -0.51118501665265        5.54432195114504       -2.64468821063478
34