34
 energy: -56.585727261300 gnorm: 0.179512627991 xtb: 6.7.1 (edcfbbe)
C            0.00071700000000       -0.52255800000000        0.67804400000000
C            0.00015500000000        0.09392700000000        2.05036800000000
O           -0.00019500000000       -0.63013100000000        3.03226200000000
O           -0.00079700000000        1.43155900000000        2.21643300000000
C            0.00098900000000        0.52531100000000       -0.44326000000000
N           -0.00030100000000       -0.11659100000000       -1.75665200000000
H            0.90259300000000       -1.16292800000000        0.57888800000000
H           -0.90264000000000       -1.16023800000000        0.57901700000000
H           -0.90200200000000        1.16741300000000       -0.35103700000000
H            0.90366600000000        1.16894900000000       -0.35172000000000
H           -0.85706900000000       -0.70553200000000       -1.86752300000000
H            0.85322800000000       -0.71006900000000       -1.86779500000000
H            0.00165600000000        0.62088700000000       -2.49702600000000
O           -1.83887300000000        3.63368600000000       -4.74620300000000
H           -1.21032100000000        3.22060500000000       -5.39032800000000
H           -2.38304900000000        2.87739200000000       -4.41078600000000
O            1.65191900000000        3.50781600000000       -4.65112900000000
H            1.61057900000000        2.57696100000000       -4.31585100000000
H            1.68783300000000        4.06478000000000       -3.83313500000000
O            0.92041300000000       -3.99586900000000       -2.98847800000000
H            1.39157400000000       -3.13018700000000       -2.89248600000000
H            0.39671000000000       -3.90202600000000       -3.82366800000000
O            0.34091500000000        4.31270200000000       -0.35488500000000
H            0.27657200000000        3.33447500000000       -0.49468300000000
H           -0.40307500000000        4.52443100000000        0.26338900000000
O            2.89925000000000       -3.57694600000000       -0.02023800000000
H            2.35906400000000       -2.86526400000000       -0.44722600000000
H            2.26994100000000       -4.03054900000000        0.59525100000000
O           -0.32747700000000       -4.15181500000000        0.49252700000000
H            0.29621800000000       -4.25578900000000       -0.26957800000000
H           -0.87857700000000       -3.36369700000000        0.25636600000000
O           -2.50618200000000       -3.95277800000000       -2.62158400000000
H           -1.63563900000000       -4.21642800000000       -3.01306200000000
H           -2.39357400000000       -2.99729600000000       -2.38709100000000
34
 energy: -56.608471424464 gnorm: 0.093566216828 xtb: 6.7.1 (edcfbbe)
C            0.00157683528743       -0.50875719619415        0.66648889426531
C            0.00153424625066        0.10246537316334        2.05973942948276
O           -0.00108301592948       -0.64196063475592        3.04848858113164
O           -0.00565374639132        1.39141568524847        2.15914753675116
C            0.00108464325384        0.53457210656989       -0.44559110704205
N            0.00020069634353       -0.11405033772140       -1.76859733793818
H            0.88991640796814       -1.15142409603041        0.60052505368594
H           -0.88971467570667       -1.14702715604168        0.60054443882421
H           -0.88684737591932        1.16704902824013       -0.33632072493232
H            0.88937048707550        1.16687639859585       -0.33548515023420
H           -0.84264493762323       -0.69965032575509       -1.87539136697465
H            0.84108431811166       -0.70236871929420       -1.87525987097665
H            0.00083154554552        0.60439659529229       -2.50749083401733
O           -1.82715059458604        3.62131977472743       -4.72777920259604
H           -1.22783175066399        3.23596731805476       -5.38987573243087
H           -2.39364023301561        2.88734766202478       -4.43251696186185
O            1.62659230724348        3.50237660007821       -4.64154408956710
H            1.64276870877456        2.58791862818283       -4.31033546250072
H            1.69236705646061        4.06030554884330       -3.84871484002610
O            0.83889876604048       -3.94520304446800       -2.94753410408449
H            1.42935318331174       -3.15753478441446       -2.93172915522482
H            0.44533797393797       -3.91066623224330       -3.84833346694188
O            0.33274403246274        4.30697674710838       -0.35163145595142
H            0.26826561521941        3.34381903408426       -0.45504063623398
H           -0.38389963291125        4.53565892328430        0.26171036559643
O            2.88295070939161       -3.58752601838588       -0.03104886231742
H            2.35831725025531       -2.87076525049762       -0.42460241512512
H            2.28431444438288       -4.02072691287718        0.60172453781837
O           -0.28446576859453       -4.12994141258757        0.49384988414242
H            0.26582405174745       -4.27137955038844       -0.30174550316200
H           -0.88036057712489       -3.39633419753130        0.25969638945976
O           -2.50305126664127       -3.94702067760712       -2.62954261055535
H           -1.64087342187045       -4.22375670865168       -2.98539873742259
H           -2.40189528208638       -3.00816916805326       -2.40328448304109
34
 energy: -56.615206660203 gnorm: 0.042717712740 xtb: 6.7.1 (edcfbbe)
C           -0.00029556141373       -0.50804865547748        0.65293103565801
C           -0.00728231029798        0.12816222518161        2.06597585464905
O            0.00060947578515       -0.65294489539469        3.04391072693709
O           -0.00441429343891        1.36051211142936        2.11570360104326
C            0.00139314160617        0.53969336026290       -0.44157866432826
N            0.00110966016228       -0.10908669432756       -1.77725210161475
H            0.88065617875665       -1.14745422792669        0.61714364818673
H           -0.88428098474624       -1.14259808370602        0.61439836813646
H           -0.87814001301815        1.16329627691482       -0.32637633732132
H            0.88215510725834        1.16112150293374       -0.32338147122800
H           -0.83066933486447       -0.69297212130195       -1.87770989337822
H            0.83176958792481       -0.69477142983388       -1.87714002465062
H           -0.00015569035876        0.59566378854418       -2.51493288119907
O           -1.82387820374373        3.61018774778372       -4.71054583171301
H           -1.24095489411244        3.26048548703786       -5.38720299406457
H           -2.41303564910874        2.89651750565304       -4.45375583296708
O            1.60921144373186        3.49403085819501       -4.63229389911734
H            1.69284284414715        2.59410815675402       -4.30278103461563
H            1.68748918982808        4.06579762487624       -3.86855521642789
O            0.85539107057807       -3.92786401505882       -2.98737910282126
H            1.41806741770178       -3.16493334503713       -2.93354388754467
H            0.44179001540405       -3.89338302744330       -3.84008791700794
O            0.32326227952532        4.30232754791705       -0.34527611892763
H            0.26274571541578        3.34665876598317       -0.38997263312026
H           -0.36345881119956        4.56636529660439        0.26672996346535
O            2.86423529148869       -3.59982541153175       -0.04068932430811
H            2.35275356561602       -2.87051899274869       -0.39334388622049
H            2.30051058129597       -4.02107594860611        0.61189955801381
O           -0.23292892072062       -4.11893426964568        0.47781647560468
H            0.23766787390162       -4.28889186401165       -0.35598124304225
H           -0.88286100713877       -3.43892959569306        0.26811767714738
O           -2.49892801225896       -3.94579144339403       -2.63902414238080
H           -1.63415742478444       -4.23627391487229       -2.94196338811040
H           -2.42399832892149       -3.01642732006067       -2.42673808273313
34
 energy: -56.613678566581 gnorm: 0.118219016788 xtb: 6.7.1 (edcfbbe)
C           -0.00042623634914       -0.52137306727643        0.64766065959772
C           -0.00216950151751        0.15121283616047        2.06664473892837
O           -0.00399892511578       -0.64508921263612        3.03580446202389
O           -0.01484300343645        1.37255823051115        2.09000228616380
C            0.00256550889241        0.53268873091029       -0.43756673874312
N            0.00198218540088       -0.10640257705538       -1.78312805682806
H            0.88103505393314       -1.15645508619706        0.62450468640154
H           -0.88744758439013       -1.14890039597794        0.62274768077936
H           -0.87731767478258        1.15601098978475       -0.32308375367705
H            0.88494557464364        1.15175574607755       -0.31973485375061
H           -0.82822622260814       -0.69146124030980       -1.87968209939145
H            0.83183847212872       -0.69213017317417       -1.88012342629358
H           -0.00127836235415        0.59846007507495       -2.52027144377453
O           -1.80351711200718        3.60306209293222       -4.66401569693982
H           -1.26003161389508        3.29350323190590       -5.39996672803622
H           -2.45298183504515        2.90157707877129       -4.49019813241102
O            1.56058782678560        3.48472065553954       -4.62929622601008
H            1.76599583396955        2.58988293315892       -4.28893296393879
H            1.69030462125671        4.07970010981092       -3.88622837200791
O            0.68687698421768       -3.83512899325922       -2.89913945076542
H            1.51357593125189       -3.20744303713480       -2.99322661368829
H            0.51628665966355       -3.91509620503511       -3.91088400104152
O            0.31660518896287        4.29758376349366       -0.34501223551685
H            0.25692698629797        3.33330573240477       -0.30449631830797
H           -0.34307996353782        4.61728752185118        0.27706503749878
O            2.84562879747788       -3.62992496296507       -0.07170060922043
H            2.34525747496015       -2.85223608649711       -0.35104906973987
H            2.32000932138969       -4.02465343386710        0.63466235475481
O           -0.16841808112488       -4.10601108220893        0.46936573854753
H            0.21541669946659       -4.30842294752998       -0.41646624156365
H           -0.89771741100515       -3.48772762471951        0.27363219007503
O           -2.50205138626675       -3.94994811105797       -2.65224532655469
H           -1.61801470528667       -4.25501245899285       -2.89316913570145
H           -2.45009850197525       -3.01569003249417       -2.45535134086986
34
 energy: -56.621149811395 gnorm: 0.052228914461 xtb: 6.7.1 (edcfbbe)
C           -0.00032899908518       -0.52792976349993        0.65043941020946
C            0.00350375570772        0.15019351816868        2.06507628988764
O           -0.00709673870272       -0.63199020282411        3.03983467893290
O           -0.02297696244928        1.39641512311112        2.08236153333836
C            0.00275150263461        0.52482000998257       -0.43970326094909
N            0.00192775836041       -0.10768998303266       -1.78605739177809
H            0.88299193140660       -1.16322623312967        0.62573140882451
H           -0.89088589482520       -1.15378617833097        0.62480706509048
H           -0.87879691913012        1.15250586288309       -0.32396239603817
H            0.88764172742064        1.14718674368826       -0.32084244670173
H           -0.83117680641267       -0.69443197118929       -1.88360977736417
H            0.83516545747333       -0.69424574003330       -1.88490664915242
H           -0.00210289738978        0.60257533594707       -2.52297153448386
O           -1.79767592239904        3.60353778405357       -4.64356541882351
H           -1.26777252681371        3.30695626240029       -5.40423301332132
H           -2.46831227408108        2.90192863656489       -4.50398902084142
O            1.55299867321933        3.47936185832589       -4.63069516065359
H            1.78643023549851        2.58915164881963       -4.28183990447055
H            1.69348038737906        4.08623355105278       -3.89179369138091
O            0.79274121478085       -3.87902467997396       -2.98045578530977
H            1.45265465240526       -3.17830351160917       -2.95464030022035
H            0.46505843510611       -3.89070374980858       -3.88420075645777
O            0.31679516539595        4.29553632502216       -0.34427262927013
H            0.25351513441017        3.32508747627478       -0.26404249505303
H           -0.33579399286423        4.64192468340962        0.28192439372577
O            2.83979767847668       -3.64357246378113       -0.08676637021035
H            2.34101738782191       -2.84191568533183       -0.33215995439576
H            2.32685116411437       -4.02835510206306        0.64381993365037
O           -0.16322511175730       -4.11913552742760        0.45089566002050
H            0.22184332801929       -4.30607915983462       -0.43025532917156
H           -0.89549740302810       -3.50029112909437        0.27399090491187
O           -2.50439889154871       -3.95605364302953       -2.65780118221153
H           -1.60485301486019       -4.25890553796806       -2.86978228536898
H           -2.46205023428157       -3.01357155774307       -2.46921352496576
34
 energy: -56.619635108061 gnorm: 0.066975625822 xtb: 6.7.1 (edcfbbe)
C           -0.00592026930917       -0.52839439453617        0.65256370150752
C           -0.01990786353358        0.16233034076347        2.06652251066595
O            0.00014824218914       -0.61295673354201        3.04298189698627
O           -0.01414851868460        1.41103654347693        2.07395582160242
C            0.00148841195855        0.51728168374418       -0.44312443663025
N            0.00070376643126       -0.11146820453245       -1.79087472179572
H            0.87816423720249       -1.16389291137960        0.63716443769392
H           -0.89506833000278       -1.15518620896873        0.62868776922362
H           -0.87948704614074        1.14728603472561       -0.32841741633794
H            0.88739608825599        1.13975134057453       -0.32379784804233
H           -0.83303999545617       -0.69883587249362       -1.88820903446999
H            0.83497886372660       -0.69794393442137       -1.89117578624497
H           -0.00548818005048        0.60299087273771       -2.52513686648576
O           -1.87050359582369        3.61199368149335       -4.71109108448001
H           -1.24930033669569        3.31215204741303       -5.36706552540222
H           -2.44200614736267        2.90203316944588       -4.47008475711390
O            1.67016118293341        3.46791374143123       -4.63277309841501
H            1.74543642457877        2.60242936282468       -4.28838069423968
H            1.67531426654400        4.09171363227142       -3.90438153087609
O            0.76461397468529       -3.86250874068076       -2.99052042940484
H            1.45096117517322       -3.19041327931637       -2.95169990734286
H            0.46634441637521       -3.88248867598303       -3.90398347657918
O            0.31301553899631        4.29809073694003       -0.32897299655432
H            0.25995917436903        3.33314684825841       -0.21019000023323
H           -0.33129908150461        4.66234846933914        0.29063010663219
O            2.84589192020855       -3.60502132803005       -0.03265857103150
H            2.33268921047731       -2.85855142827102       -0.32768894709131
H            2.31886284725131       -4.06065156240550        0.61981277068708
O           -0.20364542725630       -4.17600399295059        0.38351230698151
H            0.25885789542987       -4.29493200963812       -0.42571816772186
H           -0.86211914803002       -3.50402547260690        0.27030688726167
O           -2.49113139396007       -3.97558938055579       -2.64080265738054
H           -1.58996942433028       -4.25060255560116       -2.84832931821530
H           -2.48773187864384       -3.01882881952699       -2.49393993715559
34
 energy: -56.624990790432 gnorm: 0.042133967627 xtb: 6.7.1 (edcfbbe)
C           -0.00733273407100       -0.52782140094865        0.65400153686519
C           -0.01864133390904        0.17436749246319        2.06724057210802
O           -0.00334307017462       -0.59735985361877        3.04441737506042
O           -0.02272914649618        1.41789747475412        2.06686978737734
C            0.00182137203097        0.51181438406319       -0.44564916041484
N           -0.00025378405850       -0.11684792722473       -1.79375608731905
H            0.87530264891198       -1.16475099628171        0.64481734948379
H           -0.89735113822658       -1.15331648837685        0.63585524411107
H           -0.87781880828089        1.14356577884830       -0.33184884610845
H            0.88856040104940        1.13304380960403       -0.32804439770019
H           -0.83374884727900       -0.70459091360270       -1.89035296596395
H            0.83412669447437       -0.70271017612028       -1.89583206277792
H           -0.00821365563347        0.59911430042300       -2.52635924712927
O           -1.87076639765219        3.61183303972065       -4.68991442888183
H           -1.25651501438040        3.34060784675902       -5.36943240798191
H           -2.47094159369518        2.89814213776478       -4.50330870741307
O            1.64346961958499        3.46500069030299       -4.64039824993914
H            1.81515473658158        2.60125965094961       -4.27469456384274
H            1.67528292050378        4.10815358196809       -3.92861689950013
O            0.72900611204710       -3.84197487365330       -2.99163677576002
H            1.45859351264612       -3.20376317275869       -2.95494584076136
H            0.47260621909530       -3.87665174001688       -3.92437858131508
O            0.30799056412653        4.29943251740385       -0.31654893063612
H            0.26768935292030        3.33914445594211       -0.15575169857634
H           -0.32510597777531        4.68179558159745        0.30060787523125
O            2.83466534136972       -3.61752893042320       -0.04739430971669
H            2.32024464479843       -2.84097370566800       -0.28438446871269
H            2.33284132225506       -4.07947018989016        0.62468768709150
O           -0.11560810179789       -4.15150271330184        0.39397807644022
H            0.22185653049103       -4.31306900944078       -0.51434305920519
H           -0.88408881106572       -3.55677721268472        0.28913054770652
O           -2.48676248919341       -3.98559592280332       -2.64437415295189
H           -1.57071824509996       -4.24883604251199       -2.81317666219838
H           -2.50505184409508       -3.02742847323846       -2.50934254667158
34
 energy: -56.616120742170 gnorm: 0.135681151725 xtb: 6.7.1 (edcfbbe)
C           -0.00784740478760       -0.52595556827733        0.65700431988019
C           -0.00100796774669        0.19277646467313        2.06867755406402
O           -0.01492513711963       -0.57276515501129        3.04814474210218
O           -0.04370970281452        1.42652705932097        2.05529990137547
C            0.00336779427528        0.50457163296868       -0.44844794973442
N           -0.00190701033679       -0.12761539152622       -1.79522120870306
H            0.86983845648053       -1.16758984621091        0.65614763058640
H           -0.90125862697544       -1.14685947941328        0.64980464707194
H           -0.87305939234736        1.14029593422682       -0.33684376079718
H            0.89162653946125        1.12305166648540       -0.33540201734298
H           -0.83434817012294       -0.71619204820021       -1.89023016951916
H            0.83212589554274       -0.71233223800066       -1.90097671496505
H           -0.01315319778464        0.58924949853457       -2.52585089277424
O           -1.81210204494395        3.60244296718022       -4.58537873347283
H           -1.28863588035770        3.40356807639567       -5.40437691784380
H           -2.55760417634118        2.88992629658053       -4.61121107199981
O            1.51245507112838        3.46720207651280       -4.65720500183677
H            1.98828623042948        2.59893699341814       -4.24985585006254
H            1.69424321924913        4.13601097314624       -3.97223248137750
O            0.65427659135492       -3.79786819784919       -2.97507488749716
H            1.47448310802364       -3.23218855053537       -2.96368778278919
H            0.49083287359470       -3.88340465693266       -3.95105753449180
O            0.30008912877459        4.29518817485328       -0.29672602656768
H            0.27692153916786        3.35183171599905       -0.07660498067146
H           -0.31262238806458        4.70948574856841        0.31554985954109
O            2.81152796209601       -3.65564623821056       -0.10028730777930
H            2.30101232663942       -2.80240265559631       -0.20199165975104
H            2.36445792516606       -4.09842308065275        0.64507929544343
O           -0.11645637971435       -4.18191096279689        0.34341588272546
H            0.23685238199992       -4.33090871266222       -0.53997701270979
H           -0.85543096938972       -3.58002335964203        0.26993192502425
O           -2.47650274574543       -4.00002269852600       -2.64569297029202
H           -1.54667787578825       -4.23803883613262       -2.77139933308495
H           -2.52092697299989       -3.04671460268807       -2.52620249175428
34
 energy: -56.629321836731 gnorm: 0.042938216573 xtb: 6.7.1 (edcfbbe)
C           -0.00947184233138       -0.52576905677074        0.65768536057789
C           -0.00936219235871        0.19423300822898        2.06693926140382
O           -0.01394235842893       -0.56660746703580        3.05003809918645
O           -0.04405269822346        1.43514507070436        2.05054088363588
C            0.00274070505850        0.50338333777498       -0.45038016742129
N           -0.00305900405243       -0.12995105852292       -1.79592749785074
H            0.86885973249320       -1.16762223450440        0.65746321027465
H           -0.90324012879206       -1.14656601777102        0.64955552706572
H           -0.87348118896165        1.14075227402331       -0.34006047116747
H            0.89166208674711        1.12228042290348       -0.33840875577221
H           -0.83591812920751       -0.71893980457060       -1.89049965659147
H            0.83132293902261       -0.71502764938079       -1.90232755989186
H           -0.01489311879409        0.58698620486303       -2.52760409509251
O           -1.86329188099183        3.60907323742403       -4.64604301768174
H           -1.27741194387310        3.39011369363238       -5.38204986866857
H           -2.51977655565533        2.89374337683759       -4.56591321742506
O            1.63732358513775        3.46219744293659       -4.65449038421329
H            1.89937251286877        2.61331050921357       -4.26611254504132
H            1.68816541896106        4.13035292029988       -3.96687331070075
O            0.67068097057371       -3.80261281244532       -2.99037894210071
H            1.45890377872448       -3.22737100986520       -2.96091107572385
H            0.47690312789789       -3.88052164319335       -3.94209968095997
O            0.29991053803076        4.29445814296241       -0.29142196239822
H            0.27713707198597        3.35031939601958       -0.05447561947458
H           -0.31214264921960        4.72090684667550        0.31886028575089
O            2.81501901296571       -3.63574180838481       -0.07513102727738
H            2.29756099480253       -2.81990610389091       -0.21381880673391
H            2.35935995050496       -4.10294835653479        0.63954216480747
O           -0.08543066018093       -4.16838848681202        0.34995584149382
H            0.22378306489762       -4.33764492974869       -0.56425205411115
H           -0.86704541919213       -3.59961501396024        0.26662437793728
O           -2.47412541981093       -4.00454847751163       -2.64461131699353
H           -1.54023581960159       -4.23496203475615       -2.76475762307089
H           -2.52760348099411       -3.04830891884083       -2.53153535577483
34
 energy: -56.628976352707 gnorm: 0.075570786125 xtb: 6.7.1 (edcfbbe)
C           -0.01705510407737       -0.52229583743021        0.66179267081411
C           -0.03691311844827        0.20943776991969        2.06485515771989
O           -0.00580216280320       -0.54001606771494        3.05600155043044
O           -0.03127997317855        1.45318458032564        2.03702501343104
C            0.00185052710087        0.49769564159680       -0.45509356438317
N           -0.00491457251849       -0.14336363615537       -1.79622649020770
H            0.86211364391425       -1.16473538956746        0.67145745297634
H           -0.90950836464318       -1.14418471451769        0.65313374290998
H           -0.87207380830408        1.13964633394115       -0.35064216807489
H            0.89246081934556        1.11545779897557       -0.34671846928827
H           -0.83788051283775       -0.73316154776750       -1.88807451486621
H            0.82926172364996       -0.72930757824748       -1.90260065761476
H           -0.01814614705699        0.57136279156486       -2.53073987386192
O           -1.89393862533287        3.61558959040374       -4.67435086839839
H           -1.29743239482006        3.39842887632661       -5.39216775960655
H           -2.51683378051637        2.90621684672412       -4.56274942956543
O            1.60973925535718        3.46460619084552       -4.67022868028480
H            1.96618493348941        2.62891033815302       -4.26397577605086
H            1.72279841595065        4.14817409716017       -3.99737022047665
O            0.65048658239768       -3.78994776564619       -2.99860597335001
H            1.44550879455747       -3.23965521085594       -2.95637862593970
H            0.46004047803352       -3.88182120965470       -3.93854008112794
O            0.29707657898422        4.29221025433380       -0.26315908398536
H            0.28934044273842        3.35920241674856        0.01549068377548
H           -0.30926011302455        4.74051956030191        0.33510445334133
O            2.83062713543007       -3.58341409643957        0.00310772394708
H            2.29332528843729       -2.85945998206254       -0.22971213588145
H            2.34376472370535       -4.12893509065515        0.61878341900439
O           -0.04507740131145       -4.16901718843877        0.32735047143354
H            0.22843501894363       -4.34192221569152       -0.60370310118363
H           -0.88073411922356       -3.65031747828089        0.24555623010226
O           -2.45004135306022       -4.02976807963042       -2.61487587323679
H           -1.51816270036490       -4.21608409620977       -2.74856159201971
H           -2.55373911051069       -3.05903290235584       -2.55806263048553
34
 energy: -56.633396180852 gnorm: 0.043226605556 xtb: 6.7.1 (edcfbbe)
C           -0.02352455937875       -0.51598490534883        0.66716945947925
C           -0.04736157031055        0.22552488953029        2.06114283283316
O           -0.00814108922113       -0.50904318475150        3.06279018901241
O           -0.03452944310270        1.47122669984036        2.02404200523830
C            0.00148055855176        0.49324398540942       -0.46027444080807
N           -0.00756564313443       -0.15878052311055       -1.79476055796900
H            0.85383924181089       -1.16165074990515        0.68391039619553
H           -0.91707049130809       -1.13675280235595        0.65948571117621
H           -0.86894355347214        1.14157661947185       -0.36219896796613
H            0.89437716516983        1.10902403245939       -0.35707181637173
H           -0.84042417261504       -0.74968523702631       -1.88373880533701
H            0.82618362842513       -0.74556801567716       -1.90243990937386
H           -0.02218322475664        0.55313866645517       -2.53264270563346
O           -1.87568949318382        3.61050522758594       -4.63947691109063
H           -1.32188323847852        3.42087416519221       -5.41156660975702
H           -2.55126448673110        2.91173922102106       -4.61065785903496
O            1.68916111022791        3.47141355775509       -4.68604963754042
H            1.94652837350608        2.65537639770944       -4.28121440827573
H            1.75448681054612        4.15752925392384       -4.01595627110659
O            0.60964612810146       -3.76265975705748       -2.99646556372160
H            1.43477913477706       -3.25897362705373       -2.95008197105990
H            0.45365264737675       -3.89158265819651       -3.94010282377438
O            0.28972124844641        4.28500137198618       -0.23483429080985
H            0.30157318986282        3.37392540969922        0.08652360028134
H           -0.30494573634104        4.75653731961755        0.35215050295165
O            2.82407059213439       -3.58837129781380       -0.00795323705775
H            2.27279468171047       -2.83905822241983       -0.16775947624464
H            2.36304244626649       -4.15964445979584        0.61123611000280
O           -0.04066815912896       -4.18963646019492        0.28329589859424
H            0.23636054463163       -4.35638869031769       -0.63209798544151
H           -0.86316925351181       -3.67746690010465        0.22309695587482
O           -2.44558919203067       -4.03887671473668       -2.63157806387154
H           -1.48976657508402       -4.19886065298488       -2.70768235154016
H           -2.56475661975239       -3.08344895880585       -2.56111799785836
34