34
 energy: -56.600054076230 gnorm: 0.179277336927 xtb: 6.7.1 (edcfbbe)
H            1.42053100000000       -0.69343900000000       -0.45759400000000
C            0.31562500000000       -0.64091500000000       -0.57275600000000
H            0.37944700000000        0.34125600000000       -2.37510200000000
H           -0.02020400000000       -1.57726700000000       -1.06978300000000
N           -0.04283300000000        0.48932200000000       -1.43082700000000
H           -0.10434400000000       -1.52577500000000        1.34227500000000
C           -0.35607200000000       -0.58177200000000        0.80987700000000
O           -0.15503900000000        1.84564400000000        1.27779400000000
C            0.09900500000000        0.57829600000000        1.65429800000000
H            0.33459400000000        1.38391400000000       -1.05046800000000
O            0.66999200000000        0.37333800000000        2.71201200000000
H           -1.08151800000000        0.54834700000000       -1.53303300000000
H           -1.45918500000000       -0.54094800000000        0.69330800000000
O            0.87477900000000        4.54954800000000       -1.97933400000000
H            1.37706600000000        3.71210400000000       -1.81500300000000
H            0.76659000000000        4.58500000000000       -2.96302700000000
O           -2.61193300000000       -0.64900500000000       -2.75510400000000
H           -3.44652600000000       -0.98497400000000       -2.34135400000000
H           -2.89432000000000        0.14688300000000       -3.27224400000000
O           -0.68104500000000       -5.17097600000000       -2.57893800000000
H           -0.80263400000000       -4.89665300000000       -3.52264000000000
H           -1.50843300000000       -4.87121700000000       -2.12486100000000
O           -1.92683100000000        3.02174400000000       -1.11840900000000
H           -2.28329200000000        3.81029900000000       -0.63702700000000
H           -2.72951100000000        2.56718200000000       -1.47853600000000
O           -1.62082800000000       -2.71668500000000       -3.17671700000000
H           -0.78651800000000       -2.87223200000000       -2.66647900000000
H           -2.34591200000000       -2.87919100000000       -2.52214900000000
O           -2.00158900000000        2.23874400000000       -4.02383800000000
H           -1.50985800000000        3.08543700000000       -4.17190400000000
H           -1.30468700000000        1.59243900000000       -3.74593400000000
O           -0.44270400000000       -4.20847200000000        0.39200800000000
H            0.07409300000000       -3.58521900000000       -0.17815600000000
H           -0.53792300000000       -5.02661000000000       -0.15771600000000
34
 energy: -56.625491823506 gnorm: 0.089593973976 xtb: 6.7.1 (edcfbbe)
H            1.40238898641367       -0.68694431172918       -0.44782305952600
C            0.31235375147622       -0.64752538059816       -0.57403035144168
H            0.37634247527787        0.36102552903464       -2.36372316884428
H           -0.02041053302367       -1.56692784868366       -1.07222443297562
N           -0.04912828237469        0.48861907675522       -1.43228698150686
H           -0.11534867536211       -1.50378846274978        1.35093276464734
C           -0.35542148672023       -0.58362929586635        0.80176048409250
O           -0.12658778868580        1.78471885398120        1.23414750010504
C            0.09057249986298        0.58509742028518        1.66923838712120
H            0.28070321860989        1.37900966537200       -1.02027503909171
O            0.68653057909613        0.36999025698499        2.73374482083687
H           -1.07792551719511        0.53776056069945       -1.53987413815009
H           -1.44476073321788       -0.53241226337660        0.68716143364324
O            0.86840097437612        4.54362772204503       -1.98969351559559
H            1.38255446573660        3.73837131675216       -1.81615374412794
H            0.78417982744399        4.59192137048487       -2.95679780452576
O           -2.62512995876969       -0.53470522881806       -2.67828679112683
H           -3.45474314313347       -0.94464344480197       -2.36445585620889
H           -2.91995272450481        0.17012304541616       -3.28918428706956
O           -0.68059185464289       -5.18757247485149       -2.57175994300072
H           -0.79163151268007       -4.91752973417402       -3.50048294345410
H           -1.50527271625640       -4.90703303521281       -2.13872142865890
O           -1.93718235706925        3.01381127816424       -1.13388974280522
H           -2.25940264652104        3.78378965221973       -0.64105054630834
H           -2.73634621130514        2.58473037368080       -1.48365076014041
O           -1.60168918980750       -2.77591790776961       -3.18878915202170
H           -0.78210938610054       -2.87871459797278       -2.67539131054532
H           -2.31725003737243       -2.87729655607957       -2.53825276159957
O           -2.00001994927126        2.22892160621600       -4.01681923360001
H           -1.53744778414433        3.06853704936971       -4.16599157220897
H           -1.30215610380551        1.60057198341807       -3.76676531350132
O           -0.47133142739862       -4.19711794574289        0.36553066823776
H            0.09838176648406       -3.61446490623196       -0.16781768928981
H           -0.51258552541498       -5.02625636622057       -0.14568549135862
34
 energy: -56.634616690902 gnorm: 0.044469542540 xtb: 6.7.1 (edcfbbe)
H            1.38874981425742       -0.67928401683188       -0.44489197855431
C            0.30916994917712       -0.65725150091682       -0.57491535379967
H            0.37644751913008        0.39650388013934       -2.34260702403672
H           -0.02431968800064       -1.56129389363350       -1.07480981891189
N           -0.06650424281646        0.48900542193028       -1.42656899122214
H           -0.13117745566877       -1.49799972436050        1.35689065453690
C           -0.35102191098315       -0.59329598133625        0.79443923166539
O           -0.13088198287415        1.72837856424175        1.21528223526702
C            0.15454107804724        0.60242494288834        1.63636577647265
H            0.19395964840851        1.37708198110552       -0.96308066186574
O            0.67329593077217        0.35545048150304        2.75339987674471
H           -1.08948912615061        0.51116363136992       -1.55155361395587
H           -1.43059772359089       -0.50575989268585        0.68969303073254
O            0.86626817495857        4.54375653744963       -2.00663118805449
H            1.39590813093619        3.77073440043309       -1.81252622764648
H            0.80950707371867        4.60524554334821       -2.96098494342414
O           -2.64367626783669       -0.45347881516896       -2.63539459005049
H           -3.45211101107598       -0.86524916320731       -2.34167684686835
H           -2.91060186800773        0.21051497035157       -3.27666980023581
O           -0.67881676043453       -5.24450542717847       -2.55657115058416
H           -0.76471867395284       -4.96052634759210       -3.47095624746781
H           -1.50132227176285       -4.97397228646006       -2.14307405204931
O           -1.94358610455212        2.99682277845149       -1.15418688628043
H           -2.22275487728942        3.75428867543556       -0.64483222640984
H           -2.74351884439140        2.59757167126566       -1.50040064896594
O           -1.59973484140083       -2.77979869114705       -3.20686324047189
H           -0.78661980984770       -2.87027980937675       -2.70908773585176
H           -2.30316177319629       -2.85055657835462       -2.56193806199196
O           -2.00186212317635        2.20863945222950       -4.02668074727747
H           -1.58190370050907        3.05799157018492       -4.15314746107214
H           -1.29832988151749        1.60363564579216       -3.79045229266360
O           -0.48845473255926       -4.19229573560132        0.33931952440316
H            0.13070721813690       -3.64541825039518       -0.15655493083518
H           -0.49540586594754       -5.03009703387344       -0.13569460927457
34
 energy: -56.641731201478 gnorm: 0.049838110570 xtb: 6.7.1 (edcfbbe)
H            1.38111625058050       -0.66487454373477       -0.43909385847931
C            0.30091286475770       -0.66260206480418       -0.56747841462007
H            0.38127788618249        0.43692849319685       -2.31335321748075
H           -0.01900049250470       -1.56449082518133       -1.08036803069256
N           -0.09569254353999        0.48939676770619       -1.40919519539979
H           -0.14461821820977       -1.51332650719460        1.36527094467002
C           -0.36103891607265       -0.61080844389425        0.80143278109229
O           -0.04051190925403        1.72338711755600        1.14096769456741
C            0.11245089653039        0.60763727131829        1.65448852289438
H            0.10172427929335        1.38009238781765       -0.90329476024895
O            0.69340738311910        0.35181152879798        2.73775177117441
H           -1.11875874095071        0.47083384509698       -1.56679139486941
H           -1.43745095348106       -0.50894872154384        0.69189629589457
O            0.83835094425501        4.54367866910163       -2.01781743957224
H            1.42561037677248        3.81138440288671       -1.80142428637778
H            0.84752951486889        4.62834703203507       -2.97721622205589
O           -2.63565652470240       -0.35594926045988       -2.54864424024582
H           -3.46139213771751       -0.81666498478145       -2.34153481119627
H           -2.89190257671269        0.23990300893785       -3.28613177191068
O           -0.67029235498752       -5.28847681015750       -2.53588516267494
H           -0.73130353968081       -5.00484183600042       -3.45290029666937
H           -1.51378643788681       -5.04221708654496       -2.14584335609268
O           -1.94010346385930        2.97144866910297       -1.18425243246037
H           -2.16923166894557        3.72538848972488       -0.63558368015536
H           -2.76443322449640        2.61143998045942       -1.52287879799033
O           -1.60230096122850       -2.77251216977551       -3.22671669146576
H           -0.78165506295269       -2.85880505523546       -2.74089917831816
H           -2.29982151566900       -2.81377421157890       -2.57178994893575
O           -2.01299737839126        2.17956204990450       -4.03482995664078
H           -1.64154345961706        3.05954153145365       -4.13874070646444
H           -1.27778855257379        1.59950184859116       -3.82328480268830
O           -0.53129343303395       -4.17678752383736        0.30321471588888
H            0.18677426565051       -3.67671847053507       -0.14293297174118
H           -0.46859759554199       -5.05033757842834       -0.12350210073464
34
 energy: -56.644350725230 gnorm: 0.069175167582 xtb: 6.7.1 (edcfbbe)
H            1.37063228773586       -0.65347328871112       -0.43762543952615
C            0.28689380046356       -0.67101865614986       -0.56153898380560
H            0.38685454161529        0.48893452076457       -2.27522194946368
H           -0.01790022036579       -1.57511345150934       -1.08670664009325
N           -0.13311908912443        0.48830832807804       -1.38602197613893
H           -0.16544997977407       -1.52793212592877        1.37918992704148
C           -0.37257614969268       -0.62615770279748        0.80968705021907
O            0.05985508119594        1.72773067611014        1.05070331750507
C            0.10926035279096        0.61072148020365        1.65032721020814
H           -0.00215805421283        1.37571807790843       -0.83216303322843
O            0.68233077839497        0.35903622565648        2.73536618275472
H           -1.15543102275452        0.42234002928376       -1.58856365511887
H           -1.44864006503938       -0.50517830545269        0.69677668147451
O            0.81065397031639        4.54481949409024       -2.03111870791655
H            1.45894477566586        3.85779725671184       -1.78600660009859
H            0.90135116507346        4.65415200949129       -2.99705764909075
O           -2.64868537310053       -0.30297974128246       -2.54508642255336
H           -3.45850420893189       -0.73653901214658       -2.30215732382017
H           -2.86167728370288        0.32680952721150       -3.22298854164352
O           -0.65949193723851       -5.31902707488098       -2.50946980400775
H           -0.69873385494549       -5.05222937963877       -3.43601044744707
H           -1.53678636379778       -5.11543419570585       -2.14979029795745
O           -1.92953705659912        2.93899391646605       -1.21509019555003
H           -2.10551988049027        3.69188074038773       -0.63017226627966
H           -2.78386263854008        2.62742475876227       -1.54929370407072
O           -1.60393513860623       -2.81829049344780       -3.26098240628568
H           -0.77140475640968       -2.85334165048024       -2.77169102586882
H           -2.29533668524413       -2.76486470619992       -2.57449014190068
O           -2.02678253254309        2.13992445245933       -4.05719679946787
H           -1.71699790195968        3.06169336143448       -4.11816903163725
H           -1.24746365627178        1.59885833596245       -3.86322335789574
O           -0.44599835409728       -4.21560958124457        0.31674604644638
H            0.16311641819296       -3.67766951566256       -0.15702736723756
H           -0.48591796800300       -5.05213730974325       -0.13129364754508
34
 energy: -56.650301698228 gnorm: 0.044567512903 xtb: 6.7.1 (edcfbbe)
H            1.36025579771874       -0.65013365198242       -0.44549936381301
C            0.27278650931494       -0.67741845759156       -0.56361921591454
H            0.38330721284431        0.52744574414448       -2.24754691490604
H           -0.02358401223330       -1.58754135256081       -1.08935995633484
N           -0.16340992187812        0.48606840980378       -1.37085129942794
H           -0.17577462787389       -1.52958100997197        1.38732557112766
C           -0.37589833814323       -0.62733199901351        0.81181070961110
O            0.07192227900967        1.72775998213390        1.03554712912461
C            0.17770065994282        0.61084708820939        1.61002044154406
H           -0.06597105671334        1.36210034020807       -0.78473587288438
O            0.65461901502262        0.36874578133473        2.74162261787068
H           -1.18259679373664        0.39191745804249       -1.60601547514102
H           -1.45545837450235       -0.49350332018537        0.71020351057898
O            0.84599158688251        4.56883876023260       -2.04799496172574
H            1.45498478916613        3.87029181462906       -1.78317823287752
H            0.91820805914230        4.66016527413784       -3.00706109457404
O           -2.64238016971029       -0.23737422598859       -2.47559760990205
H           -3.47609848925669       -0.69575926416801       -2.29891920920838
H           -2.82587034309074        0.36172769568728       -3.21190554664644
O           -0.65423726818343       -5.33612469237656       -2.49324535302367
H           -0.67775784051937       -5.08198087968998       -3.42741906049608
H           -1.55120110954155       -5.15572142894773       -2.15587142251688
O           -1.92358337025141        2.91066000962563       -1.22209025583152
H           -2.08108032510423        3.66666205697981       -0.63997227190824
H           -2.78848623591697        2.62681613557566       -1.56464731894307
O           -1.60208532438441       -2.81353826622750       -3.27245174055494
H           -0.76228498562862       -2.85430083495978       -2.79223394660660
H           -2.28824383132556       -2.75128422825396       -2.58333006558514
O           -2.04266132291303        2.12252183102624       -4.06812754650620
H           -1.75530406365044        3.05333722426631       -4.11133191183887
H           -1.24208317675830        1.59867461214177       -3.89135207373811
O           -0.48447979575547       -4.19907896874647        0.28515342017998
H            0.22358928797555       -3.70354015280517       -0.14344843088372
H           -0.46485141994809       -5.07222048470969       -0.12123824824774
34
 energy: -56.651709549858 gnorm: 0.062962489550 xtb: 6.7.1 (edcfbbe)
H            1.33850623116816       -0.65199898767031       -0.45910280165623
C            0.25088467909669       -0.68049375826379       -0.56599282816069
H            0.35415386121636        0.56173013777347       -2.21759571585594
H           -0.04355461153489       -1.59380558756652       -1.08485258529067
N           -0.19745552523618        0.48493030413881       -1.35644322421389
H           -0.17844322264564       -1.52087252878467        1.39121575938223
C           -0.38238484720693       -0.62163197501875        0.81461498066816
O            0.11460802307556        1.71755332182079        1.02380063213433
C            0.19585986013779        0.60960428326501        1.59994653954597
H           -0.11585276900037        1.33669566445261       -0.74310709084814
O            0.66554764894587        0.38026654687159        2.72930859479223
H           -1.20728681982519        0.38140786689334       -1.60950861134165
H           -1.46190212834058       -0.49237016367825        0.72966391745057
O            0.84686183331878        4.58465111507897       -2.07266048358361
H            1.46637686680783        3.90822525491769       -1.77478990808946
H            0.96694483095519        4.67553703418793       -3.02919670555676
O           -2.66113897841272       -0.20664577609757       -2.46082143377679
H           -3.48632402496203       -0.59973047824079       -2.23461254383190
H           -2.79105306528838        0.41473902467614       -3.18047909832676
O           -0.66548660384020       -5.39580669211143       -2.48781743101774
H           -0.67126241617974       -5.11712380929578       -3.41320492355276
H           -1.53608300862489       -5.17978695648130       -2.14898775122058
O           -1.90625395512403        2.89940813187543       -1.23523153001632
H           -2.07782261263269        3.63831170850189       -0.66101786031292
H           -2.75618418642793        2.60234189911104       -1.56973347544150
O           -1.59792395379709       -2.78763839370557       -3.28167268739994
H           -0.76083032566538       -2.86774841213667       -2.81730870199847
H           -2.27836222947837       -2.75867567034129       -2.61462293471217
O           -2.06151512177341        2.12004408624165       -4.08681862607053
H           -1.76064353320920        3.02430041424684       -4.12285899742529
H           -1.27494796876227        1.59386091909695       -3.91569929072090
O           -0.52806285302622       -4.18009723027138        0.25023927095255
H            0.29294673007785       -3.73745214255736       -0.12392121017783
H           -0.43393280380558       -5.09358215092903       -0.10809224432615
34
 energy: -56.651007632828 gnorm: 0.085878632396 xtb: 6.7.1 (edcfbbe)
H            1.31677988101916       -0.65392442051373       -0.47616556925707
C            0.23045755211129       -0.68043099314295       -0.57094050611340
H            0.32315776397228        0.59859907188353       -2.18752254271428
H           -0.06465297628916       -1.59672747529169       -1.07847236384663
N           -0.22901461676660        0.48389721163730       -1.34645201183478
H           -0.17572615935456       -1.50768246245829        1.39222106054881
C           -0.38558628367368       -0.61186381375080        0.81570682108824
O            0.15536887123323        1.70163384123187        1.01984078716169
C            0.19635819693150        0.60789831594481        1.59912542334325
H           -0.16059122910454        1.30577447038469       -0.70504168941405
O            0.67768400073968        0.39522892361914        2.71625388160942
H           -1.22630375350713        0.37366603201302       -1.61710753451087
H           -1.46374262527544       -0.49228591729047        0.74860493344941
O            0.87241015411034        4.60623193952610       -2.09501119199409
H            1.47289209082333        3.93755130512692       -1.76346513515113
H            1.00667335266851        4.68190836071751       -3.04186700939653
O           -2.66255749775190       -0.14072336606092       -2.36473708914728
H           -3.52633068780401       -0.54330022345397       -2.22831806893926
H           -2.74600115281184        0.42945176507948       -3.18823611813730
O           -0.66989790491973       -5.43780215937891       -2.48090055206717
H           -0.66270027362208       -5.15362785942231       -3.39994973862382
H           -1.52845718039388       -5.21204243058949       -2.15205651498159
O           -1.89694260061062        2.88063243282906       -1.25764442617240
H           -2.05836196372365        3.60229689429855       -0.67159798643213
H           -2.74510491746654        2.59021207226688       -1.57593968462142
O           -1.59569651758290       -2.74935499698612       -3.28451671792900
H           -0.76053630822259       -2.88186700760236       -2.84409814107047
H           -2.26633104365463       -2.74337635494939       -2.63420812287557
O           -2.07672611929469        2.10207771999544       -4.11602144133103
H           -1.79603069070848        3.00465078540738       -4.10998894757988
H           -1.28523199679526        1.59709155389771       -3.95166392321834
O           -0.41002189088815       -4.22968674952223        0.28248152798164
H            0.25200706594601       -3.72733291484003       -0.14544211766212
H           -0.45325953933323       -5.08862655060611       -0.12423029016053
34
 energy: -56.655691580534 gnorm: 0.056733602544 xtb: 6.7.1 (edcfbbe)
H            1.31383406581520       -0.65775642536271       -0.47958954288184
C            0.22666895317089       -0.68291225916178       -0.56973129485005
H            0.32887875724598        0.62163537638268       -2.17866169497518
H           -0.07466595318703       -1.59768984318115       -1.07821991170366
N           -0.23429510186215        0.48475033700279       -1.34021221433682
H           -0.17740737556860       -1.51366915896801        1.40107651589668
C           -0.38311975331342       -0.61671893835412        0.82232683604359
O            0.18922439574296        1.70212046299689        0.98710547706914
C            0.19343169673306        0.60466233032382        1.60302917267121
H           -0.17897397271828        1.30465727290318       -0.68454954386876
O            0.65710477161744        0.40108991430140        2.73519124798481
H           -1.23161311446697        0.36476123278443       -1.62035671132008
H           -1.46174951923137       -0.48740224872456        0.75258356679488
O            0.86939727136540        4.61426694717131       -2.10413270030436
H            1.47920511864139        3.95599881581770       -1.75297351167169
H            1.03609241135611        4.68702121462462       -3.05280513247363
O           -2.67180470825626       -0.14129807743627       -2.39564636078786
H           -3.53044431935587       -0.55112217251320       -2.23984494613836
H           -2.76616028940700        0.47558576970327       -3.12711385057927
O           -0.65575303117830       -5.41141754317554       -2.46194299071923
H           -0.64749710244731       -5.17710379254816       -3.39630026642160
H           -1.56595459636369       -5.24763261228967       -2.16820369958795
O           -1.89330656766529        2.86324371486528       -1.29384087303017
H           -2.00134036025978        3.58249143719309       -0.64644204175825
H           -2.78049782647517        2.60897021679728       -1.58545032238785
O           -1.59636461734138       -2.80003238889068       -3.30790910766825
H           -0.75488298270030       -2.88740832230906       -2.85487856328735
H           -2.26848858701057       -2.67595549041580       -2.61001640478577
O           -2.07326065888242        2.05348179993488       -4.15377578926936
H           -1.87442006819021        3.02939360737537       -4.05943231555032
H           -1.22744419693298        1.60138279207470       -3.98945601045582
O           -0.42094016510788       -4.22570177964165        0.27397100011435
H            0.28526310058123       -3.74126517298808       -0.13701233257352
H           -0.45073267434737       -5.09228001629256       -0.12414668318728
34
 energy: -56.654520977795 gnorm: 0.083369264221 xtb: 6.7.1 (edcfbbe)
H            1.31069515652122       -0.66372584908202       -0.48421097078586
C            0.22117696663135       -0.68640351473207       -0.56596158028065
H            0.33281467377457        0.64801562327880       -2.16518567312476
H           -0.09031062583910       -1.59986615690438       -1.07481006090865
N           -0.24158080959455        0.48692126693487       -1.32907658778388
H           -0.17701854880133       -1.52144424826327        1.41257433099958
C           -0.37948413126682       -0.62188852808705        0.83311089328287
O            0.21289627884995        1.70473358499258        0.96549742621222
C            0.21013635179580        0.60313709754514        1.59922052965209
H           -0.19717219532866        1.30499604323161       -0.65968572521850
O            0.63109969850792        0.40880618083810        2.75937322202002
H           -1.23976447698090        0.35716046101113       -1.61875142411796
H           -1.46030755448893       -0.48147220435786        0.76440296432069
O            0.85201245756272        4.61726615721926       -2.11890185065719
H            1.49972453820150        3.98816480528651       -1.74463628425688
H            1.08708576680834        4.69951119245473       -3.07215415254797
O           -2.69886011679252       -0.13588064431168       -2.40265425504989
H           -3.56317089105168       -0.51166962675063       -2.23062857339133
H           -2.76982733990835        0.50089827847624       -3.11083044583268
O           -0.65319256949623       -5.41132754993312       -2.45034530937922
H           -0.63561561845340       -5.20351629792782       -3.39513714035571
H           -1.58662224729425       -5.27179583365607       -2.17810862144035
O           -1.88477163600467        2.84573645879151       -1.29119908768237
H           -1.98883051857295        3.57665949311359       -0.66679237051673
H           -2.77616169468672        2.59906141299461       -1.58828007833691
O           -1.59632076867858       -2.80797286233694       -3.32034272186203
H           -0.74828353911128       -2.88536392070328       -2.86347784139580
H           -2.26442521420905       -2.65895913186710       -2.61011545786016
O           -2.10834208841535        2.09770028809016       -4.04480196335012
H           -1.83188976560942        2.97648968730596       -4.16069890523433
H           -1.26947422691372        1.57347792933575       -4.03563605439391
O           -0.43883458800936       -4.21384178321255        0.25912928027367
H            0.33926529225971       -3.76480231089050       -0.12882621270788
H           -0.43866301540512       -5.10065849788472       -0.11942029828882
34
 energy: -56.657106503017 gnorm: 0.052866750598 xtb: 6.7.1 (edcfbbe)
H            1.30426284698352       -0.66865771796008       -0.49255560104179
C            0.21427066381583       -0.68491739485728       -0.56506848239235
H            0.31799957734790        0.65920889052423       -2.15397160122485
H           -0.10685119170327       -1.59850964752832       -1.06716925666945
N           -0.24925865743048        0.48913942736500       -1.32381685218794
H           -0.16783598059443       -1.51682018679739        1.41481817433868
C           -0.37560498984094       -0.61643227069004        0.83916028763599
O            0.20983789501932        1.70141857905287        0.98749177341586
C            0.21404212323989        0.60352185762887        1.60402072508659
H           -0.19779550452967        1.29783007940539       -0.65363954261529
O            0.63742027938683        0.41601846002434        2.76096007652019
H           -1.24357651149230        0.36511801819584       -1.61163267130508
H           -1.45717377478482       -0.48133368082396        0.78023714309521
O            0.93704394348856        4.65298343712649       -2.13087574416378
H            1.49648605256564        3.98016891516102       -1.76300609491919
H            1.06954944184620        4.69614930525012       -3.06390377150012
O           -2.72972175649452       -0.12950825639350       -2.38885494472929
H           -3.60102625838549       -0.46561583491243       -2.21038003207651
H           -2.76843178623867        0.51818688005584       -3.10281172441973
O           -0.67150961353942       -5.45257509685502       -2.45922301243963
H           -0.64043083404398       -5.21611547114744       -3.39457399613538
H           -1.56553428265534       -5.26077602481167       -2.17229852073236
O           -1.88182564467982        2.83483489063305       -1.28004643627282
H           -2.00404348909004        3.56543789402105       -0.69119683530845
H           -2.75568784424320        2.58261910346520       -1.59382863008238
O           -1.58980188577611       -2.76747182793139       -3.31638939208364
H           -0.74515651440005       -2.88802094477179       -2.86823357231599
H           -2.25265927217573       -2.69364625602285       -2.64027720397924
O           -2.10510662460356        2.06037425247822       -4.11407148873823
H           -1.86667270353581        2.97245711360663       -4.15789985890494
H           -1.27615672217269        1.58500669508138       -4.01654057737540
O           -0.43579416781399       -4.20687428950689        0.25170924301843
H            0.35998586233764       -3.77624350955581       -0.13125648165403
H           -0.41525967580689       -5.10880838851039       -0.11223609784254
34