49
 energy: -80.181036519581 gnorm: 0.069150874232 xtb: 6.7.1 (edcfbbe)
N           -0.26962002700000        0.47626769170000        1.69137862370000
C           -0.17749510090000       -0.17098418590000        0.34793297170000
C            0.24444897980000        0.86296309810000       -0.67969403780000
C            0.26833663840000        0.33963694620000       -2.10554226000000
C            0.60988569040000        1.40737690040000       -3.13677780710000
O            0.90238554560000        2.57568156700000       -2.74319083730000
O            0.55416788860000        1.08125857470000       -4.35426781430000
H            0.59088337780000        1.01504423300000        1.89377210320000
H           -1.05505615350000        1.15848454470000        1.70686726310000
H           -1.15627491530000       -0.59401894530000        0.12225737400000
H            0.54259963110000       -0.98565004640000        0.42081723230000
H            1.23589268450000        1.22854755420000       -0.41463738540000
H           -0.43693078420000        1.71368938220000       -0.62202037130000
H           -0.70192834280000       -0.07908934180000       -2.38791188370000
H            0.99218054580000       -0.47283507570000       -2.22018369080000
H           -0.41596698540000       -0.22663878630000        2.43510587380000
O           -0.61519413520000       -1.56888722010000        3.68564780450000
H           -0.42487723740000       -2.44218015990000        3.31802927540000
H           -1.51963859830000       -1.63049345360000        4.02063463510000
O            2.08194168090000        1.64963455530000       -6.66163193480000
H            1.66421181650000        1.73013956110000       -7.53826931160000
H            1.33676119170000        1.84723607880000       -6.06580312190000
O            1.74277225930000        4.43322836850000       -4.68936774660000
H            0.94823702380000        4.31522185220000       -5.24107818570000
H            1.54611594730000        3.83982539830000       -3.93400362410000
O           -0.09515402890000       -1.48222648250000       -5.15387078260000
H            0.11089647250000       -0.57722148870000       -4.83169958120000
H           -0.71107870050000       -1.84297892570000       -4.50585655340000
O            1.92465678660000        2.34466546870000        1.96888220320000
H            1.85689919190000        2.88699398450000        1.15517504170000
H            2.82032904180000        1.98511032500000        1.96421558110000
O            2.65094828620000       -0.79236731050000       -3.83118371230000
H            1.88729149740000       -0.27823390500000       -4.15792260060000
H            2.51167996290000       -0.81882445720000       -2.86277959680000
O            1.47039912880000        3.85430492170000       -0.36666163840000
H            2.05353668060000        4.59187114270000       -0.58571996080000
H            1.33900245590000        3.34558986140000       -1.20101854120000
O           -1.61859566310000        3.91193488920000       -2.78060354210000
H           -2.24894775880000        3.17895808640000       -2.76921491690000
H           -0.73811885400000        3.48600838100000       -2.75438857780000
O           -2.31115012370000        0.79405566140000       -3.87964989890000
H           -2.51071761480000       -0.15396512110000       -3.85314184070000
H           -1.36742823390000        0.83132725300000       -4.13760002250000
O           -2.33878939040000        2.40042411440000        1.49169457200000
H           -2.64838699700000        2.77238261490000        2.32642731880000
H           -1.97368278300000        3.16043603360000        0.97565440210000
H            3.47306300850000        1.62716152100000       -1.10339151590000
O            3.52654909140000        1.72105585690000       -2.07611991720000
H            2.74679753410000        2.26662075580000       -2.29641167830000
49
 energy: -80.193469765770 gnorm: 0.046007423430 xtb: 6.7.1 (edcfbbe)
N           -0.27060329401296        0.47855636151540        1.69571512951822
C           -0.18038001554419       -0.16979437085707        0.36383488863650
C            0.23890621950958        0.87510228605540       -0.65667086295999
C            0.25092681202203        0.34510066603717       -2.07747100351623
C            0.59714420787796        1.40566167222375       -3.11789893765594
O            0.90709281765651        2.56910167541791       -2.74220500207932
O            0.51496561824981        1.07345785438534       -4.32820550899388
H            0.58693759581465        1.02548727092815        1.89411947640030
H           -1.06034474215073        1.15539896584529        1.70254639279928
H           -1.15636445449539       -0.58783236247440        0.11566690522921
H            0.54816642139124       -0.97954410481858        0.41275372730214
H            1.23673786183716        1.23482173790247       -0.40935692420642
H           -0.44352471259310        1.72507028184979       -0.61199417050109
H           -0.72360301788839       -0.06314876705960       -2.35020872401406
H            0.96502735161653       -0.47210484383675       -2.18603527577104
H           -0.41001560227480       -0.22208004864380        2.44481400567132
O           -0.63838339790103       -1.55593607358477        3.63810059402865
H           -0.41699494616571       -2.44764484473804        3.33769510558195
H           -1.51635018106712       -1.62920933169270        4.03522954186237
O            2.10148385071565        1.69333900391153       -6.68381625078698
H            1.65371640478468        1.72515005388987       -7.54251879436080
H            1.37178569855076        1.78901416511131       -6.04183918591636
O            1.72490409190553        4.44640950625607       -4.67129236656985
H            0.95786742300592        4.34449400405921       -5.25124347974132
H            1.53635615914151        3.81294974526811       -3.95051886595416
O           -0.12354484598071       -1.49055044612644       -5.16884248891577
H            0.08158111565409       -0.58076725939923       -4.87372802435172
H           -0.70252401143783       -1.86269693412347       -4.49318659471365
O            1.90902803970793        2.28290575264349        1.94468579031088
H            1.83865383281476        2.90594029613398        1.18905656889415
H            2.83649255819898        2.01041581110449        1.97185927026970
O            2.67932252083777       -0.86642636801699       -3.86411765743198
H            1.98986766889575       -0.25296385253708       -4.19106670184078
H            2.59610953720250       -0.82032090270509       -2.89390666676140
O            1.52426648411559        3.82521541086814       -0.34837549490734
H            2.03243926742367        4.60943833768447       -0.59162986623250
H            1.30440909680311        3.37846269390024       -1.19631351226544
O           -1.62147582273670        3.90979832169967       -2.74336497390256
H           -2.24740185070844        3.17397915252438       -2.81584831001000
H           -0.74010526193996        3.49596559452879       -2.76597216036711
O           -2.32024713061973        0.79204391276003       -3.83747346220694
H           -2.54016648783823       -0.15008088143481       -3.89308197801115
H           -1.41598111641987        0.85156040115741       -4.20653506230310
O           -2.30565455245101        2.40245491813850        1.50283300944491
H           -2.65645853512957        2.77406701812848        2.32051263066709
H           -1.98484596134282        3.15624041749201        0.98236659172754
H            3.48462656478994        1.64617481307524       -1.09237534502861
O            3.54034607210797        1.71499334960042       -2.05760824992663
H            2.76364626006670        2.23887221225277       -2.31421034043975
49
 energy: -80.200674571312 gnorm: 0.035810634162 xtb: 6.7.1 (edcfbbe)
N           -0.27054562774927        0.48257470663215        1.70597390577789
C           -0.18160450340447       -0.15927286361547        0.38500528595500
C            0.23425695859946        0.89029924097202       -0.63591826398515
C            0.23404916915868        0.34972556987249       -2.05397034024716
C            0.57136976812566        1.40498880574450       -3.10610482945083
O            0.91936287936225        2.55767326241461       -2.74409380463960
O            0.47484040106217        1.06864006937830       -4.31213510395989
H            0.58631978084544        1.04057439752642        1.89547663359386
H           -1.06457709019088        1.15458814134985        1.70319754693118
H           -1.15339964544841       -0.57476701991009        0.11442982083818
H            0.55451179091702       -0.96414297179558        0.40768676379968
H            1.23455416326168        1.24819258096460       -0.40052676374672
H           -0.45104421635426        1.73713525917554       -0.59638253600082
H           -0.74960412381794       -0.04067697587193       -2.31358998087887
H            0.94147484943370       -0.47138325426352       -2.16356857485366
H           -0.40227684191519       -0.21705439086624        2.46074674966408
O           -0.65803154436086       -1.54622581675260        3.60249442938186
H           -0.41049124874514       -2.44620876031751        3.35232162867257
H           -1.51466327045627       -1.61774739755084        4.04197321113124
O            2.11237207125009        1.71019929499046       -6.69418863925334
H            1.65136916049068        1.72923884126372       -7.53825628620845
H            1.41532285952200        1.73110163444093       -6.00696109347457
O            1.70546209283185        4.45896629840911       -4.64756478375299
H            0.97044213454989        4.39661463796927       -5.26659713773914
H            1.51268700198164        3.78274282606051       -3.96840267679957
O           -0.19427198407881       -1.48208464865649       -5.21560603622754
H            0.10125075018340       -0.60826410514368       -4.89304482038778
H           -0.67334481719629       -1.89199723497998       -4.46951757196746
O            1.90017746360767        2.24637264498931        1.93617419213750
H            1.80733808882668        2.87981458731666        1.20028320711147
H            2.83876299342213        2.02478633576020        1.98786835020346
O            2.72953884136278       -0.88891354893701       -3.90396910988218
H            2.05510471051343       -0.28049831943158       -4.22797209216261
H            2.70079215722572       -0.82697498152827       -2.93873979931528
O            1.56562189114035        3.81237540787358       -0.33587773006394
H            2.01757237404066        4.62647752432551       -0.59199884647993
H            1.29104086327286        3.40435018912478       -1.18154786265465
O           -1.62770008872706        3.90186332124216       -2.70960968883567
H           -2.24681790277036        3.16630032913795       -2.88362093074840
H           -0.74506184463752        3.50562067092739       -2.76556949503733
O           -2.34472082769066        0.79299366424655       -3.84991863561780
H           -2.59240266747309       -0.13629588439447       -3.94042848358583
H           -1.46198617171842        0.86131432213276       -4.23976013402217
O           -2.27812931609876        2.40624695174810        1.51532387985341
H           -2.66506741512404        2.77398199197717        2.31834322841344
H           -1.99173199573059        3.15050678038316        0.99039491666006
H            3.51308543069722        1.67930173019064       -1.07316813177333
O            3.54793916947188        1.68671524130318       -2.03617673811740
H            2.78869094053129        2.20677318647264       -2.33002944255382
49
 energy: -80.204823508252 gnorm: 0.047332108326 xtb: 6.7.1 (edcfbbe)
N           -0.26933991708097        0.48609200977806        1.71901024959196
C           -0.18147752660797       -0.14458834256722        0.40168926245907
C            0.23012382942605        0.90564304812858       -0.62419375680809
C            0.21954619944912        0.35389511124145       -2.04080233653802
C            0.57144934920250        1.39668068839536       -3.10276746921623
O            0.93368621584308        2.54571142826739       -2.74943816752987
O            0.44770119062034        1.06220707258413       -4.30770901746543
H            0.58887109158515        1.04971037972458        1.90152952635192
H           -1.06352208846249        1.15741505866651        1.71361285631381
H           -1.15010099425371       -0.56073989474486        0.12110939827587
H            0.55812589220953       -0.94650633639122        0.40826881244491
H            1.23043815180661        1.26376493995700       -0.39410440417307
H           -0.45646038598797        1.75066858903394       -0.58175105428621
H           -0.77501434750175       -0.01683196713944       -2.29072530989170
H            0.92131454695243       -0.47272679881053       -2.14989664491093
H           -0.39706123152801       -0.21443010299099        2.47545003139149
O           -0.67158946050506       -1.54381246474751        3.58767674726585
H           -0.40878407214244       -2.43998567897654        3.36083394385971
H           -1.51607301871111       -1.60074506054673        4.04224386215152
O            2.11594516369345        1.72209875844171       -6.68543894780510
H            1.64755226877919        1.71024746945919       -7.52368033071426
H            1.44941048848344        1.68994212087925       -5.97641155236626
O            1.68628594902468        4.47612985315638       -4.61829627520319
H            0.98814025460972        4.45634393468106       -5.28591931671519
H            1.47664608014933        3.75673189996339       -3.98611785515564
O           -0.21390098832144       -1.50142347496555       -5.21773680842978
H            0.05084848197513       -0.61381438758944       -4.93523455110449
H           -0.67287584690986       -1.91629636228623       -4.47738844774836
O            1.89521271580596        2.21607678309716        1.93403978039591
H            1.78114800830226        2.85476029592142        1.21292682587998
H            2.83617772234023        2.03180166967272        2.00766005604730
O            2.75081861834223       -0.98149028324585       -3.94239502217928
H            2.16431985117506       -0.26181263291617       -4.26412215253404
H            2.82607214657491       -0.79968480732845       -2.97159983155199
O            1.59239383849996        3.81502956469828       -0.33323411591620
H            2.01594900814826        4.63897694577966       -0.58309923263777
H            1.30004281051378        3.41944205594149       -1.16500438029430
O           -1.63980313013943        3.88406388034150       -2.71631198405094
H           -2.24581603759403        3.15786684033980       -2.91208237019245
H           -0.75233690138291        3.51204419355283       -2.76242897203345
O           -2.36706107641411        0.79449046687140       -3.83241116783389
H           -2.65931427162953       -0.11928469102635       -4.01309113088686
H           -1.51604534813119        0.87180719510083       -4.29765913156582
O           -2.25425697920651        2.40949866954325        1.53493581925915
H           -2.67233853533282        2.77338582075257        2.32391463038839
H           -2.01604370553480        3.15308498153230        0.98539324878080
H            3.55270094916124        1.73225141054670       -1.04596424133372
O            3.54808707810064        1.63284955326768       -2.01479998631826
H            2.81804557460383        2.17000286925721       -2.34560169976513
49
 energy: -80.207579055041 gnorm: 0.042988306788 xtb: 6.7.1 (edcfbbe)
N           -0.26727244454411        0.48886047571798        1.72966038943523
C           -0.18026013340851       -0.13247357107683        0.41002673894410
C            0.22607923614023        0.91879848356107       -0.61995765173491
C            0.20398496699358        0.35928558835619       -2.03545698813008
C            0.57042189430740        1.38840601077998       -3.10688267541359
O            0.94591180296132        2.53603896785823       -2.76074716659122
O            0.43250274885427        1.05175552116254       -4.31068121061758
H            0.59310426585955        1.05083199162210        1.91046630965484
H           -1.05799386516255        1.16307305651774        1.72849908523237
H           -1.14741086453197       -0.55101049576761        0.13029468370576
H            0.55991118120147       -0.93281821598918        0.41145240829007
H            1.22670807627716        1.27745919541172       -0.39400855748849
H           -0.46066136292564        1.76349316718549       -0.57097046777888
H           -0.79857825863453        0.00205028234055       -2.27708473885385
H            0.90061785313189       -0.47321872954923       -2.14367152247044
H           -0.39519019252667       -0.21370437358174        2.48334491686104
O           -0.68681455705383       -1.54314271996046        3.57189265352472
H           -0.40548121136915       -2.43969104894715        3.37734963602638
H           -1.51763972394544       -1.58840474072804        4.04922838187859
O            2.13131079283142        1.75629330193957       -6.66081462561219
H            1.65054697820623        1.66256620175323       -7.49875023183132
H            1.47609746326465        1.64536588257721       -5.94898220807049
O            1.66773785309425        4.49275479141986       -4.59372494916227
H            1.00441709430602        4.50498113167738       -5.30082347480010
H            1.43735701908707        3.74540028697510       -4.00045130287805
O           -0.25926689065074       -1.50780206414314       -5.24008553772218
H            0.02397404813193       -0.62738096416754       -4.96040630527895
H           -0.66075065292742       -1.94176799911364       -4.48131248643206
O            1.88827630280331        2.18067751334210        1.93317328716221
H            1.76387270731047        2.85244503961162        1.24035622856382
H            2.83773884710088        2.04783029422223        2.03577618521704
O            2.84069285214296       -0.94434865281406       -3.96094332458502
H            2.23291778916192       -0.29932140446207       -4.30166444983453
H            2.90501181544204       -0.83517015343022       -3.01765147294458
O            1.63367728374786        3.80963695301327       -0.33005633319609
H            2.00309475498664        4.66529720254982       -0.57629548216142
H            1.30314607332476        3.43570357917457       -1.15657066951711
O           -1.65684786731484        3.86677013960593       -2.69783319155692
H           -2.24420943586543        3.14549423303993       -2.96216854212041
H           -0.75827223621329        3.52087044294043       -2.77710142195836
O           -2.40225526783335        0.79566021893503       -3.86384205290889
H           -2.71845366225721       -0.09860252266984       -4.04453632634270
H           -1.56295535102207        0.87671074714454       -4.33404246087114
O           -2.23640145752517        2.41453935296745        1.55829150377570
H           -2.67355720573176        2.77518140162447        2.33640170330069
H           -2.05105894717938        3.16040646568195        0.97304905965637
H            3.58357952735369        1.77045844274548       -1.02489958421727
O            3.54987675714476        1.58186532261286       -1.99188711734838
H            2.84660121545541        2.13843824263510       -2.35208125509648
49
 energy: -80.208458784231 gnorm: 0.069626993866 xtb: 6.7.1 (edcfbbe)
N           -0.26516345252501        0.49346550422185        1.73356995255964
C           -0.17875061715185       -0.12492201141820        0.40739905735716
C            0.22275684050211        0.92673983497306       -0.62463212842472
C            0.19189583119683        0.36672097697199       -2.04018165327280
C            0.55505025459228        1.38906862259287       -3.11811382805495
O            0.95472602540035        2.53303167956565       -2.77492859884155
O            0.43475298682167        1.04412657138334       -4.32028256093710
H            0.59818107298142        1.04755059408147        1.91845499634860
H           -1.05098547805057        1.17271535354366        1.74132278289010
H           -1.14663041025005       -0.54701566972825        0.13790134555101
H            0.56070081002330       -0.92448475380033        0.41498127196277
H            1.22412188590673        1.28629452341926       -0.40157349421511
H           -0.46360135895118        1.77205789381713       -0.56798607774803
H           -0.81242665636985        0.01233202907072       -2.27764452036889
H            0.88641548754928       -0.46900511930857       -2.14905072413445
H           -0.39743684729055       -0.21251976028743        2.48062084657055
O           -0.70547958229122       -1.54424335455987        3.55360397006385
H           -0.40431289663596       -2.44829346842638        3.40026200469442
H           -1.52261675590358       -1.58542585720373        4.06145873480787
O            2.13126520521880        1.76238344417574       -6.62793452336747
H            1.66091835902753        1.63259964673707       -7.46910593429179
H            1.48245506232975        1.61911873948881       -5.93042984198004
O            1.65370376295857        4.50904017796482       -4.58244220922106
H            1.01114804291002        4.52523990619305       -5.29785140555410
H            1.41684200217849        3.75808994716437       -4.00620787376804
O           -0.35045420773644       -1.48519102812831       -5.29746284670788
H            0.03758165477351       -0.64966073742652       -4.95263149832996
H           -0.61830651593158       -1.97456293842367       -4.46043203608133
O            1.89094304823695        2.17692094439953        1.94652588274338
H            1.76345029082889        2.84682961697104        1.25661260344960
H            2.83280034521011        2.05295369435667        2.06684645431672
O            2.85519524103289       -1.00735107028710       -3.98423686935385
H            2.29677885902404       -0.30728445667951       -4.33047426936580
H            3.00713847711188       -0.79370375631945       -3.04087191867788
O            1.67361666996840        3.80482685149647       -0.32812648464713
H            1.99859577957777        4.68772461313527       -0.56678103996936
H            1.30611788588019        3.44768374479612       -1.15541530380466
O           -1.67239572769004        3.85113773987114       -2.65600308687038
H           -2.24212622394244        3.13023826429990       -3.01945746100125
H           -0.76171489853507        3.52668212054437       -2.79368075995217
O           -2.43189334348710        0.80194938074549       -3.90811083331400
H           -2.77066877758776       -0.07292200613149       -4.06873421875706
H           -1.59063043592438        0.87594129025334       -4.34614213395043
O           -2.24761235492025        2.42363646485532        1.56906897440192
H           -2.67289451495664        2.77685427763048        2.35047624047233
H           -2.06649854853726        3.16235338168116        0.97288884013498
H            3.57994859227611        1.73248806839527       -1.02887188612560
O            3.57748082317124        1.58935072418174       -1.96808270322688
H            2.86585591997997        2.12498163745254       -2.33523584830541
49
 energy: -80.210753449797 gnorm: 0.053625296350 xtb: 6.7.1 (edcfbbe)
N           -0.26445535356408        0.49805754601156        1.73203314062075
C           -0.17944611655843       -0.12266685276902        0.40099727953581
C            0.21941906227303        0.92897920352825       -0.63029774596343
C            0.18426373349924        0.37160192725666       -2.04594138296201
C            0.53759521980363        1.39227208282408       -3.12673371102535
O            0.95773894487228        2.53222417411963       -2.78472228107943
O            0.44489761588119        1.03691196787182       -4.32695142498494
H            0.60147668703550        1.04375423534795        1.92236551248519
H           -1.04696124083187        1.18103893625563        1.74645072690048
H           -1.14901765721187       -0.54664284866280        0.14001694447709
H            0.56058784364368       -0.92149347478628        0.41564827349980
H            1.22242585190929        1.28844491704719       -0.41053230177849
H           -0.46598806686069        1.77552087963910       -0.57085351698003
H           -0.81826106903998        0.01575413222533       -2.28382899728555
H            0.87581102495391       -0.46687012396415       -2.15604084430576
H           -0.40178548311170       -0.21123175209416        2.47334156596571
O           -0.71481242280475       -1.54586130306376        3.54812839447932
H           -0.40538938550301       -2.45401897477247        3.41606718688407
H           -1.52516802434067       -1.58648210703434        4.07242665304127
O            2.12590462532389        1.76268678215639       -6.61071305718204
H            1.66637023258293        1.63810572139808       -7.44764034344518
H            1.47785988780473        1.58538856689191       -5.91363873098671
O            1.64123862991098        4.53179970147716       -4.57338363172152
H            1.01455366466931        4.52686102568700       -5.29123420566663
H            1.41448465164706        3.76902143738502       -4.01112631114791
O           -0.31062065725338       -1.51409917331584       -5.26297305938666
H            0.03056919325331       -0.65763330761937       -4.94533665713264
H           -0.67188257785978       -1.95956142602813       -4.50996237793682
O            1.89723367055609        2.18766308776108        1.95597298048232
H            1.77271007095140        2.84004378580003        1.25622014980602
H            2.83354466312461        2.06249096765886        2.09177425224219
O            2.87368600001487       -1.03347663214747       -3.98864667887584
H            2.34413290993297       -0.30368017416625       -4.34574784962319
H            3.05463893899866       -0.77750071946377       -3.05200879489214
O            1.68432483712863        3.81169469591234       -0.33201050763032
H            2.01413484377665        4.68677799233209       -0.55490562646254
H            1.31539002046601        3.44994970841731       -1.15661316356186
O           -1.67510651277421        3.83599836810049       -2.70679219898036
H           -2.24516686356926        3.13005369848893       -2.99637121899594
H           -0.76678323762690        3.51709892778806       -2.78002688494760
O           -2.43408266396772        0.81050421396351       -3.88535013932004
H           -2.81701697815234       -0.05246850680510       -4.11651985743497
H           -1.60384585860697        0.87032912168229       -4.36705738693733
O           -2.26836253817820        2.43294802899739        1.56765439288407
H           -2.68006981262678        2.78080788958885        2.35629556999308
H           -2.06284125445469        3.15958217309280        0.98437885743254
H            3.58761898102039        1.73435567172259       -1.02814056410779
O            3.57473083829095        1.56429318801503       -1.95821137091659
H            2.87755874357194        2.11721489255141       -2.32658167136766
49
 energy: -80.207823192679 gnorm: 0.092785256296 xtb: 6.7.1 (edcfbbe)
N           -0.26327004416130        0.49932203450957        1.73007471737460
C           -0.18157775391710       -0.12112184415649        0.39712430458614
C            0.21540992473031        0.92928968294547       -0.63447905109792
C            0.18072250864685        0.37170060897161       -2.04975379235947
C            0.56209461641653        1.38347296696920       -3.12908948402470
O            0.94955336712888        2.52980947844427       -2.78814789695739
O            0.44568788874885        1.03153632428204       -4.32936555177504
H            0.60497491808914        1.03900547832030        1.92347587166913
H           -1.04349599103500        1.18407494003763        1.74755608972637
H           -1.15201839050479       -0.54570022625145        0.13866839940880
H            0.56102053338563       -0.91867775589996        0.41208654879122
H            1.22018467696914        1.28735179120314       -0.41844435233546
H           -0.46806944223389        1.77749570608069       -0.57675712073479
H           -0.82272292475793        0.02114944874804       -2.29290583984006
H            0.86564831380341       -0.47192425497732       -2.15796220796667
H           -0.40479348044361       -0.21332464888283        2.46830628572224
O           -0.70808814557716       -1.55534527549474        3.57342413224446
H           -0.41272758296147       -2.44616194905043        3.41037590833925
H           -1.52587492266020       -1.58302480202731        4.06895987243637
O            2.12079897233145        1.76634827591048       -6.59433437455270
H            1.66810180164016        1.63534682704586       -7.42802570518269
H            1.47449017026217        1.55771629696867       -5.89210613642676
O            1.62484639350075        4.57017046933668       -4.54293790115406
H            1.03530581949173        4.53660250587537       -5.30759497333651
H            1.40388537853615        3.76044946865325       -4.01905284361957
O           -0.33518728258093       -1.50256465674216       -5.27523058969287
H            0.00163720209263       -0.65297410659112       -4.94595170176714
H           -0.64599597565198       -1.98886324015202       -4.50210638464606
O            1.89672579640978        2.18382326302678        1.95202423651999
H            1.78425844896432        2.84473332479084        1.25602202649747
H            2.84523267979206        2.09145662744169        2.12164619593849
O            2.90443508777880       -1.03347872513850       -3.98246988742141
H            2.39584481812533       -0.28752992432296       -4.35878806503368
H            3.06298589876640       -0.79613555340998       -3.06334990001713