166
 energy: -276.949647360263 gnorm: 0.644783719535 xtb: 6.7.1 (edcfbbe)
N            0.05814800000000       -0.92758300000000        1.46960700000000
C            0.21195900000000        0.51002000000000        1.25738900000000
C           -0.42029600000000        1.02660100000000       -0.05399500000000
C            0.23290900000000        0.51099500000000       -1.35178600000000
C           -0.12525300000000       -0.89643600000000       -1.75561800000000
O            0.43258500000000       -1.42088200000000       -2.86197900000000
O           -0.94795900000000       -1.55110300000000       -1.13717200000000
H            0.42854800000000       -1.16686800000000        2.41684100000000
H           -0.95187600000000       -1.19383100000000        1.43153800000000
H           -0.27873900000000        1.04478500000000        2.10014800000000
H            1.29199600000000        0.77262900000000        1.27882300000000
H           -0.26331200000000        2.12751800000000       -0.03828000000000
H           -1.51695700000000        0.85134800000000       -0.07337000000000
H            1.33463900000000        0.61768200000000       -1.26361400000000
H           -0.10456000000000        1.15854300000000       -2.18948000000000
H            0.61816600000000       -1.46341800000000        0.77094700000000
O           -2.07492000000000       -0.05688200000000       -1.84062000000000
H           -2.11952700000000        0.92264700000000       -1.97898600000000
H           -2.77904000000000       -0.24506700000000       -1.17023600000000
O           -0.71378800000000       -0.41625600000000       -6.41931200000000
H           -0.41105700000000        0.32123800000000       -5.83188700000000
H            0.09226500000000       -0.66847100000000       -6.93630100000000
O           -0.47932500000000        1.07080400000000        5.66085600000000
H           -0.85426100000000        0.96302400000000        6.57103100000000
H            0.41125900000000        1.47870000000000        5.80609400000000
O           -0.32271600000000        5.05823400000000       -2.85097100000000
H           -1.18697000000000        5.16365200000000       -2.37920400000000
H           -0.57257200000000        4.77270800000000       -3.76566200000000
O            0.28307000000000       -4.13117100000000       -3.43565800000000
H            0.60407900000000       -3.23100900000000       -3.69502600000000
H            0.90922800000000       -4.42296500000000       -2.72615400000000
O            1.30083500000000        4.51901200000000        2.30296500000000
H            2.03130800000000        4.62566100000000        1.64293000000000
H            1.75063800000000        4.18310800000000        3.11872100000000
O            3.30244700000000        0.77508700000000       -0.02717600000000
H            3.95127100000000        0.45305700000000        0.64805400000000
H            3.62197000000000        1.68150500000000       -0.26576500000000
O            2.55554100000000       -1.86452600000000        1.06241600000000
H            2.50990700000000       -0.87551000000000        1.04305000000000
H            3.14405900000000       -2.07071900000000        1.83166500000000
O            1.93938200000000        4.99093200000000       -1.47940500000000
H            1.11815500000000        4.45179800000000       -1.60403700000000
H            1.81715600000000        5.42952200000000       -0.60002400000000
O           -0.92755300000000       -3.48182500000000        2.83549500000000
H           -1.83030800000000       -3.84231400000000        2.64657400000000
H           -0.91737400000000       -3.33932500000000        3.81539500000000
O            3.50920500000000        1.17031800000000       -2.97810300000000
H            3.72082700000000        0.40524700000000       -3.57012900000000
H            3.58183500000000        0.80234200000000       -2.06162500000000
O           -1.36752100000000       -3.65005200000000       -2.41433900000000
H           -0.72086100000000       -3.88216200000000       -1.70120000000000
H           -1.08052400000000       -2.75570200000000       -2.72800100000000
O           -2.90496800000000       -1.12723000000000        1.00861600000000
H           -3.09886900000000       -2.02460400000000        1.37974100000000
H           -3.70774700000000       -0.90071800000000        0.47490200000000
O            1.26956300000000       -3.87294200000000        1.97227600000000
H            1.26514200000000       -2.98332200000000        2.40721000000000
H            0.61056200000000       -3.79312900000000        1.23745500000000
O            1.77272400000000        0.19673100000000       -3.16868300000000
H            1.53047500000000       -0.22618800000000       -4.03069600000000
H            2.20858300000000       -0.52646100000000       -2.65135100000000
O           -3.26055600000000       -2.17869000000000       -1.33690100000000
H           -2.68253000000000       -2.35661900000000       -0.55278400000000
H           -3.18319300000000       -2.99478300000000       -1.89243800000000
O           -0.63748000000000        2.77713000000000       -3.65693600000000
H            0.03343300000000        2.10739100000000       -3.94318300000000
H           -0.33596300000000        3.06164400000000       -2.75762900000000
O           -3.20728700000000        0.73455100000000        1.67309800000000
H           -3.78384100000000        0.17202000000000        2.24908000000000
H           -3.59839600000000        1.64175900000000        1.74107900000000
O            2.37984900000000        2.38878200000000       -1.86569600000000
H            1.39835400000000        2.49970500000000       -1.93622300000000
H            2.74791900000000        3.27476300000000       -2.11100400000000
O           -1.02591200000000       -0.68844800000000       -4.01725000000000
H           -0.50124700000000       -1.26969700000000       -4.62345700000000
H           -0.43582800000000        0.08810300000000       -3.84584000000000
O            1.38219000000000       -3.75353200000000       -0.65895800000000
H            0.73323900000000       -3.00569400000000       -0.64439600000000
H            2.10659200000000       -3.46533100000000       -0.04838800000000
O            2.10115500000000       -0.89705300000000        4.29537400000000
H            3.04336500000000       -0.74271100000000        4.55810800000000
H            2.15910500000000       -1.32871100000000        3.40603400000000
O            1.59788000000000        3.23958200000000       -0.08739900000000
H            2.51424400000000        3.60912200000000       -0.15318500000000
H            1.73087500000000        2.26438100000000        0.02172200000000
O            2.97059300000000        2.86254300000000        1.73030400000000
H            2.92451600000000        1.88226800000000        1.59783100000000
H            3.81506200000000        3.13304600000000        1.28949300000000
O           -2.29566000000000       -0.98998700000000        2.90844900000000
H           -2.18785100000000       -1.94221500000000        3.15795000000000
H           -2.64995500000000       -0.55788100000000        3.72598900000000
O           -2.06310200000000        2.61588200000000        5.16385000000000
H           -2.68646600000000        2.81823500000000        4.42150100000000
H           -2.35932700000000        1.73399000000000        5.50315600000000
O           -1.66218200000000        3.75800600000000       -0.93505000000000
H           -0.67700900000000        3.85634200000000       -0.95442300000000
H           -1.81873000000000        2.79480700000000       -1.10343000000000
O            2.73674000000000       -2.53684900000000       -2.87936400000000
H            1.96811600000000       -2.77966300000000       -2.30415200000000
H            2.32512800000000       -2.21299900000000       -3.71978700000000
O            0.42722900000000       -2.39767200000000       -5.98890500000000
H            1.12997500000000       -2.19164200000000       -5.32233900000000
H           -0.17971100000000       -3.02647700000000       -5.52324300000000
O            2.00118000000000        2.43874400000000        4.21993200000000
H            2.10412300000000        1.60814900000000        4.74920100000000
H            1.06795100000000        2.72501300000000        4.38650300000000
O           -2.26916800000000        0.87625600000000       -3.97263400000000
H           -3.23767500000000        0.93526100000000       -3.77483900000000
H           -2.22622200000000        0.62558900000000       -4.92967900000000
O           -1.17819700000000       -1.16539100000000        5.72604200000000
H           -1.42339900000000       -1.88801800000000        5.09493300000000
H           -1.83742900000000       -0.44778300000000        5.54978700000000
O            2.45564200000000        0.21785600000000       -5.74679200000000
H            2.65130600000000        0.98833800000000       -5.15629800000000
H            1.56434800000000        0.41823000000000       -6.12896800000000
O            3.14508600000000       -1.67966400000000       -1.11972500000000
H            2.22595600000000       -1.41739500000000       -0.86082900000000
H            3.73132900000000       -1.15888800000000       -0.51497400000000
O           -2.13354200000000        3.41323600000000        0.97757000000000
H           -1.90278700000000        2.45370700000000        1.05921900000000
H           -2.94641000000000        3.52103900000000        1.53276200000000
O            2.06760400000000        3.30339400000000       -4.07622400000000
H            2.01569600000000        2.34519500000000       -3.83174100000000
H            1.39039100000000        3.74280900000000       -3.50271800000000
O           -1.36352100000000        2.70505600000000       -5.51828600000000
H           -2.16354000000000        2.62422900000000       -4.94031700000000
H           -1.46659700000000        1.98213000000000       -6.18714100000000
O           -2.69813000000000       -2.28296000000000       -4.95841500000000
H           -2.37690700000000       -1.41162900000000       -5.30223000000000
H           -1.89707700000000       -2.69991900000000       -4.55212300000000
O            0.17506200000000       -0.38200200000000        4.45269900000000
H            0.61399900000000        0.43718700000000        4.11083100000000
H           -0.66361300000000       -0.45040500000000        3.93062900000000
O            0.69369800000000       -2.31305400000000        4.40776600000000
H            1.47199500000000       -2.92519000000000        4.39536200000000
H            0.54387600000000       -2.12164300000000        5.36772900000000
O            1.06195100000000        2.90682700000000       -5.75810100000000
H            0.50577500000000        2.09752100000000       -5.88578900000000
H            0.47452500000000        3.53706600000000       -5.26989800000000
O           -2.50852700000000        2.61431700000000       -2.97092700000000
H           -2.29729000000000        3.57751000000000       -2.88010200000000
H           -3.30737800000000        2.48071800000000       -2.40118900000000
O           -1.13071600000000       -3.82130200000000        0.25479400000000
H           -1.44233600000000       -3.08371400000000        0.83743300000000
H           -1.95741600000000       -4.17805200000000       -0.15740600000000
O           -3.36030100000000       -1.04419500000000       -3.53514000000000
H           -2.60233000000000       -1.51401200000000       -3.10460200000000
H           -3.88417300000000       -0.67476500000000       -2.78036000000000
O           -3.31479600000000        1.59994000000000       -0.52604800000000
H           -3.52412400000000        2.47371500000000       -0.10974200000000
H           -3.98896900000000        0.97880200000000       -0.15149200000000
O            0.64601300000000        2.75414100000000        1.62857400000000
H            1.14533000000000        2.41305700000000        2.41276500000000
H           -0.22742800000000        3.04131300000000        1.99633100000000
O           -0.57355700000000        4.65990100000000        0.87397000000000
H           -0.53327300000000        5.10090100000000        1.75969400000000
H            0.36035800000000        4.67782300000000        0.54519100000000
O           -1.54818900000000        1.33099600000000        3.72054600000000
H           -0.73956700000000        1.88685700000000        3.85381100000000
H           -1.97978900000000        1.71023400000000        2.91400200000000
O            3.25892300000000        0.63708200000000        3.12666500000000
H            2.27512800000000        0.62856500000000        3.01403000000000
H            3.58243700000000       -0.08986300000000        2.53717300000000
O           -1.09757600000000        3.85317400000000        3.78633800000000
H           -0.23584500000000        4.28611900000000        3.56141900000000
H           -1.66771800000000        4.00760900000000        2.99154200000000
166
 energy: -277.319346992799 gnorm: 0.393821695533 xtb: 6.7.1 (edcfbbe)
N            0.05922801267090       -0.93562471190891        1.47030690629691
C            0.21038478689843        0.50273926179563        1.25340285679316
C           -0.41691105313129        1.02394338806708       -0.04905528777472
C            0.23747328748774        0.51043409944400       -1.34165013771823
C           -0.11081426634481       -0.91484799794655       -1.75200818086897
O            0.44625116154138       -1.47256869389991       -2.79699798188940
O           -0.89939456012710       -1.58846656083812       -1.09140304143465
H            0.41860867807886       -1.16752244848438        2.41589862551793
H           -0.94560567286077       -1.18795398124389        1.42751279279204
H           -0.27907003302350        1.02551875430660        2.08953736614534
H            1.28110117121382        0.76278224531587        1.27238333208834
H           -0.26358568962601        2.11314926352704       -0.03912290404906
H           -1.49918792111112        0.84375601619210       -0.06649902495271
H            1.32584888275400        0.61551621477426       -1.26085430212666
H           -0.09926735931482        1.14691571227569       -2.17807368070837
H            0.60645817454561       -1.46508570653072        0.77413976176093
O           -2.10363307763356       -0.02299342828685       -1.83913696228879
H           -2.13355332137167        0.93173526020748       -1.98599838344692
H           -2.77758414973469       -0.24042434273001       -1.17335462816567
O           -0.71437846246483       -0.38686785467081       -6.44714831821296
H           -0.41444264833138        0.31615145156848       -5.83493827312053
H            0.08340661360569       -0.66834564186546       -6.93502461980201
O           -0.47574211133612        1.10839272330081        5.71378423786537
H           -0.84815068624888        0.97275486438396        6.58958826839518
H            0.41070197058602        1.48291536802121        5.82184100957685
O           -0.32996331733543        5.07704623666548       -2.85805822725986
H           -1.17977589652694        5.16312988169483       -2.37891680805692
H           -0.57160769443238        4.77610562794231       -3.75740338811449
O            0.34654945841082       -4.15926534260230       -3.48336867235008
H            0.60538803085677       -3.23234893555142       -3.68475156462160
H            0.91292951671083       -4.42337539875835       -2.73242087142540
O            1.33448694907118        4.60403877827425        2.34458744458890
H            2.02759241371550        4.62433094943013        1.65428531076902
H            1.76119148313216        4.18734177594600        3.11720249896428
O            3.31417940898350        0.77714019450468       -0.01445158866929
H            3.95666311878361        0.45970733226787        0.64548104533621
H            3.61755415578350        1.67131593260323       -0.27068443429409
O            2.55599178599502       -1.85721795792693        1.09448678260459
H            2.51047816904066       -0.87911764779710        1.04490970674079
H            3.14511627495733       -2.07276563602792        1.83259766363299
O            1.93795861972624        5.01785089781515       -1.48637801946925
H            1.12882252895705        4.46915108530008       -1.60494226534775
H            1.81738379926371        5.43230446534595       -0.61133459056533
O           -0.95382606349786       -3.47811979933278        2.84272540648653
H           -1.82990219112139       -3.84778291708902        2.65073955553060
H           -0.91086469450163       -3.34307872387996        3.81015518902162
O            3.60697350559041        1.17193295678311       -2.98850288841624
H            3.73918914017847        0.40324450887391       -3.57136804933817
H            3.58663203920286        0.80194301459999       -2.07523937610464
O           -1.41305605417452       -3.63977333839633       -2.38867159569507
H           -0.74090869765289       -3.88000610826171       -1.70937762286877
H           -1.08793516371779       -2.76543990590465       -2.71523462234368
O           -2.91384717093207       -1.16896205032025        0.96255228940703
H           -3.10641632453087       -2.02995527626710        1.36789366791576
H           -3.70518301470349       -0.91355451417497        0.46486223498301
O            1.27688606698435       -3.87304748536639        1.97073158828390
H            1.25875340555413       -2.99536429219718        2.40503899601158
H            0.61608485479647       -3.80149010703751        1.24881101484427
O            1.75766220388350        0.19033236490436       -3.19407094810233
H            1.52896220945136       -0.23077025882628       -4.03374758081995
H            2.19893271644856       -0.51655562642474       -2.66653691759420
O           -3.29305170438208       -2.20802525870159       -1.31816266018661
H           -2.67884977383574       -2.35249266680749       -0.56571598301129
H           -3.17887599211308       -2.98905918411135       -1.89144125400144
O           -0.58646899701797        2.77838794309169       -3.64286105998893
H            0.04277366631730        2.10477743549935       -3.93554478842443
H           -0.32649335845498        3.05421333716283       -2.74802791117280
O           -3.22689237962167        0.76680491241548        1.69486586056442
H           -3.77995187739022        0.18562659280230        2.24811535751626
H           -3.60632201091749        1.65367523926868        1.75166973783606
O            2.37933348086958        2.40260369247936       -1.87115594876816
H            1.40897710451412        2.49739123527786       -1.93613647768981
H            2.74652432953084        3.27126805314212       -2.11239083506080
O           -1.01817980429633       -0.69251546434057       -4.05622351852712
H           -0.49270860713143       -1.27358663923222       -4.62667024023452
H           -0.44216020221019        0.07488713685738       -3.84706731948545
O            1.38400270561450       -3.74755213693835       -0.66528463324237
H            0.73409845029796       -3.01235830431824       -0.64760413190319
H            2.10089855942400       -3.46750693063893       -0.05534224511045
O            2.15746694313146       -0.90163991802582        4.30033832115385
H            3.06852564448057       -0.74250867345799        4.55968447127817
H            2.16998190318848       -1.32640769208779        3.41623729906736
O            1.60083986715533        3.25026972083640       -0.08333823953992
H            2.50320771787129        3.60637318693602       -0.15407249952846
H            1.72354182198906        2.28194955666791        0.01961885601358
O            3.00963552445697        2.85932186459074        1.74513514525539
H            2.93013870680486        1.89257510935813        1.60088864086038
H            3.82134256978721        3.13115992502915        1.29479866036999
O           -2.28411966661002       -0.99918794537675        2.95548789777350
H           -2.18249857361678       -1.94219482053656        3.16744646712981
H           -2.64496192129906       -0.55866972605650        3.73678709474780
O           -2.12597310159854        2.65296544717970        5.22706210081010
H           -2.68768977465444        2.82051099927387        4.44039507776325
H           -2.36485994466857        1.74616923342540        5.50746820759785
O           -1.65005236797582        3.76633250423032       -0.98796249886248
H           -0.68258115095810        3.85387997371685       -0.95055894391051
H           -1.81373787152496        2.80452400919683       -1.10312177609831
O            2.73073000561535       -2.56566164722975       -2.91789420892568
H            1.97663320532131       -2.77956053724369       -2.31623095911566
H            2.32284829959925       -2.21613780363824       -3.72418346149832
O            0.43810431524563       -2.41633453660355       -5.98080774272780
H            1.12803563032135       -2.19580028531112       -5.32712900836378
H           -0.17321366612984       -3.02767951642407       -5.52728089170668
O            1.99027161067873        2.44010210881506        4.23247588026307
H            2.10565566772692        1.61536702732153        4.74518642558687
H            1.06927463426534        2.72391243372111        4.39158180154620
O           -2.29735271129967        0.90361625530444       -4.01045604766481
H           -3.23917985197835        0.93294778536452       -3.78526895802214
H           -2.23875161101475        0.62123584207967       -4.93312004534206
O           -1.23235106953296       -1.19912403097103        5.76739819033298
H           -1.42652157810686       -1.88548446082288        5.10090290635345
H           -1.83198975598395       -0.45643796844141        5.55172125687956
O            2.45073366910099        0.21979022628720       -5.74900630590301
H            2.65054111516165        0.98327697671062       -5.16644783549758
H            1.57374529264207        0.41974618212500       -6.12944872098692
O            3.15792103132034       -1.65858419375503       -1.10849913225983
H            2.23907227592853       -1.41426825208077       -0.86545092859399
H            3.73420988842930       -1.15465020520634       -0.51307071282429
O           -2.17321073993340        3.39312046002860        1.02527476344049
H           -1.90881941726865        2.45031713560583        1.06488479156862
H           -2.96600315430235        3.51283323339540        1.55408905092772
O            2.10161091610643        3.31915484661823       -4.03602433785997
H            2.02364194734444        2.35969428768544       -3.82758060670846
H            1.39801975642025        3.74617165916735       -3.50674839640054
O           -1.39707377371350        2.71255733958555       -5.56472259951733
H           -2.15658257174884        2.62144274211097       -4.94649235933457
H           -1.47715722494708        1.98249228949889       -6.19551405107174
O           -2.67874470285184       -2.32103630897296       -5.01552976697575
H           -2.37950549393157       -1.42723674587114       -5.29926534306131
H           -1.90507658797898       -2.70070409122248       -4.55468467411443
O            0.17943891844476       -0.36555108479708        4.39227488773278
H            0.61107396601613        0.44531974814344        4.09416833062540
H           -0.66422260431263       -0.43704308826947        3.91620763286716
O            0.67047961845586       -2.39624783907855        4.42254733120480
H            1.46936772274056       -2.94402023703708        4.40252000749087
H            0.54701467344057       -2.12763376613688        5.35744690271374
O            1.03984821399594        2.90373612974573       -5.81337134754710
H            0.50077834018904        2.10095598826228       -5.89460289896587
H            0.48161420658699        3.52320458772916       -5.28760653189446
O           -2.55263634662489        2.64865608176688       -2.95760800689235
H           -2.30938676569636        3.58550097454574       -2.86889931362422
H           -3.32284955565905        2.48935876474058       -2.39309492413343
O           -1.14251892669248       -3.82712478360347        0.26321849964417
H           -1.43821969254780       -3.08548086345875        0.83061441361246
H           -1.95013030644186       -4.17534873511279       -0.15561127855083
O           -3.40897461950643       -1.06024621645220       -3.51749698915562
H           -2.62339786927970       -1.49458668769565       -3.10777089527308
H           -3.89088277024326       -0.67277554913084       -2.77195016695775
O           -3.34632135539997        1.61208639092766       -0.53806204711100
H           -3.52344771385763        2.47336500860657       -0.11382767747098
H           -3.98705725271323        0.98591183270484       -0.15527794516796
O            0.60909968829691        2.70492919661643        1.66013751750571
H            1.13886421246651        2.41707755297645        2.42262169028775
H           -0.23201752873496        3.03788632324498        2.00364027676679
O           -0.55983696322135        4.71239260657080        0.86631805845856
H           -0.52585537149326        5.10863839005096        1.75319645122816
H            0.36031275440017        4.67946057414384        0.54930461609685
O           -1.52649559814678        1.29901715054599        3.66225314228551
H           -0.75715481524788        1.88194210810032        3.84812510399596
H           -1.97928978664581        1.70327607475330        2.90484965910971
O            3.27477152097323        0.65093795535066        3.09372650442587
H            2.29048762240735        0.63066660092776        3.01487158726307
H            3.58549637337532       -0.08655536343912        2.53873638524999
O           -1.08614027711325        3.87767615017907        3.77129606272836
H           -0.23500230572132        4.29283811868063        3.55481952617444
H           -1.65931597122278        4.01174897387694        2.98964743752903
166
 energy: -277.550532896874 gnorm: 0.248227156792 xtb: 6.7.1 (edcfbbe)
N            0.05919235768470       -0.94830609490879        1.47047039129770
C            0.20992981079980        0.48973119646584        1.24767116566296
C           -0.41328744913672        1.01638890079216       -0.04442852513891
C            0.24108570905126        0.50669737676316       -1.33117368244397
C           -0.09754309226128       -0.93672034994921       -1.73850289268172
O            0.44586718341846       -1.51724681105681       -2.73181715936353
O           -0.85765330788803       -1.61314733822338       -1.02898404089250
H            0.40434522426808       -1.16922165622353        2.41765182947880
H           -0.94111132510352       -1.18198748908228        1.42120778978893
H           -0.28170101740889        0.99554665509169        2.07705454948548
H            1.27119133023390        0.74728100955929        1.26277051566690
H           -0.26297519163480        2.09616670643996       -0.03914883076158
H           -1.48190455755759        0.82990800977262       -0.05806252672559
H            1.31865729402542        0.61061151181273       -1.25624790360300
H           -0.09521920736841        1.13133488731976       -2.16484222618288
H            0.59084346217368       -1.47257256698208        0.77527098542362
O           -2.12503553536184       -0.00010677758784       -1.83800982057806
H           -2.14409401872523        0.93787175377909       -1.99725662297220
H           -2.77163159304830       -0.24238446374141       -1.17578490386930
O           -0.71693753612539       -0.34952665948145       -6.48607220684215
H           -0.41913626719251        0.31128615695347       -5.83903494127867
H            0.07429276223950       -0.67072340568512       -6.93727318811979
O           -0.46604890269192        1.13934561095884        5.76397332672183
H           -0.84014236521631        0.97857873414388        6.61372687121174
H            0.41644299469334        1.48696632413634        5.84115296504796
O           -0.33721152723076        5.10491373621137       -2.86879631128948
H           -1.17136750768263        5.16390259297496       -2.37613021113253
H           -0.57173065409640        4.78101370827752       -3.75030469155732
O            0.39320285176682       -4.18300012122436       -3.52166803560241
H            0.59943096638376       -3.23567537880031       -3.66752805084311
H            0.91121283096174       -4.42644640977549       -2.73989414843440
O            1.36352406542523        4.66628710200752        2.38176971576446
H            2.01974898557842        4.61935473484194        1.66697046344306
H            1.77325386223285        4.18893435724145        3.11578316086140
O            3.32626214844497        0.77976849517290        0.00310810688273
H            3.96836221689194        0.46841007196653        0.64577026564194
H            3.61245031033221        1.65974214495769       -0.28070540397483
O            2.55444176257417       -1.84708016058830        1.13370142984516
H            2.51128133515293       -0.88046702916262        1.04813930132372
H            3.15149236782943       -2.07791659887634        1.83744217485259
O            1.93888667565286        5.05185579900899       -1.49606733359408
H            1.14165143616762        4.49451711436063       -1.60883607781248
H            1.81825892228636        5.44256819848532       -0.62378527029205
O           -0.98813275491591       -3.46990544624805        2.84818627539358
H           -1.83594724515059       -3.85971159290324        2.65507309753214
H           -0.89877975258994       -3.34884361715089        3.80479130180655
O            3.70291733438446        1.16248744642018       -3.00077110030474
H            3.76092044713158        0.39560909696377       -3.57523821643149
H            3.59454014008202        0.80003314166542       -2.09261342750654