34
 energy: -56.701709636504 gnorm: 0.000304722033 xtb: 6.7.1 (edcfbbe)
C           -0.04485836868061       -0.44254602078612        0.36307509297596
C           -0.34316680044119        0.22490837341453        1.72786832951095
O           -0.80203786549701       -0.52600112348864        2.62665381022537
O           -0.10133952472962        1.43746454691187        1.86313162682635
C            0.14919629152759        0.57457698739736       -0.74699415726458
N            0.56148534493554       -0.08317483279590       -1.99978096627617
H            0.86461431761022       -1.02944560188035        0.50720021477856
H           -0.86194907825293       -1.13193442946659        0.15314323433092
H           -0.77961351385052        1.12336851053732       -0.90139060621083
H            0.90873586758275        1.28946265700613       -0.42962579298441
H           -0.17816256770735       -0.73239808519044       -2.32598024593762
H            1.42625390258697       -0.63255222197645       -1.83559122378753
H            0.75931546196387        0.62494177909696       -2.74231174497567
O            0.32534412860955       -0.91121558116944        8.03230637992990
H            1.01687281573342       -1.38267256724497        7.53860470696013
H           -0.20977081857778       -0.46037544996109        7.37153248826198
O            0.02349175474308        1.30020700071223       -6.39231883690662
H            0.47006363354511        0.72050925702801       -7.01674309823196
H           -0.91905548466953        1.11491848942474       -6.45063171710436
O            1.16417768958869        1.80197151502657       -3.90534088208393
H            0.80268569234593        1.63116720941160       -4.79363462823218
H            1.05312701138152        2.74114107548569       -3.73963615064493
O           -1.44459814795081       -1.88689635744153       -2.81770064988375
H           -2.37498859288578       -1.65831455871184       -2.89405720902497
H           -1.39286293714422       -2.79261393292214       -2.50042296803778
O           -1.63125291750195       -3.02264465729523        1.98311153055173
H           -1.31725905597125       -2.12516310806037        2.23779671294595
H           -2.07809268821089       -3.36532161312236        2.76236133415201
O            2.93167188150859       -1.50745554701546       -1.51170489092528
H            3.06627454723139       -2.40114069961351       -1.84080416123895
H            3.75800701769959       -1.02852720324019       -1.62375676505970
O            2.15485119336515       -2.17506318310168        6.22874404653573
H            2.62814211028317       -1.59226714751399        5.62625952007680
H            1.78938069984563       -2.89059947950170        5.69805966676463
