
                                 *****************
                                 * O   R   C   A *
                                 *****************

                                            #,                                       
                                            ###                                      
                                            ####                                     
                                            #####                                    
                                            ######                                   
                                           ########,                                 
                                     ,,################,,,,,                         
                               ,,#################################,,                 
                          ,,##########################################,,             
                       ,#########################################, ''#####,          
                    ,#############################################,,   '####,        
                  ,##################################################,,,,####,       
                ,###########''''           ''''###############################       
              ,#####''   ,,,,##########,,,,          '''####'''          '####       
            ,##' ,,,,###########################,,,                        '##       
           ' ,,###''''                  '''############,,,                           
         ,,##''                                '''############,,,,        ,,,,,,###''
      ,#''                                            '''#######################'''  
     '                                                          ''''####''''         
             ,#######,   #######,   ,#######,      ##                                
            ,#'     '#,  ##    ##  ,#'     '#,    #''#        ,####,   ,####,        
            ##       ##  ##   ,#'  ##            #'  '#       #'       #'  '#        
            ##       ##  #######   ##           ,######,      #####,   #    #        
            '#,     ,#'  ##    ##  '#,     ,#' ,#      #,     #,   #   #,  ,#        
             '#######'   ##     ##  '#######'  #'      '#     '####' # '####'        



                #########################################################
                #                        -***-                          #
                #          Department of theory and spectroscopy        #
                #                                                       #
                #                      Frank Neese                      #
                #                                                       #
                #     Directorship, Architecture, Infrastructure        #
                #                    SHARK, DRIVERS                     #
                #        Core code/Algorithms in most modules           #
                #                                                       #
                #        Max Planck Institute fuer Kohlenforschung      #
                #                Kaiser Wilhelm Platz 1                 #
                #                 D-45470 Muelheim/Ruhr                 #
                #                      Germany                          #
                #                                                       #
                #                  All rights reserved                  #
                #                        -***-                          #
                #########################################################


                         Program Version 6.0.1  -  RELEASE   -


 With contributions from (in alphabetic order):
[Max-Planck-Institut fuer Kohlenforschung]                               
  Daniel Aravena         : Magnetic Suceptibility                        
  Michael Atanasov       : Ab Initio Ligand Field Theory (pilot matlab implementation)
  Alexander A. Auer      : GIAO ZORA, VPT2 properties, NMR spectrum      
  Ute Becker             : All parallelization in ORCA, NUMFREQ, NUMCALC 
  Giovanni Bistoni       : ED, misc. LED, open-shell LED, HFLD           
  Martin Brehm           : Molecular dynamics                            
  Dmytro Bykov           : pre 5.0 version of the SCF Hessian            
  Marcos Casanova-Páez   : Triplet and SCS-CIS(D). UHF-(DLPNO)-IP/EA/STEOM-CCSD. UHF-CVS-IP/STEOM-CCSD   
  Vijay G. Chilkuri      : MRCI spin determinant printing, contributions to CSF-ICE 
  Pauline Colinet        : FMM embedding                                 
  Dipayan Datta          : RHF DLPNO-CCSD density                        
  Achintya Kumar Dutta   : EOM-CC, STEOM-CC                              
  Nicolas Foglia         : Exact transition moments, OPA infrastructure, MCD improvements    
  Dmitry Ganyushin       : Spin-Orbit,Spin-Spin,Magnetic field MRCI      
  Miquel Garcia-Rates    : C-PCM and meta-GGA Hessian, CCSD/C-PCM, Gaussian charge scheme 
  Tiago L. C. Gouveia    : GS-ROHF, GS-ROCIS                             
  Yang Guo               : DLPNO-NEVPT2, F12-NEVPT2, CIM, IAO-localization        
  Andreas Hansen         : Spin unrestricted coupled pair/coupled cluster methods 
  Ingolf Harden          : AUTO-CI MPn and infrastructure                
  Benjamin Helmich-Paris : MC-RPA, TRAH-(SCF,CASSCF), AVAS, COSX integrals, SCF dyn. polar. 
  Lee Huntington         : MR-EOM, pCC                                   
  Robert Izsak           : Overlap fitted RIJCOSX, COSX-SCS-MP3, EOM     
  Riya Kayal             : Wick's Theorem for AUTO-CI, AUTO-CI UHF-CCSDT 
  Emily Kempfer          : AUTO-CI, RHF CISDT and CCSDT                  
  Christian Kollmar      : KDIIS, OOCD, Brueckner-CCSD(T), CCSD density, CASPT2, CASPT2-K, improved NEVPT2 
  Axel Koslowski         : Symmetry handling                             
  Simone Kossmann        : meta-GGA functionals, TD-DFT gradient, OOMP2, (MP2 Hessian; deprecated post 5.0) 
  Lucas Lang             : DCDCAS                                        
  Marvin Lechner         : AUTO-CI (C++ implementation), FIC-MRCC        
  Spencer Leger          : CASSCF response                               
  Dagmar Lenk            : GEPOL surface, SMD, ORCA-2-JSON               
  Dimitrios Liakos       : Extrapolation schemes; Compound Job, initial MDCI parallelization 
  Dimitrios Manganas     : Further ROCIS development; embedding schemes. LFT, Crystal Embedding 
  Dimitrios Pantazis     : SARC Basis sets                               
  Anastasios Papadopoulos: AUTO-CI, single reference methods and gradients 
  Taras Petrenko         : pre 6.0 DFT Hessian and TD-DFT gradient, (ASA, deprecated), ECA, 1-Electron XAS/XES, NRVS 
  Peter Pinski           : DLPNO-MP2, DLPNO-MP2 Gradient                 
  Christoph Reimann      : Effective Core Potentials                     
  Marius Retegan         : Local ZFS, SOC                                
  Christoph Riplinger    : Optimizer, TS searches, QM/MM, DLPNO-CCSD(T), (RO)-DLPNO pert. Triples 
  Michael Roemelt        : Original ROCIS implementation                 
  Masaaki Saitow         : Open-shell DLPNO-CCSD energy and density      
  Barbara Sandhoefer     : DKH picture change effects                    
  Kantharuban Sivalingam : CASSCF convergence/infrastructure, NEVPT2 and variants, FIC-MRCI 
  Bernardo de Souza      : ESD, SOC TD-DFT                               
  Georgi L. Stoychev     : AutoAux, RI-MP2 NMR, DLPNO-MP2 response, X2C  
  Van Anh Tran           : RI-MP2 g-tensors                              
  Willem Van den Heuvel  : Paramagnetic NMR                              
  Zikuan Wang            : NOTCH, Electric field optimization            
  Frank Wennmohs         : Technical directorship and infrastructure     
  Hang Xu                : AUTO-CI-Response properties                   
                                                                         
[FACCTs GmbH]                                                            
  Markus Bursch, Miquel Garcia-Rates, Christoph Riplinger, Bernardo de Souza, Georgi L. Stoychev 
                                                                 
  APM, Basis sets (HGBS, AHGBS, def-TZVP (Ac-Lr), def2-XVPD (La-Lu)), CI-OPT, improved COSX, DLPNO-Multilevel,           
  DOCKER, DRACO, updates on ESD, GOAT, IRC, LR-CPCM, MBIS, meta-GGA TD-DFT gradient, ML-optimized integration grids, 
  MM, NACMEs, nearIR, NEB, NEB-TS, NL-DFT gradient (VV10), 2- and 3-layer-ONIOM, interface openCOSMO-RS, QMMM,   
  Crystal-QMMM, SF, symmetry and pop. for TD-DFT, r2SCAN hybrids, SOLVATOR                                   
                                                                         
[Other institutions]                                                     
  V. Asgeirsson          : NEB                                           
  Christoph Bannwarth    : sTDA-DFT, sTD-DFT, PBEh-3c, B97-3c, D3        
  Sebastian Ehlert       : rSCAN, r2SCAN, r2SCAN-3c, D4, dhf basis sets  
  Marvin Friede          : D4 for Fr, Ra, Ac-Lr                          
  Lars Goerigk           : TD-DFT with DH, B97 family of functionals     
  Stefan Grimme          : VdW corrections, initial TS optimization, DFT functionals, gCP, sTDA/sTD-DF 
  Waldemar Hujo          : DFT-NL                                        
  H. Jonsson             : NEB                                           
  Holger Kruse           : gCP                                           
  Marcel Mueller         : wB97X-3c, vDZP basis set                      
  Hagen Neugebauer       : wr2SCAN                                       
  Tobias Risthaus        : range-separated hybrid DFT                    
  Lukas Wittmann         : regularized MP2, r2SCAN double-hybrids, wr2SCAN        
                                                                         
We gratefully acknowledge several colleagues who have allowed us to      
interface, adapt or use parts of their codes:                            
  Ed Valeev, F. Pavosevic, A. Kumar             : LibInt (2-el integral package), F12 methods 
  Garnet Chan, S. Sharma, J. Yang, R. Olivares  : DMRG                   
  Ulf Ekstrom                                   : XCFun DFT Library      
  Mihaly Kallay                                 : mrcc  (arbitrary order and MRCC methods)
  Frank Weinhold                                : gennbo (NPA and NBO analysis)           
  Simon Mueller                                 : openCOSMO-RS                            
  Christopher J. Cramer and Donald G. Truhlar   : smd solvation model                     
  S Lehtola, MJT Oliveira, MAL Marques          : LibXC Library                           
  Liviu Ungur et al                             : ANISO software                          


 Your calculation uses the libint2 library for the computation of 2-el integrals
 For citations please refer to: http://libint.valeyev.net

 Your ORCA version has been built with support for libXC version: 6.2.2
 For citations please refer to: https://libxc.gitlab.io

 This ORCA versions uses:
   CBLAS   interface :  Fast vector & matrix operations
   LAPACKE interface :  Fast linear algebra routines
   SCALAPACK package :  Parallel linear algebra routines
   Shared memory     :  Shared parallel matrices
   BLAS/LAPACK       :  OpenBLAS 0.3.27  USE64BITINT DYNAMIC_ARCH NO_AFFINITY SkylakeX SINGLE_THREADED
        Core in use  :  SkylakeX
   Copyright (c) 2011-2014, The OpenBLAS Project


NOTE: MaxCore=5000 MB was set to SCF,MP2,MDCI,CIPSI,MRCI and CIS
      => If you want to overwrite this, your respective input block should be placed after the MaxCore statement
Your calculation utilizes the atom-pairwise dispersion correction
based on EEQ partial charges (D4)


Warning: RI is on but no J-basis has been assigned. Assigning Def2/J (nothing to worry about!)
================================================================================

----- Orbital basis set information -----
Your calculation utilizes the basis: def2-TZVP
   F. Weigend and R. Ahlrichs, Phys. Chem. Chem. Phys. 7, 3297 (2005).

----- AuxJ basis set information -----
Your calculation utilizes the auxiliary basis: def2/J
   F. Weigend, Phys. Chem. Chem. Phys. 8, 1057 (2006).

================================================================================
                                        WARNINGS
                       Please study these warnings very carefully!
================================================================================


WARNING: Geometry Optimization
  ===> : Switching off AutoStart
         For restart on a previous wavefunction, please use MOREAD

================================================================================
                                       INPUT FILE
================================================================================
NAME = 02_Aminobutyric-acid_zwitterion.inp
|  1> ! Opt B3LYP D4 def2-TZVP TightSCF TightOpt CPCM(water)
|  2> 
|  3> %maxcore 5000
|  4> 
|  5> %pal
|  6> nprocs 10
|  7> end
|  8> 
|  9> %geom
| 10>     MaxIter 500
| 11> end
| 12> 
| 13> * xyz 0 1
| 14> N          1.42016       -0.14832        0.72068
| 15> C          2.01242       -0.16501       -0.61625
| 16> C          1.38617        0.92425       -1.50434
| 17> C          1.94559        0.92371       -2.93645
| 18> C          3.39110        1.33877       -3.04629
| 19> O          4.10260        1.71300       -1.96508
| 20> O          3.92248        1.36147       -4.14459
| 21> H          1.59599        0.77559        1.17798
| 22> H          0.39081       -0.32374        0.66124
| 23> H          1.83821       -1.16084       -1.08051
| 24> H          3.10778       -0.01712       -0.52449
| 25> H          1.52629        1.92828       -1.04958
| 26> H          0.29432        0.72528       -1.56538
| 27> H          1.81635       -0.09007       -3.37379
| 28> H          1.35018        1.64005       -3.54254
| 29> H          1.85712       -0.90014        1.30078
| 30> O         -0.46909        1.53371        3.16674
| 31> H         -0.83026        1.53664        2.24469
| 32> O          7.18539        2.11010       -2.99640
| 33> H          6.86056        1.17632       -2.93983
| 34> H         -0.16481        0.60250        3.31135
| 35> H          6.62625        2.52531       -3.70035
| 36> O          4.57996       -1.98921       -2.27674
| 37> H          5.08176       -1.13615       -2.24707
| 38> H          3.89241       -1.84877       -2.97530
| 39> O          4.66462       -0.14973        2.03676
| 40> H          5.07464       -0.52814        1.21868
| 41> H          4.31241        0.73125        1.75311
| 42> O         -1.42422        0.42260       -3.98882
| 43> H         -0.68920        0.09068       -4.56332
| 44> H         -1.46897       -0.22776       -3.24349
| 45> O          3.06315       -3.50507        0.73296
| 46> H          3.64416       -2.74814        0.46859
| 47> H          2.28272       -3.44263        0.12671
| 48> O          2.80092        4.04683        0.35780
| 49> H          3.67661        3.77685       -0.01716
| 50> H          2.54558        3.29878        0.95422
| 51> *
| 52> 
| 53>                          ****END OF INPUT****
================================================================================

                       *****************************
                       * Geometry Optimization Run *
                       *****************************

Geometry optimization settings:
Update method            Update   .... BFGS
Choice of coordinates    CoordSys .... (2022) Redundant Internals
Initial Hessian          InHess   .... Almloef's Model
Max. no of cycles        MaxIter  .... 500

Convergence Tolerances:
Energy Change            TolE     ....  1.0000e-06 Eh
Max. Gradient            TolMAXG  ....  1.0000e-04 Eh/bohr
RMS Gradient             TolRMSG  ....  3.0000e-05 Eh/bohr
Max. Displacement        TolMAXD  ....  1.0000e-03 bohr
RMS Displacement         TolRMSD  ....  6.0000e-04 bohr
Strict Convergence                .... False

------------------------------------------------------------------------------
                        ORCA OPTIMIZATION COORDINATE SETUP
------------------------------------------------------------------------------

The optimization will be done in redundant internal coordinates (2022)
Making redundant internal coordinates   ...  (2022 redundants) done
Evaluating the initial hessian          ...  (Almloef) done
Evaluating the coordinates              ...  done
Calculating the B-matrix                .... done
Calculating the G-matrix                .... done
Diagonalizing the G-matrix              .... done
The first mode is                       ....  869
The number of degrees of freedom        ....  105

    -----------------------------------------------------------------
                    Redundant Internal Coordinates


    -----------------------------------------------------------------
         Definition                    Initial Value    Approx d2E/dq
    -----------------------------------------------------------------
      1. B(C   1,N   0)                  1.4623         0.429007   
      2. B(C   2,C   1)                  1.5386         0.361918   
      3. B(C   3,C   2)                  1.5375         0.363429   
      4. B(C   4,C   3)                  1.5079         0.405132   
      5. B(O   5,C   4)                  1.3473         0.654567   
      6. B(O   6,C   4)                  1.2203         1.043792   
      7. B(H   7,N   0)                  1.0458         0.379416   
      8. B(H   8,N   0)                  1.0459         0.379271   
      9. B(H   9,C   1)                  1.1125         0.331583   
     10. B(H   9,N   0)                  2.1081         0.007659   
     11. B(H  10,N   0)                  2.1014         0.007852   
     12. B(H  10,C   1)                  1.1091         0.335698   
     13. B(H  11,C   2)                  1.1111         0.333256   
     14. B(H  12,C   2)                  1.1115         0.332742   
     15. B(H  13,C   3)                  1.1116         0.332595   
     16. B(H  14,C   3)                  1.1113         0.332990   
     17. B(H  15,N   0)                  1.0453         0.380060   
     18. B(O  16,N   0)                  3.5188         0.000201   
     19. B(O  16,H   7)                  2.9655         0.000328   
     20. B(O  16,H   8)                  3.2353         0.000122   
     21. B(H  17,H   7)                  2.7575         0.000151   
     22. B(H  17,N   0)                  3.1978         0.000140   
     23. B(H  17,O  16)                  0.9903         0.465241   
     24. B(H  17,H   8)                  2.7312         0.000166   
     25. B(O  18,O   6)                  3.5391         0.000187   
     26. B(O  18,O   5)                  3.2749         0.000493   
     27. B(H  19,O  18)                  0.9903         0.465214   
     28. B(H  19,O   6)                  3.1809         0.000149   
     29. B(H  19,O   5)                  2.9740         0.000318   
     30. B(H  19,C   4)                  3.4749         0.000056   
     31. B(H  20,O  16)                  0.9903         0.465222   
     32. B(H  20,N   0)                  3.1285         0.000180   
     33. B(H  20,H   8)                  2.8618         0.000103   
     34. B(H  20,H   7)                  2.7716         0.000143   
     35. B(H  20,H  15)                  3.2231         0.000027   
     36. B(H  21,C   4)                  3.5074         0.000050   
     37. B(H  21,O   6)                  2.9770         0.000315   
     38. B(H  21,O   5)                  3.1686         0.000156   
     39. B(H  21,O  18)                  0.9902         0.465281   
     40. B(O  22,C   1)                  3.5605         0.000193   
     41. B(O  22,H  13)                  3.5281         0.000042   
     42. B(O  22,H   9)                  3.1039         0.000197   
     43. B(O  22,H  10)                  3.0211         0.000268   
     44. B(H  23,H  19)                  2.9986         0.000062   
     45. B(H  23,H   9)                  3.4470         0.000012   
     46. B(H  23,O   6)                  3.3440         0.000082   
     47. B(H  23,O   5)                  3.0259         0.000263   
     48. B(H  23,O  22)                  0.9901         0.465443   
     49. B(H  23,C   4)                  3.1020         0.000222   
     50. B(H  23,H  10)                  2.8489         0.000108   
     51. B(H  24,O   6)                  3.4167         0.000063   
     52. B(H  24,C   1)                  3.4546         0.000061   
     53. B(H  24,C   3)                  3.3880         0.000078   
     54. B(H  24,C   4)                  3.2275         0.000140   
     55. B(H  24,H  10)                  3.1586         0.000035   
     56. B(H  24,O  22)                  0.9902         0.465408   
     57. B(H  24,H   9)                  2.8781         0.000097   
     58. B(H  24,H  13)                  2.7499         0.000155   
     59. B(O  25,H  10)                  3.0002         0.000289   
     60. B(O  25,H  15)                  2.9978         0.000292   
     61. B(O  25,H   7)                  3.3182         0.000090   
     62. B(H  26,H  10)                  2.6774         0.000202   
     63. B(H  26,O  25)                  0.9902         0.465295   
     64. B(H  26,H  23)                  3.5187         0.000009   
     65. B(H  26,H  15)                  3.2400         0.000026   
     66. B(H  27,N   0)                  3.1945         0.000142   
     67. B(H  27,H  15)                  2.9824         0.000066   
     68. B(H  27,H   7)                  2.7770         0.000140   
     69. B(H  27,H  10)                  2.6830         0.000198   
     70. B(H  27,O  25)                  0.9903         0.465235   
     71. B(H  27,C   1)                  3.4216         0.000069   
     72. B(O  28,H  13)                  3.3380         0.000084   
     73. B(O  28,H  14)                  3.0625         0.000230   
     74. B(O  28,H  12)                  2.9863         0.000304   
     75. B(H  29,H  14)                  2.7571         0.000151   
     76. B(H  29,O  28)                  0.9902         0.465373   
     77. B(H  29,H  12)                  3.2183         0.000028   
     78. B(H  29,C   3)                  3.2067         0.000151   
     79. B(H  29,H  13)                  2.7795         0.000139   
     80. B(H  30,H  12)                  2.6141         0.000255   
     81. B(H  30,O  28)                  0.9902         0.465363   
     82. B(H  30,H  14)                  3.3950         0.000014   
     83. B(H  30,H  13)                  3.2908         0.000021   
     84. B(O  31,H   9)                  3.2070         0.000135   
     85. B(O  31,H  15)                  2.9262         0.000379   
     86. B(H  32,O  25)                  3.2019         0.000138   
     87. B(H  32,H  26)                  2.7454         0.000158   
     88. B(H  32,O  31)                  0.9902         0.465432   
     89. B(H  32,H  24)                  3.5680         0.000008   
     90. B(H  32,C   1)                  3.2422         0.000133   
     91. B(H  32,H  23)                  3.4699         0.000011   
     92. B(H  32,H  10)                  2.9551         0.000073   
     93. B(H  32,H   9)                  2.8602         0.000103   
     94. B(H  32,H  15)                  2.7021         0.000185   
     95. B(H  32,O  22)                  2.9981         0.000291   
     96. B(H  33,O  31)                  0.9902         0.465344   
     97. B(H  33,C   1)                  3.3716         0.000082   
     98. B(H  33,H  15)                  2.8326         0.000114   
     99. B(H  33,H   9)                  2.6195         0.000250   
    100. B(O  34,H  11)                  2.8449         0.000511   
    101. B(H  35,O  34)                  0.9901         0.465510   
    102. B(H  35,H  11)                  3.0178         0.000058   
    103. B(H  35,O   5)                  2.8697         0.000467   
    104. B(H  36,H  27)                  3.2175         0.000028   
    105. B(H  36,O  34)                  0.9902         0.465357   
    106. B(H  36,H   7)                  2.7052         0.000183   
    107. B(H  36,H  11)                  2.6330         0.000238   
    108. A(C   1,N   0,H   7)          109.9847         0.329832   
    109. A(C   1,N   0,O  16)          149.1419         0.139263   
    110. A(H   8,N   0,O  16)           65.8744         0.131130   
    111. A(H   7,N   0,O  16)           50.5046         0.131134   
    112. A(O  16,N   0,H  27)           97.4596         0.096059   
    113. A(H  15,N   0,O  16)          100.5135         0.131150   
    114. A(H   7,N   0,H  27)           57.5334         0.122821   
    115. A(H   8,N   0,H  27)          162.8684         0.122818   
    116. A(H   7,N   0,H   8)          109.7859         0.290864   
    117. A(C   1,N   0,H  15)          109.2597         0.329924   
    118. A(C   1,N   0,H   8)          110.1656         0.329811   
    119. A(C   1,N   0,H  27)           86.0967         0.129346   
    120. A(H  15,N   0,H  27)           68.9125         0.122834   
    121. A(H   8,N   0,H  15)          108.8031         0.290942   
    122. A(H   7,N   0,H  15)          108.8118         0.290959   
    123. A(H  10,C   1,H  32)           65.2607         0.122184   
    124. A(H   9,C   1,H  32)           60.3474         0.122091   
    125. A(H   9,C   1,H  27)          128.9572         0.117507   
    126. A(C   2,C   1,H  10)          110.8137         0.318955   
    127. A(H  10,C   1,H  33)           91.8463         0.118799   
    128. A(C   2,C   1,H  32)          164.1541         0.128026   
    129. A(N   0,C   1,H  32)           84.6651         0.129224   
    130. A(H   9,C   1,H  33)           40.0317         0.118716   
    131. A(N   0,C   1,H  27)           68.6642         0.123652   
    132. A(C   2,C   1,H  33)          147.9973         0.124045   
    133. A(O  22,C   1,H  32)           52.0430         0.096028   
    134. A(N   0,C   1,O  22)          136.4086         0.139196   
    135. A(C   2,C   1,H   9)          109.2144         0.318314   
    136. A(H  27,C   1,H  33)           92.7604         0.093357   
    137. A(N   0,C   1,H  10)          108.8342         0.326012   
    138. A(N   0,C   1,H   9)          109.1675         0.325352   
    139. A(N   0,C   1,C   2)          110.7794         0.367742   
    140. A(O  22,C   1,H  33)           63.0570         0.095311   
    141. A(C   2,C   1,H  27)          119.1996         0.122620   
    142. A(H  27,C   1,H  32)           68.8192         0.093852   
    143. A(H  10,C   1,H  27)           40.8788         0.117587   
    144. A(N   0,C   1,H  33)           80.9153         0.125121   
    145. A(O  22,C   1,H  27)           88.4193         0.095054   
    146. A(H  10,C   1,O  22)           52.7509         0.130410   
    147. A(H  32,C   1,H  33)           27.3046         0.094057   
    148. A(H   9,C   1,H  10)          107.9718         0.283984   
    149. A(H   9,C   1,O  22)           57.2939         0.130295   
    150. A(C   2,C   1,O  22)          112.7701         0.137701   
    151. A(C   3,C   2,H  12)          107.8305         0.318712   
    152. A(C   1,C   2,C   3)          112.9103         0.359698   
    153. A(C   1,C   2,H  12)          107.7455         0.318495   
    154. A(C   3,C   2,H  11)          109.6133         0.318792   
    155. A(H  11,C   2,H  12)          107.9458         0.283816   
    156. A(C   1,C   2,H  11)          110.6193         0.318575   
    157. A(C   2,C   3,H  29)          100.0026         0.129235   
    158. A(H  14,C   3,H  29)           56.6696         0.123117   
    159. A(C   2,C   3,H  14)          108.2301         0.318751   
    160. A(H  13,C   3,H  14)          108.1193         0.283761   
    161. A(C   4,C   3,H  14)          107.2443         0.324469   
    162. A(C   2,C   3,H  13)          108.9337         0.318689   
    163. A(C   4,C   3,H  13)          109.5005         0.324406   
    164. A(C   2,C   3,C   4)          114.6166         0.366698   
    165. A(H  13,C   3,H  29)           57.8567         0.123107   
    166. A(C   4,C   3,H  29)          145.3054         0.130237   
    167. A(C   3,C   4,O   6)          119.2161         0.438696   
    168. A(O   5,C   4,O   6)          119.1523         0.475599   
    169. A(C   3,C   4,O   5)          121.6159         0.403645   
    170. A(C   4,O   5,O  18)          106.1450         0.156740   
    171. A(O  18,O   5,H  35)          105.4437         0.100325   
    172. A(C   4,O   5,H  35)          131.7652         0.147157   
    173. A(C   4,O   6,O  18)           96.5117         0.149436   
    174. A(N   0,H   7,H  36)          147.8724         0.117984   
    175. A(O  25,H   7,H  36)           87.5289         0.093381   
    176. A(N   0,H   7,O  25)           91.2775         0.119516   
    177. A(H  27,H   7,H  36)           71.8600         0.092920   
    178. A(N   0,H   7,H  27)          103.9411         0.116305   
    179. A(O  25,H   7,H  27)           15.7024         0.093127   
    180. A(C   1,H   9,O  31)          111.0107         0.121849   
    181. A(O  31,H   9,H  33)           15.8072         0.094161   
    182. A(C   1,H   9,H  33)          124.1155         0.119548   
    183. A(H  32,H   9,H  33)           32.8407         0.092929   
    184. A(C   1,H   9,H  32)           99.8969         0.114006   
    185. A(O  31,H   9,H  32)           17.6149         0.093225   
    186. A(H  26,H  10,H  27)           33.9746         0.093338   
    187. A(C   1,H  10,O  25)          125.2548         0.128119   
    188. A(O  25,H  10,H  26)           19.0117         0.094841   
    189. A(C   1,H  10,H  27)          123.4249         0.118056   
    190. A(O  25,H  10,H  27)           19.0317         0.094813   
    191. A(O  25,H  10,H  32)           65.0436         0.093636   
    192. A(H  27,H  10,H  32)           83.7426         0.092444   
    193. A(C   1,H  10,H  32)           94.8090         0.112174   
    194. A(H  26,H  10,H  32)           58.0932         0.092460   
    195. A(C   1,H  10,H  26)          138.9326         0.118193   
    196. A(C   2,H  11,H  36)          146.1682         0.119241   
    197. A(O  34,H  11,H  35)           19.1527         0.094007   
    198. A(H  35,H  11,H  36)           31.2335         0.092408   
    199. A(C   2,H  11,H  35)          141.5750         0.110960   
    200. A(O  34,H  11,H  36)           20.3557         0.095896   
    201. A(C   2,H  11,O  34)          158.7329         0.133437   
    202. A(H  29,H  12,H  30)           28.8355         0.091930   
    203. A(C   2,H  12,O  28)          128.9030         0.128495   
    204. A(O  28,H  12,H  30)           18.9020         0.095228   
    205. A(C   2,H  12,H  30)          139.7396         0.119708   
    206. A(O  28,H  12,H  29)           17.8631         0.092768   
    207. A(C   2,H  12,H  29)          112.7460         0.107581   
    208. A(C   3,H  13,H  29)          102.3493         0.115761   
    209. A(O  28,H  13,H  30)           17.1625         0.091648   
    210. A(O  28,H  13,H  29)           15.4262         0.093051   
    211. A(C   3,H  13,O  28)           92.5958         0.118478   
    212. A(H  29,H  13,H  30)           28.3231         0.091404   
    213. A(C   3,H  13,H  30)           97.9697         0.106493   
    214. A(O  28,H  14,H  29)           18.6552         0.094190   
    215. A(C   3,H  14,O  28)          107.9752         0.126078   
    216. A(O  28,H  14,H  30)           16.6318         0.092054   
    217. A(H  29,H  14,H  30)           27.0278         0.091246   
    218. A(C   3,H  14,H  30)           92.4201         0.105046   
    219. A(C   3,H  14,H  29)          103.6501         0.116270   
    220. A(O  25,H  15,O  31)           83.3670         0.097340   
    221. A(O  25,H  15,H  27)           19.0610         0.093541   
    222. A(O  25,H  15,H  26)           17.7225         0.092666   
    223. A(H  26,H  15,H  27)           28.7744         0.091119   
    224. A(H  26,H  15,O  31)           71.8203         0.092891   
    225. A(H  26,H  15,H  32)           54.1226         0.091675   
    226. A(O  31,H  15,H  32)           19.7496         0.095085   
    227. A(H  32,H  15,H  33)           32.7659         0.092753   
    228. A(N   0,H  15,H  33)          118.5776         0.115081   
    229. A(O  25,H  15,H  33)          100.7035         0.094144   
    230. A(O  25,H  15,H  32)           68.1261         0.094733   
    231. A(N   0,H  15,H  32)          126.6868         0.118072   
    232. A(N   0,H  15,O  25)          110.3460         0.128845   
    233. A(N   0,H  15,H  26)          108.5709         0.107587   
    234. A(H  27,H  15,O  31)          100.1996         0.093820   
    235. A(H  27,H  15,H  33)          115.4771         0.091973   
    236. A(H  27,H  15,H  32)           82.8970         0.092314   
    237. A(N   0,H  15,H  27)           91.9991         0.112028   
    238. A(H  26,H  15,H  33)           86.7522         0.091399   
    239. A(O  31,H  15,H  33)           19.7151         0.094459   
    240. A(N   0,H  15,O  31)          134.8186         0.131290   
    241. A(N   0,O  16,H  20)           59.1384         0.133124   
    242. A(N   0,O  16,H  17)           63.2547         0.133124   
    243. A(H  17,O  16,H  20)          104.5260         0.310403   
    244. A(O   5,O  18,H  19)           63.8257         0.143042   
    245. A(O   6,O  18,H  21)           48.5078         0.132384   
    246. A(H  19,O  18,H  21)          104.5232         0.310406   
    247. A(O   5,O  18,H  21)           75.1189         0.143044   
    248. A(O   5,O  18,O   6)           37.6876         0.099590   
    249. A(O   6,O  18,H  19)           61.0959         0.132383   
    250. A(C   1,O  22,H  24)           75.8550         0.133069   
    251. A(C   1,O  22,H  23)           84.8407         0.133070   
    252. A(H  23,O  22,H  24)          104.5277         0.310444   
    253. A(H  26,O  25,H  27)          104.5129         0.310410   
    254. A(H   7,O  25,H  32)           78.7443         0.094081   
    255. A(H   7,O  25,H  15)           30.7031         0.095020   
    256. A(H   7,O  25,H  27)           49.3720         0.120957   
    257. A(H   7,O  25,H  26)          106.0022         0.120958   
    258. A(H   7,O  25,H  10)           44.5078         0.095008   
    259. A(H  10,O  25,H  32)           56.7967         0.095618   
    260. A(H  15,O  25,H  32)           51.5486         0.095631   
    261. A(H  27,O  25,H  32)          117.9251         0.124200   
    262. A(H  26,O  25,H  32)           54.3547         0.124201   
    263. A(H  10,O  25,H  15)           46.8046         0.096842   
    264. A(H  10,O  25,H  27)           62.0689         0.130627   
    265. A(H  10,O  25,H  26)           61.7370         0.130628   
    266. A(H  15,O  25,H  27)           79.5883         0.130711   
    267. A(H  15,O  25,H  26)           95.1231         0.130712   
    268. A(H  15,H  26,H  32)           52.8900         0.091580   
    269. A(H  10,H  26,H  15)           46.2815         0.091730   
    270. A(H  15,H  26,O  25)           67.1544         0.108458   
    271. A(H  10,H  26,H  32)           66.0264         0.093119   
    272. A(O  25,H  26,H  32)          108.6012         0.118356   
    273. A(H  10,H  26,O  25)           99.2513         0.120065   
    274. A(C   1,H  27,H  36)           70.6073         0.091724   
    275. A(N   0,H  27,C   1)           25.2391         0.093866   
    276. A(C   1,H  27,H  15)           36.7054         0.092312   
    277. A(C   1,H  27,H  10)           15.6963         0.093248   
    278. A(C   1,H  27,O  25)          101.7943         0.119419   
    279. A(N   0,H  27,H  36)           69.0404         0.092172   
    280. A(H  15,H  27,H  36)           86.9486         0.091159   
    281. A(H   7,H  27,H  36)           53.0352         0.091561   
    282. A(H  10,H  27,H  36)           76.4233         0.091769   
    283. A(O  25,H  27,H  36)          167.5168         0.108826   
    284. A(C   1,H  27,H   7)           37.1767         0.092929   
    285. A(N   0,H  27,H  15)           19.0884         0.092856   
    286. A(N   0,H  27,H   7)           18.5256         0.093574   
    287. A(N   0,H  27,H  10)           40.7418         0.093946   
    288. A(N   0,H  27,O  25)           99.7670         0.124419   
    289. A(H   7,H  27,H  15)           34.1071         0.092113   
    290. A(H  10,H  27,H  15)           49.3860         0.092366   
    291. A(H  15,H  27,O  25)           81.3507         0.113106   
    292. A(H   7,H  27,H  10)           52.3711         0.092993   
    293. A(H   7,H  27,O  25)          114.9256         0.117595   
    294. A(H  10,H  27,O  25)           98.8994         0.119919   
    295. A(H  12,O  28,H  14)           47.1646         0.096518   
    296. A(H  14,O  28,H  30)          101.0904         0.128530   
    297. A(H  14,O  28,H  29)           62.9561         0.128531   
    298. A(H  12,O  28,H  30)           58.7845         0.131114   
    299. A(H  12,O  28,H  29)           94.4527         0.131114   
    300. A(H  13,O  28,H  14)           32.2976         0.094612   
    301. A(H  12,O  28,H  13)           46.1616         0.094979   
    302. A(H  13,O  28,H  30)           78.7151         0.120436   
    303. A(H  13,O  28,H  29)           48.3013         0.120436   
    304. A(H  29,O  28,H  30)          104.4833         0.310432   
    305. A(H  12,H  29,H  13)           48.5992         0.091553   
    306. A(H  12,H  29,H  14)           47.0205         0.091601   
    307. A(H  12,H  29,O  28)           67.6843         0.108813   
    308. A(C   3,H  29,H  13)           19.7940         0.093688   
    309. A(C   3,H  29,H  14)           19.6803         0.093776   
    310. A(C   3,H  29,O  28)          103.2079         0.125373   
    311. A(H  13,H  29,H  14)           37.9365         0.092747   
    312. A(H  13,H  29,O  28)          116.2726         0.117538   
    313. A(H  14,H  29,O  28)           98.3887         0.118074   
    314. A(C   3,H  29,H  12)           39.2024         0.092254   
    315. A(H  13,H  30,H  14)           31.1826         0.090441   
    316. A(H  12,H  30,H  14)           45.2385         0.091530   
    317. A(H  14,H  30,O  28)           62.2779         0.106107   
    318. A(H  12,H  30,O  28)          102.3135         0.121744   
    319. A(H  12,H  30,H  13)           48.4521         0.091759   
    320. A(H  13,H  30,O  28)           84.1224         0.107654   
    321. A(H   9,O  31,H  15)           45.6991         0.096009   
    322. A(H   9,O  31,H  33)           46.1040         0.124055   
    323. A(H   9,O  31,H  32)           60.9446         0.124056   
    324. A(H  15,O  31,H  33)           74.8014         0.133272   
    325. A(H  15,O  31,H  32)           67.2399         0.133274   
    326. A(H  32,O  31,H  33)          104.5250         0.310436   
    327. A(C   1,H  32,H  10)           19.9303         0.092933   
    328. A(C   1,H  32,H   9)           19.7557         0.093256   
    329. A(C   1,H  32,H  15)           39.2232         0.093854   
    330. A(C   1,H  32,O  31)          113.7705         0.124315   
    331. A(H   9,H  32,H  10)           35.9519         0.091972   
    332. A(H  10,H  32,H  15)           49.5629         0.092390   
    333. A(H  10,H  32,O  31)          133.6077         0.113662   
    334. A(O  25,H  32,H  26)           17.0441         0.093667   
    335. A(C   1,H  32,O  25)           71.1991         0.094614   
    336. A(H  10,H  32,O  25)           58.1596         0.092921   
    337. A(H   9,H  32,O  25)           90.9241         0.093242   
    338. A(H  15,H  32,O  25)           60.3253         0.093838   
    339. A(O  25,H  32,O  31)          132.5798         0.124204   
    340. A(H   9,H  32,H  15)           50.9252         0.092668   
    341. A(H   9,H  32,O  31)          101.4405         0.115686   
    342. A(H  15,H  32,O  31)           93.0105         0.119436   
    343. A(C   1,H  32,H  26)           73.1065         0.093682   
    344. A(H  10,H  32,H  26)           55.8804         0.092270   
    345. A(H   9,H  32,H  26)           91.6167         0.092538   
    346. A(H  15,H  32,H  26)           72.9875         0.093035   
    347. A(H  26,H  32,O  31)          148.3149         0.118358   
    348. A(C   1,H  33,H  15)           37.5091         0.092910   
    349. A(C   1,H  33,H   9)           15.8528         0.093669   
    350. A(C   1,H  33,O  31)          105.0343         0.120711   
    351. A(H   9,H  33,H  15)           51.9503         0.093020   
    352. A(H  15,H  33,O  31)           85.4835         0.116304   
    353. A(H   9,H  33,O  31)          118.0887         0.121599   
    354. A(H  35,O  34,H  36)          104.4879         0.310446   
    355. A(H  11,O  34,H  36)           67.6580         0.136367   
    356. A(H  11,O  34,H  35)           90.3357         0.136371   
    357. A(O   5,H  35,H  11)           55.4595         0.093905   
    358. A(H  11,H  35,O  34)           70.5116         0.112410   
    359. A(O   5,H  35,O  34)          125.7642         0.135404   
    360. A(H  11,H  36,O  34)           91.9862         0.121235   
    361. A(H   7,H  36,H  27)           55.1048         0.091718   
    362. A(H  11,H  36,H  27)           89.2082         0.091886   
    363. A(H  27,H  36,O  34)          127.6474         0.108827   
    364. A(H   7,H  36,H  11)           56.0526         0.093419   
    365. A(H   7,H  36,O  34)          147.6671         0.119355   
    366. D(C   2,C   1,N   0,H   8)     60.1409         0.026573   
    367. D(C   2,C   1,N   0,H   7)    -61.0088         0.026573   
    368. D(H  10,C   1,N   0,O  16)    105.7625         0.026573   
    369. D(H  10,C   1,N   0,H  27)      7.7430         0.026573   
    370. D(H   9,C   1,N   0,O  16)   -136.6113         0.026573   
    371. D(C   2,C   1,N   0,O  16)    -16.3093         0.026573   
    372. D(H  10,C   1,N   0,H  15)    -58.3126         0.026573   
    373. D(H  10,C   1,N   0,H   8)   -177.7874         0.026573   
    374. D(C   2,C   1,N   0,H  27)   -114.3288         0.026573   
    375. D(H  32,C   1,N   0,H   8)   -116.2080         0.026573   
    376. D(H   9,C   1,N   0,H   7)    178.6893         0.026573   
    377. D(C   2,C   1,N   0,H  15)    179.6156         0.026573   
    378. D(H  32,C   1,N   0,H   7)    122.6424         0.026573   
    379. D(H  10,C   1,N   0,H   7)     61.0630         0.026573   
    380. D(H   9,C   1,N   0,H  27)    125.3693         0.026573   
    381. D(H   9,C   1,N   0,H  15)     59.3137         0.026573   
    382. D(H   9,C   1,N   0,H   8)    -60.1611         0.026573   
    383. D(H  11,C   2,C   1,H  32)   -135.0155         0.013371   
    384. D(H  11,C   2,C   1,H   9)    178.6860         0.013371   
    385. D(C   3,C   2,C   1,H   9)    -58.0583         0.013371   
    386. D(C   3,C   2,C   1,H  33)    -71.5629         0.013371   
    387. D(C   3,C   2,C   1,O  22)      3.6293         0.013371   
    388. D(H  11,C   2,C   1,N   0)     58.4119         0.013371   
    389. D(C   3,C   2,C   1,H  27)    105.1845         0.013371   
    390. D(C   3,C   2,C   1,H  10)     60.7610         0.013371   
    391. D(H  11,C   2,C   1,H  10)    -62.4948         0.013371   
    392. D(C   3,C   2,C   1,N   0)   -178.3323         0.013371   
    393. D(C   3,C   2,C   1,H  32)    -11.7597         0.013371   
    394. D(H  13,C   3,C   2,H  11)    178.9887         0.011815   
    395. D(C   4,C   3,C   2,H  11)     55.9391         0.011815   
    396. D(H  13,C   3,C   2,C   1)     55.1769         0.011815   
    397. D(C   4,C   3,C   2,C   1)    -67.8727         0.011815   
    398. D(C   4,C   3,C   2,H  12)    173.2114         0.011815   
    399. D(H  14,C   3,C   2,H  11)    -63.6794         0.011815   
    400. D(H  14,C   3,C   2,C   1)    172.5088         0.011815   
    401. D(H  13,C   3,C   2,H  12)    -63.7391         0.011815   
    402. D(O   6,C   4,C   3,H  29)     -4.4228         0.016681   
    403. D(O   6,C   4,C   3,H  14)    -60.2009         0.016681   
    404. D(O   6,C   4,C   3,H  13)     56.8879         0.016681   
    405. D(O   5,C   4,C   3,H  29)    174.1241         0.016681   
    406. D(O   6,C   4,C   3,C   2)    179.6320         0.016681   
    407. D(O   5,C   4,C   3,H  13)   -124.5652         0.016681   
    408. D(O   5,C   4,C   3,C   2)     -1.8211         0.016681   
    409. D(O   5,C   4,C   3,H  14)    118.3460         0.016681   
    410. D(O  18,O   5,C   4,O   6)     -7.8364         0.053568   
    411. D(H  35,O   5,C   4,O   6)    121.2276         0.053568   
    412. D(H  35,O   5,C   4,C   3)    -57.3203         0.053568   
    413. D(O  18,O   5,C   4,C   3)    173.6158         0.053568   
    414. D(O  18,O   6,C   4,C   3)   -174.4107         0.154855   
    415. D(O  18,O   6,C   4,O   5)      7.0062         0.154855   
    416. D(O  25,H   7,N   0,H   8)    157.7317         0.310943   
    417. D(H  27,H   7,N   0,C   1)    -71.5040         0.310943   
    418. D(H  27,H   7,N   0,H   8)    167.1190         0.310943   
    419. D(O  25,H   7,N   0,H  15)     38.7572         0.310943   
    420. D(O  25,H   7,N   0,C   1)    -80.8914         0.310943   
    421. D(H  36,H   7,N   0,H  27)     78.0001         0.310943   
    422. D(H  27,H   7,N   0,O  16)    136.3697         0.310943   
    423. D(H  36,H   7,N   0,H   8)   -114.8808         0.310943   
    424. D(H  36,H   7,N   0,H  15)    126.1447         0.310943   
    425. D(H  27,H   7,N   0,H  15)     48.1446         0.310943   
    426. D(O  25,H   7,N   0,H  27)     -9.3873         0.310943   
    427. D(H  36,H   7,N   0,O  16)   -145.6302         0.310943   
    428. D(H  36,H   7,N   0,C   1)      6.4961         0.310943   
    429. D(O  25,H   7,N   0,O  16)    126.9823         0.310943   
    430. D(O  31,H   9,C   1,H  10)     60.5062         0.178887   
    431. D(H  32,H   9,C   1,H  33)    -24.2226         0.178887   
    432. D(O  31,H   9,C   1,C   2)   -178.9202         0.178887   
    433. D(H  32,H   9,C   1,O  22)     61.6050         0.178887   
    434. D(H  32,H   9,C   1,N   0)    -71.8711         0.178887   
    435. D(H  33,H   9,C   1,H  10)     70.5197         0.178887   
    436. D(H  32,H   9,C   1,H  10)     46.2971         0.178887   
    437. D(H  32,H   9,C   1,H  27)      5.7549         0.178887   
    438. D(H  33,H   9,C   1,H  32)     24.2226         0.178887   
    439. D(H  33,H   9,C   1,O  22)     85.8276         0.178887   
    440. D(H  33,H   9,C   1,C   2)   -168.9067         0.178887   
    441. D(O  31,H   9,C   1,N   0)    -57.6621         0.178887   
    442. D(H  33,H   9,C   1,N   0)    -47.6486         0.178887   
    443. D(H  33,H   9,C   1,H  27)     29.9774         0.178887   
    444. D(H  32,H   9,C   1,C   2)    166.8707         0.178887   
    445. D(H  27,H  10,C   1,H   9)   -129.4368         0.190375   
    446. D(H  26,H  10,C   1,H  33)    -51.1141         0.190375   
    447. D(H  26,H  10,C   1,H   9)    -88.4659         0.190375   
    448. D(H  27,H  10,C   1,N   0)    -11.0552         0.190375   
    449. D(H  26,H  10,C   1,H  32)    -44.6975         0.190375   
    450. D(H  26,H  10,C   1,H  27)     40.9709         0.190375   
    451. D(H  26,H  10,C   1,O  22)   -104.6711         0.190375   
    452. D(H  32,H  10,C   1,H   9)    -43.7684         0.190375   
    453. D(H  32,H  10,C   1,H  33)     -6.4167         0.190375   
    454. D(H  26,H  10,C   1,N   0)     29.9157         0.190375   
    455. D(H  32,H  10,C   1,H  27)     85.6684         0.190375   
    456. D(H  32,H  10,C   1,O  22)    -59.9736         0.190375   
    457. D(H  32,H  10,C   1,C   2)   -163.3359         0.190375   
    458. D(H  27,H  10,C   1,C   2)    110.9957         0.190375   
    459. D(H  26,H  10,C   1,C   2)    151.9667         0.190375   
    460. D(H  32,H  10,C   1,N   0)     74.6132         0.190375   
    461. D(H  36,H  11,C   2,H  12)    119.3119         0.118362   
    462. D(H  36,H  11,C   2,C   1)      1.6557         0.118362   
    463. D(O  34,H  11,C   2,C   1)     37.6230         0.118362   
    464. D(O  34,H  11,C   2,C   3)    -87.5209         0.118362   
    465. D(H  36,H  11,C   2,C   3)   -123.4882         0.118362   
    466. D(O  34,H  11,C   2,H  12)    155.2792         0.118362   
    467. D(O  28,H  12,C   2,H  11)    114.1428         0.117921   
    468. D(H  30,H  12,C   2,H  11)    135.9816         0.117921   
    469. D(H  30,H  12,C   2,C   3)     17.6343         0.117921   
    470. D(O  28,H  12,C   2,C   3)     -4.2045         0.117921   
    471. D(H  30,H  12,C   2,C   1)   -104.5263         0.117921   
    472. D(O  28,H  12,C   2,C   1)   -126.3651         0.117921   
    473. D(H  30,H  13,C   3,C   2)     61.6308         0.148033   
    474. D(H  30,H  13,C   3,H  14)    -55.7714         0.148033   
    475. D(O  28,H  13,C   3,C   4)   -155.9326         0.148033   
    476. D(H  29,H  13,C   3,C   4)   -143.8631         0.148033   
    477. D(H  30,H  13,C   3,H  29)    -28.4451         0.148033   
    478. D(H  30,H  13,C   3,C   4)   -172.3082         0.148033   
    479. D(O  28,H  13,C   3,H  14)    -39.3958         0.148033   
    480. D(H  29,H  13,C   3,C   2)     90.0759         0.148033   
    481. D(O  28,H  13,C   3,C   2)     78.0064         0.148033   
    482. D(H  29,H  13,C   3,H  14)    -27.3263         0.148033   
    483. D(O  28,H  14,C   3,H  13)     46.5966         0.133953   
    484. D(O  28,H  14,C   3,C   2)    -71.2575         0.133953   
    485. D(O  28,H  14,C   3,H  29)     18.8726         0.133953   
    486. D(H  29,H  14,C   3,H  13)     27.7240         0.133953   
    487. D(H  29,H  14,C   3,C   4)    145.7151         0.133953   
    488. D(H  30,H  14,C   3,C   2)    -65.2558         0.133953   
    489. D(O  28,H  14,C   3,C   4)    164.5877         0.133953   
    490. D(H  29,H  14,C   3,C   2)    -90.1301         0.133953   
    491. D(H  32,H  15,N   0,H   7)   -124.9688         0.322554   
    492. D(H  32,H  15,N   0,C   1)     -4.8702         0.322554   
    493. D(H  33,H  15,N   0,C   1)    -42.8472         0.322554   
    494. D(O  31,H  15,N   0,H   7)   -148.8667         0.322554   
    495. D(O  31,H  15,N   0,O  16)    159.4612         0.322554   
    496. D(H  33,H  15,N   0,O  16)    145.3821         0.322554   
    497. D(O  31,H  15,N   0,H   8)     91.5452         0.322554   
    498. D(O  31,H  15,N   0,C   1)    -28.7681         0.322554   
    499. D(H  33,H  15,N   0,H  27)   -120.6063         0.322554   
    500. D(H  32,H  15,N   0,H  27)    -82.6293         0.322554   
    501. D(H  33,H  15,N   0,H   8)     77.4662         0.322554   
    502. D(H  33,H  15,N   0,H   7)   -162.9458         0.322554   
    503. D(H  32,H  15,N   0,O  16)   -176.6409         0.322554   
    504. D(H  27,H  15,N   0,C   1)     77.7592         0.322554   
    505. D(O  31,H  15,N   0,H  27)   -106.5273         0.322554   
    506. D(H  32,H  15,N   0,H   8)    115.4432         0.322554   
    507. D(H  20,O  16,N   0,H   7)   -125.9616         0.001500   
    508. D(H  17,O  16,N   0,H   8)    -43.0765         0.001500   
    509. D(H  17,O  16,N   0,H   7)    105.1107         0.001500   
    510. D(H  17,O  16,N   0,H  15)   -149.1030         0.001500   
    511. D(H  17,O  16,N   0,H  27)    141.0642         0.001500   
    512. D(H  20,O  16,N   0,H  15)    -20.1754         0.001500   
    513. D(H  20,O  16,N   0,H   8)     85.8511         0.001500   
    514. D(H  17,O  16,N   0,C   1)     46.1715         0.001500   
    515. D(H  20,O  16,N   0,C   1)    175.0992         0.001500   
    516. D(H  20,O  16,N   0,H  27)    -90.0082         0.001500   
    517. D(O   5,O  18,O   6,C   4)     -4.1108         0.001500   
    518. D(O   6,O  18,O   5,C   4)      3.8507         0.001500   
    519. D(H  19,O  18,O   5,C   4)    -71.9834         0.001500   
    520. D(H  19,O  18,O   5,H  35)    144.9459         0.001500   
    521. D(H  21,O  18,O   5,C   4)     42.8340         0.001500   
    522. D(H  21,O  18,O   5,H  35)   -100.2367         0.001500   
    523. D(H  19,O  18,O   6,C   4)     79.6025         0.001500   
    524. D(H  21,O  18,O   6,C   4)   -129.8493         0.001500   
    525. D(O   6,O  18,O   5,H  35)   -139.2200         0.001500   
    526. D(H  24,O  22,C   1,H  27)   -160.0961         0.001500   
    527. D(H  24,O  22,C   1,H  33)    106.0008         0.001500   
    528. D(H  24,O  22,C   1,H  32)    135.8095         0.001500   
    529. D(H  24,O  22,C   1,H  10)   -138.4117         0.001500   
    530. D(H  24,O  22,C   1,N   0)    143.7426         0.001500   
    531. D(H  23,O  22,C   1,H  27)    -53.6867         0.001500   
    532. D(H  23,O  22,C   1,H  33)   -147.5898         0.001500   
    533. D(H  23,O  22,C   1,H  32)   -117.7811         0.001500   
    534. D(H  24,O  22,C   1,C   2)    -38.9176         0.001500   
    535. D(H  23,O  22,C   1,H  10)    -32.0023         0.001500   
    536. D(H  23,O  22,C   1,H   9)    166.3874         0.001500   
    537. D(H  23,O  22,C   1,C   2)     67.4918         0.001500   
    538. D(H  23,O  22,C   1,N   0)   -109.8480         0.001500   
    539. D(H  24,O  22,C   1,H   9)     59.9780         0.001500   
    540. D(H  10,O  25,H  15,H  32)     77.6654         0.001500   
    541. D(H  10,O  25,H  15,N   0)    -44.8655         0.001500   
    542. D(H  27,O  25,H  15,H  26)    103.8477         0.001500   
    543. D(H  27,O  25,H  15,H  33)    142.5075         0.001500   
    544. D(H  27,O  25,H  15,H  32)    138.9309         0.001500   
    545. D(H  27,O  25,H  15,N   0)     16.4000         0.001500   
    546. D(H  26,O  25,H  15,O  31)     48.0900         0.001500   
    547. D(H  26,O  25,H  15,H  32)     35.0832         0.001500   
    548. D(H  32,O  25,H  10,H  27)    168.6570         0.001500   
    549. D(H  32,O  25,H  10,C   1)     77.5422         0.001500   
    550. D(H  26,O  25,H  15,H  33)     38.6599         0.001500   
    551. D(H  15,O  25,H  10,H  27)    102.5448         0.001500   
    552. D(H  15,O  25,H  10,H  26)   -130.0784         0.001500   
    553. D(H  26,O  25,H  15,H  27)   -103.8477         0.001500   
    554. D(H  15,O  25,H  10,H  32)    -66.1122         0.001500   
    555. D(H  15,O  25,H  10,C   1)     11.4300         0.001500   
    556. D(H  26,O  25,H  10,H  27)   -127.3768         0.001500   
    557. D(H  26,O  25,H  10,C   1)    141.5084         0.001500   
    558. D(H  10,O  25,H   7,H  36)    -93.2383         0.001500   
    559. D(H  15,O  25,H   7,H  27)   -168.0743         0.001500   
    560. D(H  15,O  25,H   7,H  36)   -171.7479         0.001500   
    561. D(H  32,O  25,H  10,H  26)    -63.9662         0.001500   
    562. D(H  10,O  25,H   7,N   0)     54.6381         0.001500   
    563. D(H  26,O  25,H  15,N   0)    -87.4477         0.001500   
    564. D(H  15,O  25,H   7,N   0)    -23.8715         0.001500   
    565. D(H  27,O  25,H   7,H  36)     -3.6736         0.001500   
    566. D(H  27,O  25,H   7,N   0)    144.2028         0.001500   
    567. D(H  10,O  25,H   7,H  27)    -89.5647         0.001500   
    568. D(H  26,O  25,H   7,H  27)    -95.5924         0.001500   
    569. D(H  26,O  25,H   7,H  36)    -99.2659         0.001500   
    570. D(H  26,O  25,H  10,H  32)     63.9662         0.001500   
    571. D(H  27,O  25,H  15,O  31)    151.9377         0.001500   
    572. D(H  26,O  25,H   7,N   0)     48.6104         0.001500   
    573. D(H  27,O  25,H  10,H  26)    127.3768         0.001500   
    574. D(H  27,O  25,H  10,H  32)   -168.6570         0.001500   
    575. D(H  27,O  25,H  10,C   1)    -91.1148         0.001500   
    576. D(H  15,H  26,H  10,H  32)    -60.7646         0.001501   
    577. D(O  25,H  26,H  15,N   0)     98.8362         0.001500   
    578. D(H  15,H  26,O  25,H  27)    -80.5482         0.406573   
    579. D(H  32,H  26,O  25,H  27)   -114.1830         0.406573   
    580. D(H  10,H  26,H  15,O  25)   -130.1083         0.001500   
    581. D(H  10,H  26,O  25,H  15)     34.0600         0.406573   
    582. D(H  10,H  26,O  25,H  27)    -46.4882         0.406573   
    583. D(H  10,H  26,O  25,H  32)     67.6948         0.406573   
    584. D(H  10,H  26,H  15,H  27)    -88.9059         0.001500   
    585. D(H  10,H  26,H  15,H  33)     87.8302         0.001500   
    586. D(H  32,H  26,O  25,H   7)    -62.9007         0.406573   
    587. D(H  10,H  26,H  15,H  32)     91.0605         0.001500   
    588. D(H  10,H  26,H  15,N   0)    -31.2721         0.001500   
    589. D(H  10,H  26,O  25,H   7)      4.7941         0.406573   
    590. D(O  25,H  26,H  15,H  27)     41.2024         0.001500   
    591. D(O  25,H  26,H  15,O  31)   -128.9174         0.001500   
    592. D(O  25,H  26,H  15,H  33)   -142.0616         0.001500   
    593. D(H  10,H  26,H  15,O  31)    100.9743         0.001500   
    594. D(O  25,H  26,H  15,H  32)   -138.8313         0.001500   
    595. D(H  32,H  26,O  25,H  15)    -33.6348         0.406573   
    596. D(H  15,H  26,H  10,O  25)     45.5711         0.001501   
    597. D(H  15,H  26,H  10,H  27)     73.1978         0.001501   
    598. D(H  15,H  26,H  10,C   1)     -5.1118         0.001501   
    599. D(H  32,H  26,H  10,O  25)    106.3357         0.001501   
    600. D(H  32,H  26,H  10,H  27)    133.9624         0.001501   
    601. D(H  32,H  26,O  25,H  10)    -67.6948         0.406573   
    602. D(H  32,H  26,H  10,C   1)     55.6527         0.001501   
    603. D(O  25,H  26,H  10,H  32)   -106.3357         0.001501   
    604. D(O  25,H  26,H  10,C   1)    -50.6829         0.001501   
    605. D(O  25,H  26,H  10,H  27)     27.6267         0.001501   
    606. D(H   7,H  27,N   0,H   8)    -45.4071         0.001500   
    607. D(H  10,H  27,N   0,H   8)   -166.7472         0.001500   
    608. D(O  25,H  27,N   0,H  15)     15.4101         0.001500   
    609. D(O  25,H  27,N   0,C   1)    -96.9644         0.001500   
    610. D(O  25,H  27,N   0,H   7)    146.3281         0.001500   
    611. D(O  25,H  27,N   0,H   8)    100.9211         0.001500   
    612. D(H  10,H  27,N   0,H   7)   -121.3401         0.001500   
    613. D(H  10,H  27,N   0,O  16)   -153.8200         0.001500   
    614. D(H  10,H  27,N   0,H  15)    107.7419         0.001500   
    615. D(H  10,H  27,N   0,C   1)     -4.6326         0.001500   
    616. D(H   7,H  27,N   0,H  15)   -130.9180         0.001500   
    617. D(H   7,H  27,N   0,C   1)    116.7075         0.001500   
    618. D(H   7,H  27,N   0,O  16)    -32.4798         0.001500   
    619. D(O  25,H  27,N   0,O  16)    113.8483         0.001500   
    620. D(H  15,H  27,N   0,C   1)   -112.3745         0.001500   
    621. D(H  15,H  27,O  25,H  10)     46.3469         0.446894   
    622. D(H  15,H  27,O  25,H  26)     92.6491         0.446894   
    623. D(H   7,H  27,O  25,H  32)     41.7707         0.446894   
    624. D(H   7,H  27,O  25,H  15)      6.1583         0.446894   
    625. D(H   7,H  27,O  25,H  26)     98.8074         0.446894   
    626. D(H  10,H  27,O  25,H   7)    -52.5053         0.446894   
    627. D(H  10,H  27,O  25,H  15)    -46.3469         0.446894   
    628. D(H  10,H  27,O  25,H  26)     46.3022         0.446894   
    629. D(H   7,H  27,H  15,H  32)    152.0835         0.001500   
    630. D(H   7,H  27,H  15,N   0)     25.3512         0.001500   
    631. D(H  10,H  27,H  15,H  26)     71.7886         0.001500   
    632. D(H  10,H  27,H  15,O  25)    109.6685         0.001500   
    633. D(H  10,H  27,H  15,O  31)     81.3231         0.001500   
    634. D(O  25,H  27,H  15,H  26)    -37.8799         0.001500   
    635. D(O  25,H  27,H  15,H  33)    -41.4900         0.001500   
    636. D(O  25,H  27,H  15,H  32)    -37.9074         0.001500   
    637. D(H  10,H  27,H  15,N   0)    -54.9712         0.001500   
    638. D(O  25,H  27,H  15,N   0)   -164.6397         0.001500   
    639. D(H  10,H  27,H  15,H  33)     68.1785         0.001500   
    640. D(N   0,H  27,H  10,C   1)      7.3134         0.001501   
    641. D(H  15,H  27,H  10,O  25)    -70.4398         0.001501   
    642. D(H  15,H  27,H  10,H  26)    -98.0361         0.001501   
    643. D(H  15,H  27,H  10,C   1)     31.5378         0.001501   
    644. D(H   7,H  27,H  10,O  25)   -114.7024         0.001501   
    645. D(H   7,H  27,H  10,H  26)   -142.2987         0.001501   
    646. D(H   7,H  27,H  10,H  32)   -104.3684         0.001501   
    647. D(H   7,H  27,H  10,C   1)    -12.7248         0.001501   
    648. D(O  25,H  27,H  10,H  26)    -27.5963         0.001501   
    649. D(H  10,H  27,H  15,H  32)     71.7611         0.001500   
    650. D(O  25,H  27,H  10,H  32)     10.3341         0.001501   
    651. D(O  25,H  27,H   7,H  36)    176.1376         0.001500   
    652. D(H  15,H  27,H  10,H  32)    -60.1058         0.001501   
    653. D(H  15,H  27,H   7,H  36)   -172.9601         0.001500   
    654. D(H  15,H  27,H   7,N   0)    -26.1483         0.001500   
    655. D(H  10,H  27,H   7,O  25)     81.7863         0.001500   
    656. D(H  15,H  27,H   7,O  25)     10.9023         0.001500   
    657. D(H  10,H  27,H   7,H  36)   -102.0761         0.001500   
    658. D(N   0,H  27,H  10,H  32)    -84.3302         0.001501   
    659. D(N   0,H  27,H  10,H  26)   -122.2605         0.001501   
    660. D(H  10,H  27,H   7,N   0)     44.7356         0.001500   
    661. D(N   0,H  27,H   7,H  36)   -146.8117         0.001500   
    662. D(H  36,H  27,H   7,O  25)   -176.1376         0.001500   
    663. D(O  25,H  27,H  15,O  31)    -28.3454         0.001500   
    664. D(O  25,H  27,H   7,N   0)    -37.0507         0.001500   
    665. D(O  25,H  27,H  10,C   1)    101.9776         0.001501   
    666. D(H   7,H  27,C   1,N   0)    -28.0150         0.001500   
    667. D(H  10,H  27,C   1,O  22)     26.7058         0.001500   
    668. D(H  36,H  27,H   7,N   0)    146.8117         0.001500   
    669. D(H  10,H  27,C   1,H  33)     89.6323         0.001500   
    670. D(H  10,H  27,C   1,H  32)     76.2253         0.001500   
    671. D(H  10,H  27,C   1,C   2)    -88.6426         0.001500   
    672. D(O  25,H  27,C   1,O  22)    -54.1518         0.001500   
    673. D(O  25,H  27,C   1,H  33)      8.7747         0.001500   
    674. D(O  25,H  27,C   1,H  32)     -4.6323         0.001500   
    675. D(H  10,H  27,O  25,H  32)    -10.7345         0.446894   
    676. D(H  10,H  27,C   1,N   0)    168.7646         0.001500   
    677. D(O  25,H  27,C   1,H  10)    -80.8577         0.001500   
    678. D(O  25,H  27,C   1,H   9)     -9.9947         0.001500   
    679. D(H   7,H  27,O  25,H  10)     52.5053         0.446894   
    680. D(N   0,H  27,H   7,O  25)     37.0507         0.001500   
    681. D(O  25,H  27,C   1,C   2)   -169.5003         0.001500   
    682. D(O  25,H  27,C   1,N   0)     87.9069         0.001500   
    683. D(H  15,H  27,O  25,H  32)     35.6124         0.446894   
    684. D(H  10,H  27,C   1,H   9)     70.8629         0.001500   
    685. D(H  12,O  28,H  14,H  30)     25.5873         0.001500   
    686. D(H  12,O  28,H  14,H  29)    126.3114         0.001500   
    687. D(H  12,O  28,H  14,C   3)     46.9938         0.001500   
    688. D(H  30,O  28,H  14,H  29)    100.7241         0.001500   
    689. D(H  30,O  28,H  14,C   3)     21.4065         0.001500   
    690. D(H  29,O  28,H  14,H  30)   -100.7241         0.001500   
    691. D(H  29,O  28,H  14,C   3)    -79.3176         0.001500   
    692. D(H  14,O  28,H  13,C   3)     24.1837         0.001500   
    693. D(H  12,O  28,H  13,H  30)     57.2441         0.001500   
    694. D(H  12,O  28,H  13,H  29)    178.5323         0.001500   
    695. D(H  12,O  28,H  13,C   3)    -51.6337         0.001500   
    696. D(H  30,O  28,H  13,H  29)    121.2882         0.001500   
    697. D(H  30,O  28,H  13,C   3)   -108.8778         0.001500   
    698. D(H  29,O  28,H  13,H  30)   -121.2882         0.001500   
    699. D(H  14,O  28,H  13,H  29)   -105.6503         0.001500   
    700. D(H  29,O  28,H  13,C   3)    129.8340         0.001500   
    701. D(H  14,O  28,H  12,H  29)    -46.0441         0.001500   
    702. D(H  14,O  28,H  12,H  30)   -150.2929         0.001500   
    703. D(H  14,O  28,H  12,C   2)    -18.2045         0.001500   
    704. D(H  30,O  28,H  12,H  29)    104.2487         0.001500   
    705. D(H  30,O  28,H  12,C   2)    132.0884         0.001500   
    706. D(H  29,O  28,H  12,H  30)   -104.2487         0.001500   
    707. D(H  29,O  28,H  12,C   2)     27.8397         0.001500   
    708. D(C   3,H  29,O  28,H  12)    -16.9139         0.385318   
    709. D(C   3,H  29,O  28,H  30)    -75.7977         0.385318   
    710. D(H  13,H  29,O  28,H  14)     35.2869         0.385318   
    711. D(H  13,H  29,O  28,H  30)    -59.9456         0.385318   
    712. D(H  14,H  29,O  28,H  13)    -35.2869         0.385318   
    713. D(H  14,H  29,O  28,H  12)    -36.3486         0.385318   
    714. D(C   3,H  29,H  14,H  30)    -67.6397         0.001500   
    715. D(C   3,H  29,H  14,O  28)   -105.8722         0.001500   
    716. D(H  13,H  29,H  14,H  30)    -84.3560         0.001500   
    717. D(H  13,H  29,H  14,O  28)   -122.5884         0.001500   
    718. D(H  13,H  29,H  14,C   3)    -16.7162         0.001500   
    719. D(O  28,H  29,H  14,H  30)     38.2324         0.001500   
    720. D(O  28,H  29,H  14,C   3)    105.8722         0.001500   
    721. D(H  12,H  29,H  13,C   3)    -53.0567         0.001500   
    722. D(C   3,H  29,H  13,O  28)     51.7471         0.001500   
    723. D(C   3,H  29,H  13,H  30)     83.8541         0.001500   
    724. D(H  14,H  29,H  13,O  28)     68.3685         0.001500   
    725. D(H  14,H  29,H  13,H  30)    100.4754         0.001500   
    726. D(H  14,H  29,H  13,C   3)     16.6213         0.001500   
    727. D(O  28,H  29,H  13,H  30)     32.1070         0.001500   
    728. D(O  28,H  29,H  13,C   3)    -51.7471         0.001500   
    729. D(H  13,H  29,H  12,H  30)   -140.6508         0.001500   
    730. D(H  13,H  29,H  12,C   2)     21.9388         0.001500   
    731. D(H  12,H  29,H  13,H  30)     30.7974         0.001500   
    732. D(H  14,H  29,H  12,O  28)    126.7290         0.001500   
    733. D(H  14,H  29,H  12,H  30)    167.3475         0.001500   
    734. D(H  14,H  29,H  12,C   2)    -30.0630         0.001500   
    735. D(O  28,H  29,H  12,H  30)     40.6185         0.001500   
    736. D(O  28,H  29,H  12,C   2)   -156.7919         0.001500   
    737. D(H  13,H  29,C   3,C   4)     77.5838         0.001500   
    738. D(H  13,H  29,C   3,C   2)   -106.1589         0.001500   
    739. D(H  14,H  29,O  28,H  30)    -95.2325         0.385318   
    740. D(H  14,H  29,C   3,H  13)   -148.5211         0.001500   
    741. D(H  14,H  29,C   3,C   4)    -70.9373         0.001500   
    742. D(H  14,H  29,C   3,C   2)    105.3199         0.001500   
    743. D(H  13,H  29,O  28,H  12)     -1.0618         0.385318   
    744. D(O  28,H  29,C   3,H  14)    -77.8063         0.001500   
    745. D(O  28,H  29,C   3,H  13)    133.6726         0.001500   
    746. D(O  28,H  29,C   3,C   4)   -148.7436         0.001500   
    747. D(O  28,H  29,C   3,C   2)     27.5136         0.001500   
    748. D(H  14,H  30,O  28,H  29)     64.6656         0.362926   
    749. D(H  13,H  30,O  28,H  14)    -23.4415         0.362926   
    750. D(H  13,H  30,O  28,H  29)     41.2242         0.362926   
    751. D(H  12,H  30,O  28,H  13)     45.1768         0.362926   
    752. D(H  12,H  30,O  28,H  14)     21.7353         0.362926   
    753. D(H  12,H  30,O  28,H  29)     86.4010         0.362926   
    754. D(H  13,H  30,H  14,C   3)    -29.5101         0.001500   
    755. D(H  12,H  30,H  14,O  28)   -149.3664         0.001500   
    756. D(H  12,H  30,H  14,H  29)    166.8755         0.001500   
    757. D(H  12,H  30,H  14,C   3)     50.9667         0.001500   
    758. D(O  28,H  30,H  14,H  29)    -43.7582         0.001500   
    759. D(O  28,H  30,H  14,C   3)   -159.6669         0.001500   
    760. D(H  14,H  30,H  13,O  28)    -42.8538         0.001500   
    761. D(H  14,H  30,H  13,H  29)    -71.4812         0.001500   
    762. D(H  14,H  30,H  13,C   3)     29.7881         0.001500   
    763. D(H  12,H  30,H  13,O  28)   -112.1908         0.001500   
    764. D(H  12,H  30,H  13,H  29)   -140.8182         0.001500   
    765. D(H  12,H  30,H  13,C   3)    -39.5489         0.001500   
    766. D(O  28,H  30,H  13,H  29)    -28.6274         0.001500   
    767. D(O  28,H  30,H  13,C   3)     72.6418         0.001500   
    768. D(H  14,H  30,H  12,C   2)    -35.8375         0.001501   
    769. D(H  13,H  30,H  12,H  29)     32.4623         0.001501   
    770. D(H  13,H  30,H  12,O  28)     70.5189         0.001501   
    771. D(H  13,H  30,O  28,H  12)    -45.1768         0.362926   
    772. D(H  13,H  30,H  12,C   2)      7.1859         0.001501   
    773. D(O  28,H  30,H  12,H  29)    -38.0566         0.001501   
    774. D(O  28,H  30,H  12,C   2)    -63.3330         0.001501   
    775. D(H  33,O  31,H  15,H  26)   -137.7001         0.001500   
    776. D(H  33,O  31,H  15,O  25)   -151.4946         0.001500   
    777. D(H  33,O  31,H  15,H  27)   -142.5141         0.001500   
    778. D(H  33,O  31,H  15,N   0)    -39.2906         0.001500   
    779. D(H  32,O  31,H  15,H  26)    -24.3833         0.001500   
    780. D(H  32,O  31,H  15,O  25)    -38.1779         0.001500   
    781. D(H  32,O  31,H  15,H  27)    -29.1974         0.001500   
    782. D(H  32,O  31,H  15,H  33)    113.3167         0.001500   
    783. D(H  32,O  31,H  15,N   0)     74.0262         0.001500   
    784. D(H  15,O  31,H   9,H  32)     85.6292         0.001500   
    785. D(H  15,O  31,H   9,H  33)   -115.5081         0.001500   
    786. D(H  15,O  31,H   9,C   1)     32.5895         0.001500   
    787. D(H  33,O  31,H  15,H  32)   -113.3167         0.001500   
    788. D(H  33,O  31,H   9,H  32)   -158.8627         0.001500   
    789. D(H  33,O  31,H   9,C   1)    148.0976         0.001500   
    790. D(H  32,O  31,H   9,H  33)    158.8627         0.001500   
    791. D(H  32,O  31,H   9,C   1)    -53.0397         0.001500   
    792. D(H  15,H  32,H  26,O  25)     39.7975         0.001501   
    793. D(O  31,H  32,H  26,H  15)    -66.9750         0.001501   
    794. D(O  31,H  32,H  26,H  10)   -119.2395         0.001501   
    795. D(H   9,H  32,O  25,H   7)     26.7471         0.001500   
    796. D(H   9,H  32,O  25,H  10)    -15.6257         0.001500   
    797. D(H   9,H  32,O  25,H  15)     42.7125         0.001500   
    798. D(H   9,H  32,O  25,H  26)    -92.5019         0.001500   
    799. D(H  15,H  32,O  25,H   7)    -15.9655         0.001500   
    800. D(H  15,H  32,O  25,H  10)    -58.3383         0.001500   
    801. D(H  15,H  32,O  25,H  27)    -46.9959         0.001500   
    802. D(H  15,H  32,O  25,H  26)   -135.2144         0.001500   
    803. D(O  31,H  32,O  25,H   7)    -79.7659         0.001500   
    804. D(O  31,H  32,O  25,H  10)   -122.1387         0.001500   
    805. D(O  31,H  32,O  25,H  27)   -110.7963         0.001500   
    806. D(O  31,H  32,O  25,H  26)    160.9852         0.001500   
    807. D(H  10,H  32,H  15,O  25)    -71.8095         0.001501   
    808. D(H  10,H  32,H  15,O  31)    149.6125         0.001501   
    809. D(H  10,H  32,H  15,H  33)    114.6940         0.001501   
    810. D(H  10,H  32,H  15,N   0)     27.8684         0.001501   
    811. D(H   9,H  32,H  15,O  25)   -119.1148         0.001501   
    812. D(H   9,H  32,H  15,H  27)   -106.6284         0.001501   
    813. D(H   9,H  32,H  15,O  31)    102.3071         0.001501   
    814. D(H   9,H  32,H  15,H  33)     67.3887         0.001501   
    815. D(H   9,H  32,H  15,N   0)    -19.4370         0.001501   
    816. D(O  31,H  32,H  15,H  26)    151.0482         0.001501   
    817. D(O  31,H  32,H  15,O  25)    138.5781         0.001501   
    818. D(O  31,H  32,H  15,H  33)    -34.9184         0.001501   
    819. D(O  31,H  32,H  15,N   0)   -121.7441         0.001501   
    820. D(H  26,H  32,H  10,H  27)    -23.8692         0.001500   
    821. D(C   1,H  32,H  10,O  25)    126.8524         0.001500   
    822. D(C   1,H  32,H  10,H  27)    123.1531         0.001500   
    823. D(C   1,H  32,H  10,H  26)    147.0223         0.001500   
    824. D(H   9,H  32,H  10,H  27)    148.9961         0.001500   
    825. D(H   9,H  32,H  10,H  26)    172.8653         0.001500   
    826. D(H   9,H  32,H  10,C   1)     25.8430         0.001500   
    827. D(H  15,H  32,H  10,O  25)     76.3219         0.001500   
    828. D(H  15,H  32,H  10,H  27)     72.6226         0.001500   
    829. D(H  15,H  32,H  10,H  26)     96.4918         0.001500   
    830. D(H  15,H  32,H  10,C   1)    -50.5305         0.001500   
    831. D(O  31,H  32,H  10,O  25)    120.5600         0.001500   
    832. D(O  31,H  32,H  10,H  27)    116.8607         0.001500   
    833. D(O  31,H  32,H  10,H  26)    140.7299         0.001500   
    834. D(O  31,H  32,H  10,C   1)     -6.2924         0.001500   
    835. D(H   9,H  32,H  10,O  25)    152.6954         0.001500   
    836. D(O  25,H  32,H   9,O  31)   -133.9226         0.001500   
    837. D(O  25,H  32,H   9,H  33)   -144.3583         0.001500   
    838. D(O  25,H  32,H   9,C   1)     -3.1401         0.001500   
    839. D(H  26,H  32,H  10,C   1)   -147.0223         0.001500   
    840. D(H  26,H  32,H   9,O  31)   -150.9570         0.001500   
    841. D(H  26,H  32,H   9,H  33)   -161.3927         0.001500   
    842. D(H  26,H  32,H   9,C   1)    -20.1745         0.001500   
    843. D(O  31,H  32,H  15,H  27)    151.0645         0.001501   
    844. D(C   1,H  32,H   9,O  31)   -130.7825         0.001500   
    845. D(C   1,H  32,H   9,H  33)   -141.2182         0.001500   
    846. D(H  10,H  32,H   9,O  31)   -156.8611         0.001500   
    847. D(H  10,H  32,H   9,H  33)   -167.2968         0.001500   
    848. D(H  10,H  32,H   9,C   1)    -26.0786         0.001500   
    849. D(H  15,H  32,H   9,O  31)    -84.5318         0.001500   
    850. D(H  15,H  32,H   9,H  33)    -94.9675         0.001500   
    851. D(H   9,H  32,H  15,H  26)   -106.6447         0.001501   
    852. D(H  15,H  32,H   9,C   1)     46.2507         0.001500   
    853. D(O  31,H  32,H   9,H  33)    -10.4357         0.001500   
    854. D(O  31,H  32,H   9,C   1)    130.7825         0.001500   
    855. D(H  10,H  32,H  15,H  27)    -59.3230         0.001501   
    856. D(H   9,H  32,C   1,H  10)   -130.7865         0.001500   
    857. D(H   9,H  32,C   1,C   2)    -51.7718         0.001500   
    858. D(H   9,H  32,C   1,N   0)    115.6336         0.001500   
    859. D(O  31,H  32,O  25,H  15)    -63.8004         0.001500   
    860. D(H  15,H  32,C   1,O  22)    172.6294         0.001500   
    861. D(H  15,H  32,C   1,H  27)     67.2772         0.001500   
    862. D(H  15,H  32,C   1,H  33)    -82.3995         0.001500   
    863. D(H  15,H  32,C   1,H  10)    111.6939         0.001500   
    864. D(H  15,H  32,C   1,H   9)   -117.5196         0.001500   
    865. D(H  15,H  32,C   1,C   2)   -169.2914         0.001500   
    866. D(H  15,H  32,C   1,N   0)     -1.8860         0.001500   
    867. D(H   9,H  32,O  25,H  27)     -4.2834         0.001500   
    868. D(O  31,H  32,C   1,O  22)   -124.0393         0.001500   
    869. D(O  31,H  32,C   1,H  27)    130.6085         0.001500   
    870. D(O  31,H  32,C   1,H  33)    -19.0682         0.001500   
    871. D(O  31,H  32,H  26,O  25)    -27.1775         0.001501   
    872. D(O  31,H  32,C   1,H  10)    175.0252         0.001500   
    873. D(O  31,H  32,C   1,H   9)    -54.1883         0.001500   
    874. D(O  31,H  32,C   1,C   2)   -105.9601         0.001500   
    875. D(H  15,H  32,H  26,H  10)    -52.2645         0.001501   
    876. D(O  31,H  32,C   1,N   0)     61.4453         0.001500   
    877. D(H  26,H  32,O  31,H  15)     61.7968         0.466615   
    878. D(H  26,H  32,O  31,H  33)    128.0694         0.466615   
    879. D(C   1,H  32,O  31,H   9)     16.2401         0.466615   
    880. D(C   1,H  32,O  31,H  15)    -34.4615         0.466615   
    881. D(H  10,H  32,O  31,H   9)     18.5798         0.466615   
    882. D(H  10,H  32,O  31,H  15)    -32.1219         0.466615   
    883. D(H  10,H  32,O  31,H  33)     34.1507         0.466615   
    884. D(H   9,H  32,O  31,H  15)    -50.7017         0.466615   
    885. D(H   9,H  32,O  31,H  33)     15.5709         0.466615   
    886. D(H  15,H  32,O  31,H   9)     50.7017         0.466615   
    887. D(H  15,H  32,O  31,H  33)     66.2726         0.466615   
    888. D(C   1,H  32,H  26,H  15)     41.0834         0.001501   
    889. D(C   1,H  32,H  26,H  10)    -11.1811         0.001501   
    890. D(C   1,H  32,H  26,O  25)     80.8808         0.001501   
    891. D(C   1,H  32,O  31,H  33)     31.8110         0.466615   
    892. D(H  10,H  32,H  26,H  15)     52.2645         0.001501   
    893. D(H  10,H  32,H  26,O  25)     92.0620         0.001501   
    894. D(H   9,H  32,H  26,H  15)     48.0811         0.001501   
    895. D(H   9,H  32,H  26,H  10)     -4.1834         0.001501   
    896. D(H   9,H  32,H  26,O  25)     87.8786         0.001501   
    897. D(C   1,H  33,O  31,H  15)     32.3123         0.339423   
    898. D(C   1,H  33,O  31,H  32)    -28.7069         0.339423   
    899. D(H  15,H  33,O  31,H   9)    -42.0155         0.339423   
    900. D(H  15,H  33,O  31,H  32)    -61.0192         0.339423   
    901. D(H   9,H  33,O  31,H  15)     42.0155         0.339423   
    902. D(H   9,H  33,O  31,H  32)    -19.0037         0.339423   
    903. D(H   9,H  33,H  15,H  27)    -89.8570         0.001500   
    904. D(H   9,H  33,H  15,O  31)   -131.4217         0.001500   
    905. D(H   9,H  33,H  15,H  32)    -96.4361         0.001500   
    906. D(O  31,H  33,H  15,H  26)     39.8250         0.001500   
    907. D(O  31,H  33,H  15,O  25)     28.8449         0.001500   
    908. D(O  31,H  33,H  15,H  27)     41.5647         0.001500   
    909. D(O  31,H  33,H  15,H  32)     34.9856         0.001500   
    910. D(O  31,H  33,H  15,N   0)    149.2355         0.001500   
    911. D(C   1,H  33,H   9,O  31)     36.5757         0.001501   
    912. D(C   1,H  33,H   9,H  32)     48.1843         0.001501   
    913. D(H  15,H  33,H   9,O  31)     57.9225         0.001501   
    914. D(H  15,H  33,H   9,H  32)     69.5311         0.001501   
    915. D(H  15,H  33,H   9,C   1)     21.3468         0.001501   
    916. D(O  31,H  33,H   9,H  32)     11.6086         0.001501   
    917. D(O  31,H  33,H   9,C   1)    -36.5757         0.001501   
    918. D(H   9,H  33,C   1,H  32)   -128.9882         0.001500   
    919. D(H   9,H  33,H  15,N   0)     17.8138         0.001500   
    920. D(H   9,H  33,C   1,H  10)   -116.2045         0.001500   
    921. D(H   9,H  33,C   1,C   2)     20.0497         0.001500   
    922. D(H   9,H  33,C   1,N   0)    135.0147         0.001500   
    923. D(H   9,H  33,H  15,O  25)   -102.5768         0.001500   
[...]
  O      4.450893   -0.358262    1.887968
  H      4.869001   -0.698196    1.083131
  H      4.169489    0.533207    1.649947
  O     -1.407089    0.505734   -4.154472
  H     -0.618216    0.245215   -4.646735
  H     -1.452056   -0.125089   -3.425033
  O      2.973033   -3.532732    0.606828
  H      3.547485   -2.808599    0.323891
  H      2.207068   -3.479223    0.019924
  O      3.050374    3.428669    0.193107
  H      3.343590    2.824493   -0.515231
  H      2.888160    2.861216    0.950774

----------------------------
CARTESIAN COORDINATES (A.U.)
----------------------------
  NO LB      ZA    FRAG     MASS         X           Y           Z
   0 N     7.0000    0    14.007    2.540272   -0.458659    1.313372
   1 C     6.0000    0    12.011    3.618174   -0.340841   -1.302096
   2 C     6.0000    0    12.011    2.467382    1.788900   -2.830569
   3 C     6.0000    0    12.011    3.680915    1.996994   -5.434519
   4 C     6.0000    0    12.011    6.447987    2.845912   -5.495290
   5 O     8.0000    0    15.999    7.547702    3.403131   -3.442503
   6 O     8.0000    0    15.999    7.484210    2.871834   -7.620713
   7 H     1.0000    0     1.008    2.899844    1.149075    2.326844
   8 H     1.0000    0     1.008    0.628693   -0.709123    1.297508
   9 H     1.0000    0     1.008    3.281121   -2.176257   -2.172024
  10 H     1.0000    0     1.008    5.639891   -0.091613   -1.075207
  11 H     1.0000    0     1.008    2.706179    3.573312   -1.827279
  12 H     1.0000    0     1.008    0.436155    1.463341   -3.046683
  13 H     1.0000    0     1.008    3.596187    0.182201   -6.422604
  14 H     1.0000    0     1.008    2.602422    3.314330   -6.600097
  15 H     1.0000    0     1.008    3.333586   -1.919508    2.298187
  16 O     8.0000    0    15.999    0.217784    2.709783    5.329439
  17 H     1.0000    0     1.008   -1.259036    3.184668    4.381124
  18 O     8.0000    0    15.999   12.637224    2.646784   -7.392285
  19 H     1.0000    0     1.008   13.031695    2.006414   -5.733112
  20 H     1.0000    0     1.008   -0.309624    1.231474    6.286487
  21 H     1.0000    0     1.008   10.769024    2.732331   -7.420876
  22 O     8.0000    0    15.999   10.203801   -1.015121   -2.270922
  23 H     1.0000    0     1.008    9.542192    0.689116   -2.511153
  24 H     1.0000    0     1.008    9.429377   -1.967817   -3.622156
  25 O     8.0000    0    15.999    8.410969   -0.677017    3.567742
  26 H     1.0000    0     1.008    9.201079   -1.319399    2.046820
  27 H     1.0000    0     1.008    7.879193    1.007616    3.117947
  28 O     8.0000    0    15.999   -2.659013    0.955699   -7.850814
  29 H     1.0000    0     1.008   -1.168259    0.463389   -8.781056
  30 H     1.0000    0     1.008   -2.743989   -0.236384   -6.472374
  31 O     8.0000    0    15.999    5.618218   -6.675896    1.146739
  32 H     1.0000    0     1.008    6.703776   -5.307483    0.612066
  33 H     1.0000    0     1.008    4.170754   -6.574779    0.037651
  34 O     8.0000    0    15.999    5.764371    6.479245    0.364919
  35 H     1.0000    0     1.008    6.318469    5.337519   -0.973646
  36 H     1.0000    0     1.008    5.457831    5.406914    1.796703

--------------------------------
INTERNAL COORDINATES (ANGSTROEM)
--------------------------------
 N      0   0   0     0.000000000000     0.00000000     0.00000000
 C      1   0   0     1.498275250035     0.00000000     0.00000000
 C      2   1   0     1.514995556340   111.78392270     0.00000000
 C      3   2   1     1.524224893932   111.53328991   176.64704106
 C      4   3   2     1.531969952790   116.28623488   292.36898866
 O      5   4   3     1.267133833965   119.28846650   357.70944238
 O      5   4   3     1.251350531062   116.16264735   175.92766888
 H      1   2   3     1.023547785049   112.25064770   298.06880097
 H      1   2   3     1.020244835702   112.04104498    58.82462590
 H      2   1   3     1.089530992942   106.91105291   237.31884134
 H      2   1   3     1.084611263218   106.16018832   121.68152627
 H      3   2   1     1.090636626574   109.73090928    55.51965472
 H      3   2   1     1.094588366840   109.47660016   297.74972975
 H      4   3   2     1.094382150359   110.56501908    54.14138039
 H      4   3   2     1.091836808589   109.67028682   170.19253458
 H      1   2   3     1.022460586998   110.24194659   179.44014506
 O      8   1   2     2.284969523244   123.32020201   147.98756709
 H     17   8   1     0.962144447680   103.66455688   294.51847287
 O      7   5   4     2.732132245031   113.39781629   201.73867782
 H     19   7   5     0.963993815727   105.76799291    18.92223729
 H     17   8   1     0.972807976475   104.45131151    43.59242454
 H     19   7   5     0.989760540189     1.66433159   353.94980233
 O     11   2   1     2.544009124375   152.31563551   138.98729734
 H     23  11   2     0.975734355512    60.93632616   115.40243655
 H     23  11   2     0.966121027936    83.20231281     5.80055850
 O     16   1   2     2.846529369818   109.46337734    72.48567954
 H     26  16   1     0.968572563649    97.48546727   271.49256088
 H     26  16   1     0.964655496753    83.10066701    14.98073602
 O     13   3   2     3.036087102446   129.13665158   237.98919654
 H     29  13   3     0.965667692098    90.57344409    23.21477243
 H     29  13   3     0.965422722425    56.65200557   130.01470473
 O     16   1   2     2.857978529714   136.95946729   333.72754358
 H     32  16   1     0.966652637315    69.76069178    70.02767498
 H     32  16   1     0.966448284662    75.25282517   318.03248372
 O     12   3   2     2.515831049256   145.91392767    51.32634582
 H     35  12   3     0.976087392189    58.68628964    27.69845995
 H     35  12   3     0.960404146565    83.91380713   276.10625455

---------------------------
INTERNAL COORDINATES (A.U.)
---------------------------
 N      0   0   0     0.000000000000     0.00000000     0.00000000
 C      1   0   0     2.831329895798     0.00000000     0.00000000
 C      2   1   0     2.862926695590   111.78392270     0.00000000
 C      3   2   1     2.880367616037   111.53328991   176.64704106
 C      4   3   2     2.895003656170   116.28623488   292.36898866
 O      5   4   3     2.394535921220   119.28846650   357.70944238
 O      5   4   3     2.364709801245   116.16264735   175.92766888
 H      1   2   3     1.934224998725   112.25064770   298.06880097
 H      1   2   3     1.927983329024   112.04104498    58.82462590
 H      2   1   3     2.058915191079   106.91105291   237.31884134
 H      2   1   3     2.049618249248   106.16018832   121.68152627
 H      3   2   1     2.061004535848   109.73090928    55.51965472
 H      3   2   1     2.068472242704   109.47660016   297.74972975
 H      4   3   2     2.068082550031   110.56501908    54.14138039
 H      4   3   2     2.063272551168   109.67028682   170.19253458
 H      1   2   3     1.932170492154   110.24194659   179.44014506
 O      8   1   2     4.317966623289   123.32020201   147.98756709
 H     17   8   1     1.818189507389   103.66455688   294.51847287
 O      7   5   4     5.162981704764   113.39781629   201.73867782
 H     19   7   5     1.821684306517   105.76799291    18.92223729
 H     17   8   1     1.838340656432   104.45131151    43.59242454
 H     19   7   5     1.870376359120     1.66433159   353.94980233
 O     11   2   1     4.807480527266   152.31563551   138.98729734
 H     23  11   2     1.843870711375    60.93632616   115.40243655
 H     23  11   2     1.825704155021    83.20231281     5.80055850
 O     16   1   2     5.379160941119   109.46337734    72.48567954
 H     26  16   1     1.830336886126    97.48546727   271.49256088
 H     26  16   1     1.822934702445    83.10066701    14.98073602
 O     13   3   2     5.737373142353   129.13665158   237.98919654
 H     29  13   3     1.824847474441    90.57344409    23.21477243
 H     29  13   3     1.824384548847    56.65200557   130.01470473
 O     16   1   2     5.400796717786   136.95946729   333.72754358
 H     32  16   1     1.826708751158    69.76069178    70.02767498
 H     32  16   1     1.826322580610    75.25282517   318.03248372
 O     12   3   2     4.754231682310   145.91392767    51.32634582
 H     35  12   3     1.844537854011    58.68628964    27.69845995
 H     35  12   3     1.814900814891    83.91380713   276.10625455

--------------------------------------------------------------------------
WARNING: There was an error initializing an OpenFabrics device.

  Local host:   ga01
  Local device: mlx5_0
--------------------------------------------------------------------------


           ************************************************************
           *        Program running with 10 parallel MPI-processes    *
           *              working on a common directory               *
           ************************************************************
------------------------------------------------------------------------------
                   ___                                                        
                  /   \      - P O W E R E D   B Y -                         
                 /     \                                                     
                 |  |  |   _    _      __       _____    __    __             
                 |  |  |  | |  | |    /  \     |  _  \  |  |  /  |          
                  \  \/   | |  | |   /    \    | | | |  |  | /  /          
                 / \  \   | |__| |  /  /\  \   | |_| |  |  |/  /          
                |  |  |   |  __  | /  /__\  \  |    /   |      \           
                |  |  |   | |  | | |   __   |  |    \   |  |\   \          
                \     /   | |  | | |  |  |  |  | |\  \  |  | \   \       
                 \___/    |_|  |_| |__|  |__|  |_| \__\ |__|  \__/        
                                                                              
                      - O R C A' S   B I G   F R I E N D -                    
                                      &                                       
                       - I N T E G R A L  F E E D E R -                       
                                                                              
 v1 FN, 2020, v2 2021, v3 2022-2024                                           
------------------------------------------------------------------------------


----------------------
SHARK INTEGRAL PACKAGE
----------------------

Number of atoms                             ...     37
Number of basis functions                   ...    572
Number of shells                            ...    246
Maximum angular momentum                    ...      3
Integral batch strategy                     ... SHARK/LIBINT Hybrid
RI-J (if used) integral strategy            ... SPLIT-RIJ (Revised 2003 algorithm where possible)
Printlevel                                  ...      1
Contraction scheme used                     ... SEGMENTED contraction
Prescreening option                         ... SCHWARTZ
   Thresh                                   ... 2.500e-11
   Tcut                                     ... 2.500e-12
   Tpresel                                  ... 2.500e-12 
Coulomb Range Separation                    ... NOT USED
Exchange Range Separation                   ... NOT USED
Multipole approximations                    ... NOT USED
Finite Nucleus Model                        ... NOT USED
CABS basis                                  ... NOT available
Auxiliary Coulomb fitting basis             ... AVAILABLE
   # of basis functions in Aux-J            ...    939
   # of shells in Aux-J                     ...    325
   Maximum angular momentum in Aux-J        ...      4
Auxiliary J/K fitting basis                 ... NOT available
Auxiliary Correlation fitting basis         ... NOT available
Auxiliary 'external' fitting basis          ... NOT available

Checking pre-screening integrals            ... done (  0.0 sec) Dimension = 246
Check shell pair data                       ... done (  0.0 sec)
Shell pair information
Shell pair cut-off parameter TPreSel        ...   2.5e-12
Total number of shell pairs                 ...     30381
Shell pairs after pre-screening             ...     21063
Total number of primitive shell pairs       ...     87948
Primitive shell pairs kept                  ...     40832
          la=0 lb=0:   6969 shell pairs
          la=1 lb=0:   6478 shell pairs
          la=1 lb=1:   1571 shell pairs
          la=2 lb=0:   2541 shell pairs
          la=2 lb=1:   1211 shell pairs
          la=2 lb=2:    238 shell pairs
          la=3 lb=0:   1204 shell pairs
          la=3 lb=1:    578 shell pairs
          la=3 lb=2:    215 shell pairs
          la=3 lb=3:     58 shell pairs

Calculating one electron integrals          ... done (  0.0 sec)
Calculating RI/J V-Matrix + Cholesky decomp.... done (  0.0 sec)
Calculating Nuclear repulsion               ... done (  0.0 sec) ENN=   1060.076570732678 Eh

Diagonalization of the overlap matrix:
Smallest eigenvalue                        ... 1.034e-04
Time for diagonalization                   ...    0.033 sec
Threshold for overlap eigenvalues          ... 1.000e-07
Number of eigenvalues below threshold      ... 0
Time for construction of square roots      ...    0.017 sec
Total time needed                          ...    0.055 sec

-------------------
DFT GRID GENERATION
-------------------

General Integration Accuracy     IntAcc      ... 4.388
Radial Grid Type                 RadialGrid  ... OptM3 with GC (2021)
Angular Grid (max. ang.)         AngularGrid ... 4 (Lebedev-302)
Angular grid pruning method      GridPruning ... 4 (adaptive)
Weight generation scheme         WeightScheme... mBecke (2022)
Basis function cutoff            BFCut       ... 1.0000e-11
Integration weight cutoff        WCut        ... 1.0000e-14
Partially contracted basis set               ... off
Rotationally invariant grid construction     ... off
Angular grids for H and He will be reduced by one unit

Total number of grid points                  ...   158282
Total number of batches                      ...     2493
Average number of points per batch           ...       63
Average number of grid points per atom       ...     4278

--------------------
COSX GRID GENERATION
--------------------

GRIDX 1
-------
General Integration Accuracy     IntAcc      ... 3.816
Radial Grid Type                 RadialGrid  ... OptM3 with GC (2021)
Angular Grid (max. ang.)         AngularGrid ... 1 (Lebedev-50)
Angular grid pruning method      GridPruning ... 4 (adaptive)
Weight generation scheme         WeightScheme... mBecke (2022)
Basis function cutoff            BFCut       ... 1.0000e-11
Integration weight cutoff        WCut        ... 1.0000e-14
Partially contracted basis set               ... on
Rotationally invariant grid construction     ... off
Angular grids for H and He will be reduced by one unit

Total number of grid points                  ...    20222
Total number of batches                      ...      174
Average number of points per batch           ...      116
Average number of grid points per atom       ...      547
UseSFitting                                  ... on

GRIDX 2
-------
General Integration Accuracy     IntAcc      ... 4.020
Radial Grid Type                 RadialGrid  ... OptM3 with GC (2021)
Angular Grid (max. ang.)         AngularGrid ... 2 (Lebedev-110)
Angular grid pruning method      GridPruning ... 4 (adaptive)
Weight generation scheme         WeightScheme... mBecke (2022)
Basis function cutoff            BFCut       ... 1.0000e-11
Integration weight cutoff        WCut        ... 1.0000e-14
Partially contracted basis set               ... on
Rotationally invariant grid construction     ... off
Angular grids for H and He will be reduced by one unit

Total number of grid points                  ...    42191
Total number of batches                      ...      349
Average number of points per batch           ...      120
Average number of grid points per atom       ...     1140
UseSFitting                                  ... on

GRIDX 3
-------
General Integration Accuracy     IntAcc      ... 4.338
Radial Grid Type                 RadialGrid  ... OptM3 with GC (2021)
Angular Grid (max. ang.)         AngularGrid ... 3 (Lebedev-194)
Angular grid pruning method      GridPruning ... 4 (adaptive)
Weight generation scheme         WeightScheme... mBecke (2022)
Basis function cutoff            BFCut       ... 1.0000e-11
Integration weight cutoff        WCut        ... 1.0000e-14
Partially contracted basis set               ... on
Rotationally invariant grid construction     ... off
Angular grids for H and He will be reduced by one unit

Total number of grid points                  ...    91754
Total number of batches                      ...      737
Average number of points per batch           ...      124
Average number of grid points per atom       ...     2480
UseSFitting                                  ... on
Initializing property integral containers    ... done (  0.0 sec)

SHARK setup successfully completed in   1.8 seconds

Maximum memory used throughout the entire STARTUP-calculation: 61.1 MB
[ga01:1611006] 9 more processes have sent help message help-mpi-btl-openib.txt / error in device init
[ga01:1611006] Set MCA parameter "orte_base_help_aggregate" to 0 to see all help / error messages
--------------------------------------------------------------------------
WARNING: There was an error initializing an OpenFabrics device.

  Local host:   ga01
  Local device: mlx5_0
--------------------------------------------------------------------------


           ************************************************************
           *        Program running with 10 parallel MPI-processes    *
           *              working on a common directory               *
           ************************************************************
Occupation numbers will be reassigned to an Aufbau configuration
             **** ENERGY FILE WAS UPDATED (02_Aminobutyric-acid_zwitterion.en.tmp) ****
Finished Guess after   0.5 sec
Maximum memory used throughout the entire GUESS-calculation: 44.1 MB
[ga01:1611050] 9 more processes have sent help message help-mpi-btl-openib.txt / error in device init
[ga01:1611050] Set MCA parameter "orte_base_help_aggregate" to 0 to see all help / error messages
--------------------------------------------------------------------------
WARNING: There was an error initializing an OpenFabrics device.

  Local host:   ga01
  Local device: mlx5_0
--------------------------------------------------------------------------
[ga01:1611094] *** Process received signal ***
[ga01:1611094] Signal: Segmentation fault (11)
[ga01:1611094] Signal code: Address not mapped (1)
[ga01:1611094] Failing at address: (nil)
[ga01:1611094] [ 0] /usr/lib64/libpthread.so.0(+0x12cf0)[0x151273c90cf0]
[ga01:1611094] [ 1] /usr/lib64/libc.so.6(+0xc84d2)[0x1512739804d2]
[ga01:1611094] [ 2] /home/yongsang/.openmpi/lib/libopen-rte.so.40(+0x2b27d)[0x151274d7b27d]
[ga01:1611094] [ 3] /home/yongsang/.openmpi/lib/libopen-rte.so.40(orte_show_help_recv+0x147)[0x151274d7b6f7]
[ga01:1611094] [ 4] /home/yongsang/.openmpi/lib/libopen-rte.so.40(orte_rml_base_process_msg+0x39b)[0x151274dd721b]
[ga01:1611094] [ 5] /home/yongsang/.openmpi/lib/libopen-pal.so.40(opal_libevent2022_event_base_loop+0x769)[0x151274ac55b9]
[ga01:1611094] [ 6] mpirun[0x400f39]
[ga01:1611094] [ 7] /usr/lib64/libc.so.6(__libc_start_main+0xe5)[0x1512738f2d85]
[ga01:1611094] [ 8] mpirun[0x400cde]
[ga01:1611094] *** End of error message ***

ORCA finished by error termination in LEANSCF
Calling Command: mpirun -np 10  /home/yongsang/orca_6_0_1_linux_x86-64_shared_openmpi416/orca_leanscf_mpi 02_Aminobutyric-acid_zwitterion.gbw 02_Aminobutyric-acid_zwitterion 
[file orca_tools/qcmsg.cpp, line 394]: 
  .... aborting the run

[file orca_tools/qcmsg.cpp, line 394]: 
  .... aborting the run

