46
 energy: -76.961652913204 gnorm: 0.197979200246 xtb: 6.7.1 (edcfbbe)
C            0.00071700000000       -0.52255800000000        0.67804400000000
C            0.00015500000000        0.09392700000000        2.05036800000000
O           -0.00019500000000       -0.63013100000000        3.03226200000000
O           -0.00079700000000        1.43155900000000        2.21643300000000
C            0.00098900000000        0.52531100000000       -0.44326000000000
N           -0.00030100000000       -0.11659100000000       -1.75665200000000
H            0.90259300000000       -1.16292800000000        0.57888800000000
H           -0.90264000000000       -1.16023800000000        0.57901700000000
H           -0.90200200000000        1.16741300000000       -0.35103700000000
H            0.90366600000000        1.16894900000000       -0.35172000000000
H           -0.85706900000000       -0.70553200000000       -1.86752300000000
H            0.85322800000000       -0.71006900000000       -1.86779500000000
H            0.00165600000000        0.62088700000000       -2.49702600000000
O            0.41724292530000        3.32712237500000        4.12788050000000
H            0.39852730170000        2.47134411260000        3.63004363810000
H            0.44651620140000        4.02309191370000        3.42404750390000
O           -0.02876620010000       -0.59980108760000        6.13066857290000
H           -0.04780695660000       -1.53382110310000        5.80261205290000
H           -0.03569589700000       -0.04778954030000        5.30857115720000
O            4.21127482560000       -0.10598218530000        3.03550939470000
H            4.34586266470000       -0.04581112570000        4.01461233990000
H            3.23125301750000       -0.19475661600000        2.92467038480000
O            3.47524621760000        2.55473286110000        1.43865033660000
H            3.60984621760000        2.61493286110000        2.41775033660000
H            2.49524621760000        2.46593286110000        1.32785033660000
O           -2.67054684460000        1.96348067030000        3.19695816590000
H           -2.23597319870000        2.74784513700000        3.61683450440000
H           -1.92384682860000        1.45051001710000        2.79713035910000
O           -2.26573927270000       -0.38681267180000        3.72495517010000
H           -1.99618772620000        0.29775428780000        4.38766669980000
H           -1.45385005960000       -0.53598322690000        3.17809925560000
H            0.63766975890000       -2.27035072650000        3.19358394880000
O            0.57437382450000       -2.84855780630000        3.99500157870000
H            0.70087965630000       -3.76745830490000        3.64861341760000
H           -0.02062373980000        5.24138440440000        0.97869169700000
O           -0.03787207790000        4.80657201080000        1.86818861500000
H            0.11935288160000        3.84754642230000        1.67865589270000
H            0.28089022590000        3.01316426850000       -3.47363675650000
O           -0.09556813690000        2.10600511720000       -3.59973971160000
H           -0.32355662810000        2.06355318980000       -4.56241589380000
H            2.59854431100000       -2.04610600880000       -1.90615508390000
O            1.70004246410000       -1.84236228300000       -2.26926419350000
H            1.79222871610000       -1.97179716170000       -3.24666961460000
H           -2.39215372350000       -2.69630942760000       -1.71363418170000
O           -1.97162247120000       -1.91128408940000       -2.14667717510000
H           -2.30699357410000       -1.93247866600000       -3.07814535660000
46
 energy: -77.001153013636 gnorm: 0.095702725795 xtb: 6.7.1 (edcfbbe)
C            0.00693499249121       -0.49982198000604        0.65568259274113
C            0.03948695605948        0.12947400541566        2.02491434741026
O            0.06225763471809       -0.60418733009027        3.02235684401196
O            0.01407016224576        1.41560357972913        2.15313483368096
C           -0.00413362923928        0.54519502881327       -0.44992390453011
N           -0.01388977153330       -0.09435935256384       -1.76368074283180
H            0.88816911276815       -1.14950891053250        0.57376661142790
H           -0.88504252323046       -1.13985420352767        0.59278680524294
H           -0.89191316843434        1.17799772467967       -0.33691736421919
H            0.89009406386032        1.17224770467404       -0.35095358018680
H           -0.85722284209981       -0.69430034104337       -1.86841228203260
H            0.83612204589762       -0.71048787735376       -1.88199734708425
H           -0.01418080202131        0.63018155033278       -2.50159573762125
O            0.44871510881263        3.30867075511337        4.14040394968949
H            0.36937926346222        2.48527699163667        3.60669885431731
H            0.42784168127738        4.02721826314082        3.47555123591915
O           -0.03186653291783       -0.60364502519760        6.12207581434283
H           -0.04035499061147       -1.52145740237632        5.79729974967175
H           -0.02863298188521       -0.06609539789024        5.31229649554167
O            4.20327002305001       -0.10294875983108        3.04271438606658
H            4.34415654991817       -0.05419634001594        4.00312475465158
H            3.24345537068202       -0.19388307069099        2.93247246089239
O            3.45965000892814        2.55989975144885        1.43765115116960
H            3.61357823696853        2.61515026740418        2.39521136326982
H            2.49750659991954        2.46251652161962        1.34524667786258
O           -2.67215219944680        2.04508878279840        3.15226714048381
H           -2.23365007722594        2.77413548935303        3.62247912992785
H           -1.93407356629867        1.51581549115929        2.78895469455350
O           -2.30430712061111       -0.44036408487814        3.76457626081475
H           -2.05693066286716        0.24385672002820        4.41096000893295
H           -1.46961076851938       -0.58567379299639        3.25745177306212
H            0.61623773678611       -2.28796844726884        3.24538867878713
O            0.61217088892589       -2.89732340854083        4.01376116989137
H            0.70265736753870       -3.78772289543476        3.63848345623504
H           -0.01589812172611        5.24277032563347        0.98543821606084
O           -0.01753536309061        4.79541413309224        1.84941761281922
H            0.08775638802539        3.84756635669547        1.64872791207185
H            0.27567529201120        2.99829419325023       -3.47603523443776
O           -0.09005287034263        2.10904900368969       -3.60805720899708
H           -0.32178377321298        2.06228650263581       -4.55022169989247
H            2.61804509597527       -2.05297277451089       -1.91664786766224
O            1.73513182538833       -1.87957945523649       -2.27912044630405
H            1.81245789159939       -1.98435918931294       -3.24273971271125
H           -2.38787800041340       -2.69213160683098       -1.71569432217868
O           -1.99232950239923       -1.92090267171902       -2.15087425172767
H           -2.31318693738264       -1.94245534559484       -3.06751638753290
46
 energy: -77.018285186718 gnorm: 0.033900375937 xtb: 6.7.1 (edcfbbe)
C            0.01304411911581       -0.48071915002887        0.63845166058792
C            0.05280549009861        0.17973271027299        2.00564716626181
O            0.12957972603218       -0.56878531753663        3.01267774611054
O            0.04603171690651        1.41645281067934        2.09367695784758
C           -0.00464577817647        0.56169115259785       -0.45844576012709
N           -0.02471509106097       -0.07206014493004       -1.77653199815540
H            0.88200088810826       -1.13599729442698        0.56490901657269
H           -0.87536058971438       -1.11564965060346        0.60512999373596
H           -0.88424893281615        1.18877836658515       -0.33082107625060
H            0.88298907801766        1.18257309101944       -0.35897375866242
H           -0.85567016064068       -0.68300974600300       -1.87189404955829
H            0.81295690501142       -0.70634802880717       -1.90139152652202
H           -0.02930802246050        0.64466640029982       -2.51255305870439
O            0.44587966710724        3.28889421322758        4.15031110254714
H            0.36524137366608        2.49639407434049        3.58704973467188
H            0.42154157370521        4.02826577445150        3.52378498853411
O           -0.04780796324851       -0.60874806218043        6.11202199530198
H           -0.02594748806487       -1.51926015164931        5.79747181389562
H           -0.00948211748614       -0.08490387452976        5.30671021426741
O            4.19380426732384       -0.09755025446884        3.04868074451515
H            4.34850538383594       -0.06747131720264        3.99591342946521
H            3.24788496722364       -0.19854093847311        2.93875108571355
O            3.43802738544089        2.56407514618955        1.42932510652159
H            3.62802221359037        2.61929980941172        2.36889888701983
H            2.48610293177786        2.45887979820728        1.36552133380908
O           -2.66024569205986        2.09543393245040        3.13638831853488
H           -2.23462788361429        2.80506933912189        3.62225882489086
H           -1.93276249466439        1.57674531010284        2.77197796727925
O           -2.34409780636147       -0.47828974224828        3.79094068686408
H           -2.13307564133064        0.19797184070082        4.44200691094624
H           -1.47617822733334       -0.64179150164112        3.35292710073429
H            0.58903800417431       -2.28814632681123        3.32753213296715
O            0.63860570389923       -2.95457318354420        4.04377611698819
H            0.70962146571493       -3.81394898559509        3.61948828465411
H           -0.00980144965929        5.24713094922659        0.98912560552363
O           -0.00276689354417        4.77971752040935        1.82907852547969
H            0.05934411113757        3.84050690136777        1.61944562350313
H            0.27351108536258        2.98628085907270       -3.47375747386036
O           -0.08378819082897        2.10961560939406       -3.61726880967217
H           -0.32332145100329        2.05669941371075       -4.54407611409972
H            2.64266957818907       -2.05869242379687       -1.92082040308583
O            1.77285990065635       -1.91174421826348       -2.29130064606853
H            1.83596000463148       -2.00269203013961       -3.24502215505461
H           -2.38637299128327       -2.69255730880116       -1.71220483396410
O           -2.01582525742512       -1.93230142672106       -2.15881565405575
H           -2.32778332615055       -1.95358446553710       -3.06509486630279
46
 energy: -77.026989762582 gnorm: 0.038884544738 xtb: 6.7.1 (edcfbbe)
C            0.02294446806448       -0.47346046762082        0.63163437663889
C            0.10509340572409        0.21115541230143        1.99862266555434
O            0.18304682130637       -0.53700895727753        3.01264112200520
O            0.05143413477267        1.45032622092198        2.05072182512261
C           -0.00292684876597        0.56737824694151       -0.46938580423084
N           -0.03417794633231       -0.06234968421362       -1.79199440739910
H            0.88569305278496       -1.13343593985488        0.54816114128552
H           -0.87513037092766       -1.09493116943830        0.62275416463025
H           -0.88018811227387        1.19891201331567       -0.33290657672370
H            0.88556436798132        1.19048081121476       -0.37814134609887
H           -0.86388131061865       -0.67428904581353       -1.87933308650848
H            0.79315578576695       -0.70255298255539       -1.92401155459874
H           -0.04401956196832        0.65720658835249       -2.52678981146778
O            0.46286303927182        3.26681787156710        4.17127661160436
H            0.34867683148264        2.50592250757548        3.56571291928335
H            0.40336479780341        4.04405982460559        3.58576092611773
O           -0.07955471699790       -0.61406258571530        6.09962210890200
H           -0.00057294455374       -1.53097781692487        5.80045481149942
H            0.02542260776433       -0.10199198392515        5.28559585107133
O            4.18691132869908       -0.07918701556594        3.04952749786940
H            4.35972470919152       -0.09199302249876        3.99694769047568
H            3.24213732983383       -0.21139989803942        2.94640115278937
O            3.40752510358667        2.57913706529639        1.40509503552006
H            3.66409765035813        2.62176643316389        2.33548144822178
H            2.45166145602190        2.44557677649944        1.40230041673575
O           -2.65535005125676        2.17050472907319        3.09290887925856
H           -2.23222030773169        2.84482007258155        3.64761678211725
H           -1.92508597863116        1.63858602322440        2.75673631875617
O           -2.36324976714415       -0.53960289542936        3.80819550743858
H           -2.22776992425688        0.14003345067610        4.48529282653128
H           -1.46344835138995       -0.66936751653023        3.42308733370629
H            0.56482801981197       -2.27611594127659        3.42463491960013
O            0.66660762272856       -3.00339078852964        4.08785617514706
H            0.70457286639054       -3.83618343613461        3.58926433113017
H           -0.00199811010356        5.25917218630608        0.99135529456141
O            0.02761163340972        4.76090745640978        1.81559358425873
H            0.00846858046927        3.81806659940426        1.57418307714904
H            0.27350561614385        2.98134634767709       -3.46957515481770
O           -0.07414278829233        2.10181999089491       -3.62493304318566
H           -0.33061913742600        2.05106043131015       -4.54809503445716
H            2.67274694039781       -2.05410789645371       -1.92178547658354
O            1.80005830478176       -1.93314273793129       -2.30016176725843
H            1.86370130735644       -2.02299746618181       -3.25396380225036
H           -2.38258515921676       -2.70127072267449       -1.70086979750552
O           -2.04411957208332       -1.93208377078759       -2.16234384749047
H           -2.35218273013381       -1.97164383903959       -3.07023939280454
46
 energy: -77.032610548843 gnorm: 0.034366587026 xtb: 6.7.1 (edcfbbe)
C            0.03680508851250       -0.45942005869269        0.62236588858144
C            0.13248420856251        0.23791957961238        1.99159275477044
O            0.23581684093439       -0.51217523030147        3.00451190508401
O            0.08727407378872        1.48108783662644        2.02517471888291
C            0.00243015087825        0.57608051748794       -0.48636780281528
N           -0.04448635060068       -0.05383267238745       -1.81141365713831
H            0.89112501864061       -1.12873631880759        0.53017504013587
H           -0.87156391042572       -1.06393286446654        0.63662935607049
H           -0.87330469345318        1.21096641439570       -0.34298976917606
H            0.89220118259288        1.20203000677310       -0.40604967204227
H           -0.87699981249506       -0.66291424197461       -1.88968269968704
H            0.77164548054634       -0.69625182328545       -1.95079832815345
H           -0.05977494267786        0.67080717719400       -2.54532936083346
O            0.43322347024924        3.25266041850554        4.18191859946471
H            0.34905821703876        2.51454588176301        3.55532818650597
H            0.40376185291766        4.04359673870873        3.62565629843255
O           -0.08264554934404       -0.62488608010783        6.07634573254408
H            0.01728378935365       -1.54793623108895        5.80354822560949
H            0.05041189742193       -0.12768985573336        5.25718956043737
O            4.17727657049088       -0.05156705613727        3.05339923414264
H            4.37146136710883       -0.12534553767077        3.99991090410718
H            3.23505060531158       -0.23336950477188        2.96075280253930
O            3.36385350470782        2.58813819529362        1.37464735002275
H            3.70121858505880        2.62416923859889        2.28765099728569
H            2.40559228718921        2.43464963502570        1.45325393524565
O           -2.63621216637193        2.23569883228067        3.08409939631315
H           -2.23226129809683        2.90747811372472        3.64202712797646
H           -1.90466171166046        1.71266030736662        2.74195102429326
O           -2.38043752367210       -0.60865466088114        3.83865349423358
H           -2.32155281321087        0.07072815093263        4.53474578795386
H           -1.45769210441511       -0.70415382178613        3.50848206146475
H            0.57288851540107       -2.27198177645263        3.51598865191271
O            0.63514035457440       -3.02312294664094        4.12687256057789
H            0.70789308164658       -3.82886815169823        3.60629919971709
H           -0.00266252015921        5.25337432465236        0.98820991338315
O            0.02756739122182        4.73335240652722        1.79861265343808
H           -0.00313333462902        3.80392287264866        1.54895311507285
H            0.27252774009720        2.97332935228314       -3.46543628800146
O           -0.06118172079232        2.08880145353474       -3.63503072470478
H           -0.34145317070946        2.04628427546147       -4.55386715890872
H            2.71208693825662       -2.04462696139733       -1.92561298569095
O            1.83534461281588       -1.95554135331331       -2.31078257017698
H            1.90481251444024       -2.04951577064491       -3.26500622995977
H           -2.37632526928054       -2.70921977657710       -1.69050685964882
O           -2.08388072145995       -1.92521649393895       -2.16748486350537
H           -2.38781163450542       -1.99581306173909       -3.07768061415546
46
 energy: -77.036270364584 gnorm: 0.026047263297 xtb: 6.7.1 (edcfbbe)
C            0.04843480534471       -0.44033228584738        0.61557456536229
C            0.15641278534609        0.25982916779614        1.98646729798461
O            0.26710819618499       -0.48492334555700        2.99489024061752
O            0.13349274549067        1.50754932931131        2.01421605943953
C            0.00942442334273        0.58547048685601       -0.50439643325740
N           -0.05483796418769       -0.05117992312907       -1.82784498792851
H            0.89287175644317       -1.12209459324124        0.51478418591135
H           -0.86989101807465       -1.02850654924353        0.64856198805543
H           -0.86433731748537        1.22409019010958       -0.36023729156811
H            0.90220601423462        1.21194383363704       -0.43901969036400
H           -0.89440690489798       -0.65303278992683       -1.89844075871724
H            0.75299331229195       -0.68999350326483       -1.97212274730642
H           -0.07325057458953        0.67833725802783       -2.56259249945510
O            0.41674998958137        3.23289892707130        4.20072421946053
H            0.34370802454280        2.52388319586527        3.53585932552403
H            0.40081865085219        4.05121233442223        3.68203334252186
O           -0.06730255353495       -0.63895878496085        6.04583160661137
H            0.02717267776183       -1.56959653737221        5.80767182244671
H            0.07199585879674       -0.15966713883789        5.22129090270580
O            4.16958568689086       -0.06243699752677        3.06406055752637
H            4.37609627038008       -0.13367710411040        4.00136006580611
H            3.22896035061517       -0.24054994334270        2.97614858690572
O            3.32500694120276        2.57251105890245        1.35798834166684
H            3.68292813058049        2.62467585671210        2.24942847021396
H            2.37582623196550        2.43827699256406        1.46624086139298
O           -2.61081654431867        2.30369186112066        3.06180431486979
H           -2.23160575096615        2.96080136450354        3.66041996381267
H           -1.86309803523726        1.78886718288671        2.73636118499329
O           -2.39694419250552       -0.65606490424350        3.86772728008948
H           -2.37908223517705        0.00161294122838        4.57586756037413
H           -1.47134333013779       -0.73176475794682        3.57775248896976
H            0.53989854684347       -2.25249604361997        3.62009389474649
O            0.66462984011851       -3.04416016000300        4.18180738337981
H            0.68985811751773       -3.81874940819324        3.59049688561633
H            0.00169204169335        5.23943998394966        0.98382296951324
O            0.06068386429365        4.71231030669949        1.78803448416840
H           -0.05400559837445        3.78022933306998        1.52773978993868
H            0.27171241784365        2.96005370819235       -3.46528057564447
O           -0.04910098085598        2.07128813329889       -3.64686448843041
H           -0.35423917406423        2.04208266173772       -4.56070621694852
H            2.75105634738815       -2.03495560945426       -1.93352154860353
O            1.87285041815575       -1.96951682775311       -2.32195157803570
H            1.95152631831496       -2.07755628359701       -3.27584448604672
H           -2.37719390566528       -2.71035084361846       -1.68189568132683
O           -2.12011013092760       -1.92066764109496       -2.17203191761356
H           -2.42594046122013       -2.02231465317561       -3.08140284777714
46
 energy: -77.038491834311 gnorm: 0.035927725620 xtb: 6.7.1 (edcfbbe)
C            0.05754713763313       -0.41715449444176        0.60903462593644
C            0.20108844513052        0.27394270791449        1.98241909201633
O            0.29575811697516       -0.46681710428558        2.98379304898553
O            0.17224367029513        1.52395691308331        2.01546306335880
C            0.01545406143170        0.59845016275241       -0.52037051568812
N           -0.06516201115448       -0.05096720051355       -1.83858362389009
H            0.89135063174213       -1.11034263028441        0.49696275292356
H           -0.86816606113915       -0.99347509356416        0.65830461008725
H           -0.85384030250354        1.24235572783589       -0.37825839063933
H            0.91295379789100        1.21994078575431       -0.47151592062648
H           -0.91295026624366       -0.64356319789512       -1.90333140192487
H            0.73872341322181       -0.68462983298589       -1.98550490389792
H           -0.08372755581206        0.67932234872462       -2.57679539854659
O            0.39573036844503        3.21568114062485        4.21702102193231
H            0.33802007448550        2.53232707828801        3.51619585453337
H            0.38690477130956        4.05640690829862        3.72927180483709
O           -0.09371816208161       -0.64819873743849        6.01203679204144
H            0.06216420755353       -1.59334232119428        5.82033171430809
H            0.12499624982701       -0.20096376595581        5.16942967018902
O            4.15681270954368       -0.06072842331994        3.07493909163908
H            4.38516385272233       -0.15509551608013        4.00445034208678
H            3.21828461767266       -0.24853110343799        3.00182508774070
O            3.25744912709880        2.57150730579713        1.32303631214973
H            3.69407811798498        2.61750806046811        2.18857068660556
H            2.31363386551213        2.42688321891277        1.51665399120282
O           -2.57999018636559        2.36975427125144        3.03841280122973
H           -2.22928122032440        3.01212085887645        3.68166944329779
H           -1.80960185675773        1.86940632262295        2.73516730215487
O           -2.41446976976631       -0.70190627429695        3.88045780368393
H           -2.44158844667019       -0.07594350607668        4.61173921710308
H           -1.48203402708336       -0.74738299736223        3.63027461227047
H            0.52087580898000       -2.24859906131726        3.68312763248382
O            0.66024513744942       -3.03197425023174        4.22464733275436
H            0.68274571027787       -3.78834609994604        3.63137825716544
H           -0.00336497046151        5.20903087526791        0.97290004747639
O            0.04984497482393        4.68504687147291        1.77514598954851
H           -0.03535564520904        3.76842423799023        1.53332400333528
H            0.27349731980804        2.94098923505565       -3.47118950159385
O           -0.04747116395715        2.05498562356572       -3.65890268377497
H           -0.36225212451245        2.03598906105342       -4.56839341611717
H            2.78761666480482       -2.02868775061747       -1.94375344624810
O            1.91190535241058       -1.97458634910249       -2.33257381871293
H            1.99854043382226       -2.10796854843087       -3.28353464869189
H           -2.38637989432925       -2.70349977765279       -1.67737784195753
O           -2.14546268293438       -1.92125207812347       -2.17701472385931
H           -2.46061819975001       -2.04256412215391       -3.07997687730673
46
 energy: -77.039613028722 gnorm: 0.042465375545 xtb: 6.7.1 (edcfbbe)
C            0.06199223262193       -0.39517026835657        0.60823833430376
C            0.23140554294132        0.28644748701011        1.98214843352707
O            0.32264605905950       -0.44980036595322        2.98219426516415
O            0.20967989374853        1.53932355701739        2.02224524355748
C            0.01946401151381        0.61127824879932       -0.52871663565134
N           -0.07269305353361       -0.05271338154387       -1.84041046000066
H            0.88873296818567       -1.09525272198127        0.48863535640495
H           -0.86591458134545       -0.96690056623663        0.66558388018367
H           -0.84422835049677        1.26195969279516       -0.39084821974589
H            0.92199461941861        1.22493364542762       -0.49353701527083
H           -0.92761872044878       -0.63587775798911       -1.90221600959417
H            0.73109115226588       -0.68383804973217       -1.98806808273676
H           -0.08855920828468        0.67346116258033       -2.58420357503532
O            0.35916574369837        3.20790195297664        4.22873041078806
H            0.33963385126283        2.53299528870140        3.52171709692941
H            0.39728919571936        4.04331589949456        3.74839197506155
O           -0.02308725072203       -0.66669222407509        5.98113722767977
H            0.05474284337912       -1.60943178342028        5.81011535877688
H            0.11201545009196       -0.22676508716089        5.14426735117985
O            4.14014832580641       -0.03624412570675        3.07937580155631
H            4.39907386315879       -0.18961469188419        4.00595006230655
H            3.20311749886717       -0.26345465613865        3.03124029050593
O            3.19360980070755        2.56728317161458        1.29845993307743
H            3.67635061751158        2.60652689343212        2.14356857764461
H            2.25928649345039        2.41234351853728        1.54175352978714
O           -2.54213708969892        2.40672869536957        3.05703158407888
H           -2.21669506459632        3.07284439668579        3.65818942427828
H           -1.76332377181722        1.94056377447629        2.72869982470770
O           -2.43125012832567       -0.74642058629144        3.87641652502201
H           -2.51175762282571       -0.15535559887910        4.64698602655993
H           -1.48001637959045       -0.75134357387170        3.66707794996015
H            0.51312478075276       -2.23414426180385        3.72992051652703
O            0.66873942627344       -3.01771959163611        4.25548015932632
H            0.66852320535297       -3.75955629307387        3.65437979354010
H           -0.00584898560495        5.18424576135508        0.95839682497299
O            0.08979869536601        4.67427733086589        1.76803873418587
H           -0.07362580502984        3.74757409977120        1.53387126975178
H            0.27574863541389        2.92227715736129       -3.47904064348752
O           -0.05105087798536        2.04107397644390       -3.66973597806082
H           -0.36749856546789        2.03020692854788       -4.57615807437087
H            2.81848215025009       -2.01980805442407       -1.95442306473845
O            1.94360444427350       -1.97178201254169       -2.34086448937685
H            2.03386839422453       -2.13384518979649       -3.28756492736473
H           -2.38632688812575       -2.69859696289363       -1.67502334780165
O           -2.16755500519498       -1.91457425268996       -2.17932396053574
H           -2.48594845442539       -2.05515110228054       -3.07720038597239
46
 energy: -77.040919695906 gnorm: 0.033168020436 xtb: 6.7.1 (edcfbbe)
C            0.06050737544416       -0.38145044086182        0.60976627136776
C            0.22215535338374        0.29622501524175        1.98092886626774
O            0.32816105742255       -0.43769875455314        2.98548692712403
O            0.24179025748781        1.55136151701188        2.02350534286555
C            0.02196647111618        0.62052992558856       -0.53020234267190
N           -0.07534198218458       -0.05455778785822       -1.83662324448306
H            0.88537947649321       -1.08357764876671        0.49218873468966
H           -0.86567580078160       -0.95326923975164        0.66532934505007