
                                 *****************
                                 * O   R   C   A *
                                 *****************

                                            #,                                       
                                            ###                                      
                                            ####                                     
                                            #####                                    
                                            ######                                   
                                           ########,                                 
                                     ,,################,,,,,                         
                               ,,#################################,,                 
                          ,,##########################################,,             
                       ,#########################################, ''#####,          
                    ,#############################################,,   '####,        
                  ,##################################################,,,,####,       
                ,###########''''           ''''###############################       
              ,#####''   ,,,,##########,,,,          '''####'''          '####       
            ,##' ,,,,###########################,,,                        '##       
           ' ,,###''''                  '''############,,,                           
         ,,##''                                '''############,,,,        ,,,,,,###''
      ,#''                                            '''#######################'''  
     '                                                          ''''####''''         
             ,#######,   #######,   ,#######,      ##                                
            ,#'     '#,  ##    ##  ,#'     '#,    #''#        ,####,   ,####,        
            ##       ##  ##   ,#'  ##            #'  '#       #'       #'  '#        
            ##       ##  #######   ##           ,######,      #####,   #    #        
            '#,     ,#'  ##    ##  '#,     ,#' ,#      #,     #,   #   #,  ,#        
             '#######'   ##     ##  '#######'  #'      '#     '####' # '####'        



                #########################################################
                #                        -***-                          #
                #          Department of theory and spectroscopy        #
                #                                                       #
                #                      Frank Neese                      #
                #                                                       #
                #     Directorship, Architecture, Infrastructure        #
                #                    SHARK, DRIVERS                     #
                #        Core code/Algorithms in most modules           #
                #                                                       #
                #        Max Planck Institute fuer Kohlenforschung      #
                #                Kaiser Wilhelm Platz 1                 #
                #                 D-45470 Muelheim/Ruhr                 #
                #                      Germany                          #
                #                                                       #
                #                  All rights reserved                  #
                #                        -***-                          #
                #########################################################


                         Program Version 6.0.1  -  RELEASE   -


 With contributions from (in alphabetic order):
[Max-Planck-Institut fuer Kohlenforschung]                               
  Daniel Aravena         : Magnetic Suceptibility                        
  Michael Atanasov       : Ab Initio Ligand Field Theory (pilot matlab implementation)
  Alexander A. Auer      : GIAO ZORA, VPT2 properties, NMR spectrum      
  Ute Becker             : All parallelization in ORCA, NUMFREQ, NUMCALC 
  Giovanni Bistoni       : ED, misc. LED, open-shell LED, HFLD           
  Martin Brehm           : Molecular dynamics                            
  Dmytro Bykov           : pre 5.0 version of the SCF Hessian            
  Marcos Casanova-Páez   : Triplet and SCS-CIS(D). UHF-(DLPNO)-IP/EA/STEOM-CCSD. UHF-CVS-IP/STEOM-CCSD   
  Vijay G. Chilkuri      : MRCI spin determinant printing, contributions to CSF-ICE 
  Pauline Colinet        : FMM embedding                                 
  Dipayan Datta          : RHF DLPNO-CCSD density                        
  Achintya Kumar Dutta   : EOM-CC, STEOM-CC                              
  Nicolas Foglia         : Exact transition moments, OPA infrastructure, MCD improvements    
  Dmitry Ganyushin       : Spin-Orbit,Spin-Spin,Magnetic field MRCI      
  Miquel Garcia-Rates    : C-PCM and meta-GGA Hessian, CCSD/C-PCM, Gaussian charge scheme 
  Tiago L. C. Gouveia    : GS-ROHF, GS-ROCIS                             
  Yang Guo               : DLPNO-NEVPT2, F12-NEVPT2, CIM, IAO-localization        
  Andreas Hansen         : Spin unrestricted coupled pair/coupled cluster methods 
  Ingolf Harden          : AUTO-CI MPn and infrastructure                
  Benjamin Helmich-Paris : MC-RPA, TRAH-(SCF,CASSCF), AVAS, COSX integrals, SCF dyn. polar. 
  Lee Huntington         : MR-EOM, pCC                                   
  Robert Izsak           : Overlap fitted RIJCOSX, COSX-SCS-MP3, EOM     
  Riya Kayal             : Wick's Theorem for AUTO-CI, AUTO-CI UHF-CCSDT 
  Emily Kempfer          : AUTO-CI, RHF CISDT and CCSDT                  
  Christian Kollmar      : KDIIS, OOCD, Brueckner-CCSD(T), CCSD density, CASPT2, CASPT2-K, improved NEVPT2 
  Axel Koslowski         : Symmetry handling                             
  Simone Kossmann        : meta-GGA functionals, TD-DFT gradient, OOMP2, (MP2 Hessian; deprecated post 5.0) 
  Lucas Lang             : DCDCAS                                        
  Marvin Lechner         : AUTO-CI (C++ implementation), FIC-MRCC        
  Spencer Leger          : CASSCF response                               
  Dagmar Lenk            : GEPOL surface, SMD, ORCA-2-JSON               
  Dimitrios Liakos       : Extrapolation schemes; Compound Job, initial MDCI parallelization 
  Dimitrios Manganas     : Further ROCIS development; embedding schemes. LFT, Crystal Embedding 
  Dimitrios Pantazis     : SARC Basis sets                               
  Anastasios Papadopoulos: AUTO-CI, single reference methods and gradients 
  Taras Petrenko         : pre 6.0 DFT Hessian and TD-DFT gradient, (ASA, deprecated), ECA, 1-Electron XAS/XES, NRVS 
  Peter Pinski           : DLPNO-MP2, DLPNO-MP2 Gradient                 
  Christoph Reimann      : Effective Core Potentials                     
  Marius Retegan         : Local ZFS, SOC                                
  Christoph Riplinger    : Optimizer, TS searches, QM/MM, DLPNO-CCSD(T), (RO)-DLPNO pert. Triples 
  Michael Roemelt        : Original ROCIS implementation                 
  Masaaki Saitow         : Open-shell DLPNO-CCSD energy and density      
  Barbara Sandhoefer     : DKH picture change effects                    
  Kantharuban Sivalingam : CASSCF convergence/infrastructure, NEVPT2 and variants, FIC-MRCI 
  Bernardo de Souza      : ESD, SOC TD-DFT                               
  Georgi L. Stoychev     : AutoAux, RI-MP2 NMR, DLPNO-MP2 response, X2C  
  Van Anh Tran           : RI-MP2 g-tensors                              
  Willem Van den Heuvel  : Paramagnetic NMR                              
  Zikuan Wang            : NOTCH, Electric field optimization            
  Frank Wennmohs         : Technical directorship and infrastructure     
  Hang Xu                : AUTO-CI-Response properties                   
                                                                         
[FACCTs GmbH]                                                            
  Markus Bursch, Miquel Garcia-Rates, Christoph Riplinger, Bernardo de Souza, Georgi L. Stoychev 
                                                                 
  APM, Basis sets (HGBS, AHGBS, def-TZVP (Ac-Lr), def2-XVPD (La-Lu)), CI-OPT, improved COSX, DLPNO-Multilevel,           
  DOCKER, DRACO, updates on ESD, GOAT, IRC, LR-CPCM, MBIS, meta-GGA TD-DFT gradient, ML-optimized integration grids, 
  MM, NACMEs, nearIR, NEB, NEB-TS, NL-DFT gradient (VV10), 2- and 3-layer-ONIOM, interface openCOSMO-RS, QMMM,   
  Crystal-QMMM, SF, symmetry and pop. for TD-DFT, r2SCAN hybrids, SOLVATOR                                   
                                                                         
[Other institutions]                                                     
  V. Asgeirsson          : NEB                                           
  Christoph Bannwarth    : sTDA-DFT, sTD-DFT, PBEh-3c, B97-3c, D3        
  Sebastian Ehlert       : rSCAN, r2SCAN, r2SCAN-3c, D4, dhf basis sets  
  Marvin Friede          : D4 for Fr, Ra, Ac-Lr                          
  Lars Goerigk           : TD-DFT with DH, B97 family of functionals     
  Stefan Grimme          : VdW corrections, initial TS optimization, DFT functionals, gCP, sTDA/sTD-DF 
  Waldemar Hujo          : DFT-NL                                        
  H. Jonsson             : NEB                                           
  Holger Kruse           : gCP                                           
  Marcel Mueller         : wB97X-3c, vDZP basis set                      
  Hagen Neugebauer       : wr2SCAN                                       
  Tobias Risthaus        : range-separated hybrid DFT                    
  Lukas Wittmann         : regularized MP2, r2SCAN double-hybrids, wr2SCAN        
                                                                         
We gratefully acknowledge several colleagues who have allowed us to      
interface, adapt or use parts of their codes:                            
  Ed Valeev, F. Pavosevic, A. Kumar             : LibInt (2-el integral package), F12 methods 
  Garnet Chan, S. Sharma, J. Yang, R. Olivares  : DMRG                   
  Ulf Ekstrom                                   : XCFun DFT Library      
  Mihaly Kallay                                 : mrcc  (arbitrary order and MRCC methods)
  Frank Weinhold                                : gennbo (NPA and NBO analysis)           
  Simon Mueller                                 : openCOSMO-RS                            
  Christopher J. Cramer and Donald G. Truhlar   : smd solvation model                     
  S Lehtola, MJT Oliveira, MAL Marques          : LibXC Library                           
  Liviu Ungur et al                             : ANISO software                          


 Your calculation uses the libint2 library for the computation of 2-el integrals
 For citations please refer to: http://libint.valeyev.net

 Your ORCA version has been built with support for libXC version: 6.2.2
 For citations please refer to: https://libxc.gitlab.io

 This ORCA versions uses:
   CBLAS   interface :  Fast vector & matrix operations
   LAPACKE interface :  Fast linear algebra routines
   SCALAPACK package :  Parallel linear algebra routines
   Shared memory     :  Shared parallel matrices
   BLAS/LAPACK       :  OpenBLAS 0.3.27  USE64BITINT DYNAMIC_ARCH NO_AFFINITY SkylakeX SINGLE_THREADED
        Core in use  :  SkylakeX
   Copyright (c) 2011-2014, The OpenBLAS Project


NOTE: MaxCore=5000 MB was set to SCF,MP2,MDCI,CIPSI,MRCI and CIS
      => If you want to overwrite this, your respective input block should be placed after the MaxCore statement
Your calculation utilizes the atom-pairwise dispersion correction
based on EEQ partial charges (D4)


Warning: RI is on but no J-basis has been assigned. Assigning Def2/J (nothing to worry about!)
================================================================================

----- Orbital basis set information -----
Your calculation utilizes the basis: def2-TZVP
   F. Weigend and R. Ahlrichs, Phys. Chem. Chem. Phys. 7, 3297 (2005).

----- AuxJ basis set information -----
Your calculation utilizes the auxiliary basis: def2/J
   F. Weigend, Phys. Chem. Chem. Phys. 8, 1057 (2006).

================================================================================
                                        WARNINGS
                       Please study these warnings very carefully!
================================================================================


WARNING: Geometry Optimization
  ===> : Switching off AutoStart
         For restart on a previous wavefunction, please use MOREAD

================================================================================
                                       INPUT FILE
================================================================================
NAME = 03_Alanine_zwitterion.inp
|  1> ! Opt B3LYP D4 def2-TZVP TightSCF TightOpt CPCM(water)
|  2> 
|  3> %maxcore 5000
|  4> 
|  5> %pal
|  6> nprocs 6
|  7> end
|  8> 
|  9> * xyz 0 1
| 10> C         -0.03670        0.72550       -2.96510
| 11> C         -0.81390        0.35210       -4.19420
| 12> O         -1.02240       -0.94420       -4.49520
| 13> O         -1.26870        1.22070       -4.92140
| 14> C          1.39150        0.17060       -3.03250
| 15> N          2.14960        0.53270       -1.83530
| 16> H         -0.55840        0.31470       -2.07410
| 17> H          0.00550        1.83310       -2.87030
| 18> H          1.90610        0.58070       -3.93030
| 19> H          1.35880       -0.93830       -3.12200
| 20> H          2.21140        1.57330       -1.74930
| 21> H          1.68940        0.13500       -0.98430
| 22> H          3.11640        0.14180       -1.91090
| 23> *
| 24> 
| 25>                          ****END OF INPUT****
================================================================================

                       *****************************
                       * Geometry Optimization Run *
                       *****************************

Geometry optimization settings:
Update method            Update   .... BFGS
Choice of coordinates    CoordSys .... (2022) Redundant Internals
Initial Hessian          InHess   .... Almloef's Model
Max. no of cycles        MaxIter  .... 50

Convergence Tolerances:
Energy Change            TolE     ....  1.0000e-06 Eh
Max. Gradient            TolMAXG  ....  1.0000e-04 Eh/bohr
RMS Gradient             TolRMSG  ....  3.0000e-05 Eh/bohr
Max. Displacement        TolMAXD  ....  1.0000e-03 bohr
RMS Displacement         TolRMSD  ....  6.0000e-04 bohr
Strict Convergence                .... False

------------------------------------------------------------------------------
                        ORCA OPTIMIZATION COORDINATE SETUP
------------------------------------------------------------------------------

The optimization will be done in redundant internal coordinates (2022)
Making redundant internal coordinates   ...  (2022 redundants) done
Evaluating the initial hessian          ...  (Almloef) done
Evaluating the coordinates              ...  done
Calculating the B-matrix                .... done
Calculating the G-matrix                .... done
Diagonalizing the G-matrix              .... done
The first mode is                       ....   17
The number of degrees of freedom        ....   33

    -----------------------------------------------------------------
                    Redundant Internal Coordinates


    -----------------------------------------------------------------
         Definition                    Initial Value    Approx d2E/dq
    -----------------------------------------------------------------
      1. B(C   1,C   0)                  1.5014         0.414985   
      2. B(O   2,C   1)                  1.3470         0.655307   
      3. B(O   3,C   1)                  1.2207         1.042244   
      4. B(C   4,C   0)                  1.5337         0.368542   
      5. B(N   5,C   4)                  1.4626         0.428637   
      6. B(H   6,C   0)                  1.1112         0.333096   
      7. B(H   7,C   0)                  1.1125         0.331593   
      8. B(H   8,C   4)                  1.1131         0.330776   
      9. B(H   9,C   4)                  1.1130         0.330940   
     10. B(H  10,N   5)                  1.0460         0.379140   
     11. B(H  11,N   5)                  1.0460         0.379082   
     12. B(H  12,N   5)                  1.0456         0.379702   
     13. A(C   4,C   0,H   6)          109.7961         0.319495   
     14. A(C   1,C   0,C   4)          110.8603         0.369096   
     15. A(H   6,C   0,H   7)          108.5150         0.283642   
     16. A(C   1,C   0,H   7)          109.6954         0.325528   
     17. A(C   4,C   0,H   7)          109.1868         0.319259   
     18. A(C   1,C   0,H   6)          108.7497         0.325770   
     19. A(O   2,C   1,O   3)          119.6022         0.475568   
     20. A(C   0,C   1,O   2)          120.1586         0.405442   
     21. A(C   0,C   1,O   3)          120.2371         0.440485   
     22. A(N   5,C   4,H   9)          109.1305         0.325202   
     23. A(C   0,C   4,H   9)          109.6731         0.319156   
     24. A(N   5,C   4,H   8)          109.2309         0.325175   
     25. A(C   0,C   4,H   8)          109.4298         0.319130   
     26. A(H   8,C   4,H   9)          108.4088         0.283248   
     27. A(C   0,C   4,N   5)          110.9242         0.368834   
     28. A(H  11,N   5,H  12)          108.8741         0.290876   
     29. A(H  10,N   5,H  12)          108.8598         0.290883   
     30. A(C   4,N   5,H  12)          109.1194         0.329826   
     31. A(H  10,N   5,H  11)          109.7157         0.290808   
     32. A(C   4,N   5,H  11)          110.1070         0.329737   
     33. A(C   4,N   5,H  10)          110.1349         0.329745   
     34. D(O   3,C   1,C   0,C   4)   -119.6099         0.012744   
     35. D(O   2,C   1,C   0,C   4)     60.9145         0.012744   
     36. D(O   2,C   1,C   0,H   6)    -59.8891         0.012744   
     37. D(O   3,C   1,C   0,H   6)    119.5866         0.012744   
     38. D(O   2,C   1,C   0,H   7)   -178.4241         0.012744   
     39. D(N   5,C   4,C   0,H   6)    -59.7749         0.010863   
     40. D(N   5,C   4,C   0,C   1)   -179.9570         0.010863   
     41. D(H   8,C   4,C   0,H   6)    179.6415         0.010863   
     42. D(H   8,C   4,C   0,C   1)     59.4594         0.010863   
     43. D(H   8,C   4,C   0,H   7)    -61.5031         0.010863   
     44. D(N   5,C   4,C   0,H   7)     59.0805         0.010863   
     45. D(H  10,N   5,C   4,H   9)    178.5344         0.016785   
     46. D(H  10,N   5,C   4,H   8)     60.1742         0.016785   
     47. D(H  11,N   5,C   4,C   0)     60.5944         0.016785   
     48. D(H  10,N   5,C   4,C   0)    -60.5272         0.016785   
     49. D(H  11,N   5,C   4,H   9)    -60.3441         0.016785   
     50. D(H  11,N   5,C   4,H   8)   -178.7042         0.016785   
    -----------------------------------------------------------------

Number of atoms                         .... 13
Number of degrees of freedom            .... 50


         *************************************************************
         *                GEOMETRY OPTIMIZATION CYCLE   1            *
         *************************************************************
---------------------------------
CARTESIAN COORDINATES (ANGSTROEM)
---------------------------------
  C     -0.036700    0.725500   -2.965100
  C     -0.813900    0.352100   -4.194200
  O     -1.022400   -0.944200   -4.495200
  O     -1.268700    1.220700   -4.921400
  C      1.391500    0.170600   -3.032500
  N      2.149600    0.532700   -1.835300
  H     -0.558400    0.314700   -2.074100
  H      0.005500    1.833100   -2.870300
  H      1.906100    0.580700   -3.930300
  H      1.358800   -0.938300   -3.122000
  H      2.211400    1.573300   -1.749300
  H      1.689400    0.135000   -0.984300
  H      3.116400    0.141800   -1.910900

----------------------------
CARTESIAN COORDINATES (A.U.)
----------------------------
  NO LB      ZA    FRAG     MASS         X           Y           Z
   0 C     6.0000    0    12.011   -0.069353    1.370996   -5.603227
   1 C     6.0000    0    12.011   -1.538048    0.665373   -7.925889
   2 O     8.0000    0    15.999   -1.932056   -1.784279   -8.494697
   3 O     8.0000    0    15.999   -2.397496    2.306789   -9.300098
   4 C     6.0000    0    12.011    2.629554    0.322387   -5.730595
   5 N     7.0000    0    14.007    4.062155    1.006657   -3.468214
   6 H     1.0000    0     1.008   -1.055223    0.594697   -3.919481
   7 H     1.0000    0     1.008    0.010393    3.464057   -5.424081
   8 H     1.0000    0     1.008    3.602007    1.097364   -7.427191
   9 H     1.0000    0     1.008    2.567760   -1.773130   -5.899725
  10 H     1.0000    0     1.008    4.178940    2.973106   -3.305698
  11 H     1.0000    0     1.008    3.192503    0.255113   -1.860057
  12 H     1.0000    0     1.008    5.889143    0.267963   -3.611078

--------------------------------
INTERNAL COORDINATES (ANGSTROEM)
--------------------------------
 C      0   0   0     0.000000000000     0.00000000     0.00000000
 C      1   0   0     1.501384098091     0.00000000     0.00000000
 O      2   1   0     1.347021506881   120.15863600     0.00000000
 O      2   1   3     1.220708335353   120.23711846   179.47564779
 C      1   2   3     1.533692280088   110.86030038    60.91447139
 N      5   1   2     1.462573027237   110.92421733   180.04297083
 H      1   2   3     1.111219388780   108.74967741   300.11092721
 H      1   2   3     1.112450286530   109.69536329   181.57592114
 H      5   1   2     1.113121740871   109.42982177    59.45937557
 H      5   1   2     1.112986410519   109.67306179   300.66056515
 H      6   5   1     1.045974951899   110.13491520   299.47279154
 H      6   5   1     1.046016410005   110.10701515    60.59436495
 H      6   5   1     1.045571810064   109.11935177   180.03389185

---------------------------
INTERNAL COORDINATES (A.U.)
---------------------------
 C      0   0   0     0.000000000000     0.00000000     0.00000000
 C      1   0   0     2.837204767216     0.00000000     0.00000000
 O      2   1   0     2.545501744507   120.15863600     0.00000000
 O      2   1   3     2.306804443212   120.23711846   179.47564779
 C      1   2   3     2.898258383075   110.86030038    60.91447139
 N      5   1   2     2.763862472337   110.92421733   180.04297083
 H      1   2   3     2.099900319497   108.74967741   300.11092721
 H      1   2   3     2.102226379143   109.69536329   181.57592114
 H      5   1   2     2.103495243960   109.42982177    59.45937557
 H      5   1   2     2.103239506657   109.67306179   300.66056515
 H      6   5   1     1.976606202030   110.13491520   299.47279154
 H      6   5   1     1.976684546497   110.10701515    60.59436495
 H      6   5   1     1.975844374369   109.11935177   180.03389185

---------------------
BASIS SET INFORMATION
---------------------
There are 4 groups of distinct atoms

 Group   1 Type C   : 11s6p2d1f contracted to 5s3p2d1f pattern {62111/411/11/1}
 Group   2 Type O   : 11s6p2d1f contracted to 5s3p2d1f pattern {62111/411/11/1}
 Group   3 Type N   : 11s6p2d1f contracted to 5s3p2d1f pattern {62111/411/11/1}
 Group   4 Type H   : 5s1p contracted to 3s1p pattern {311/1}

Atom   0C    basis set group =>   1
Atom   1C    basis set group =>   1
Atom   2O    basis set group =>   2
Atom   3O    basis set group =>   2
Atom   4C    basis set group =>   1
Atom   5N    basis set group =>   3
Atom   6H    basis set group =>   4
Atom   7H    basis set group =>   4
Atom   8H    basis set group =>   4
Atom   9H    basis set group =>   4
Atom  10H    basis set group =>   4
Atom  11H    basis set group =>   4
Atom  12H    basis set group =>   4
---------------------------------
AUXILIARY/J BASIS SET INFORMATION
---------------------------------
There are 4 groups of distinct atoms

 Group   1 Type C   : 12s5p4d2f1g contracted to 6s4p3d1f1g pattern {711111/2111/211/2/1}
 Group   2 Type O   : 12s5p4d2f1g contracted to 6s4p3d1f1g pattern {711111/2111/211/2/1}
 Group   3 Type N   : 12s5p4d2f1g contracted to 6s4p3d1f1g pattern {711111/2111/211/2/1}
 Group   4 Type H   : 5s2p1d contracted to 3s1p1d pattern {311/2/1}

Atom   0C    basis set group =>   1
Atom   1C    basis set group =>   1
Atom   2O    basis set group =>   2
Atom   3O    basis set group =>   2
Atom   4C    basis set group =>   1
Atom   5N    basis set group =>   3
Atom   6H    basis set group =>   4
Atom   7H    basis set group =>   4
Atom   8H    basis set group =>   4
Atom   9H    basis set group =>   4
Atom  10H    basis set group =>   4
Atom  11H    basis set group =>   4
Atom  12H    basis set group =>   4
--------------------------------------------------------------------------
WARNING: There was an error initializing an OpenFabrics device.

  Local host:   ga00
  Local device: mlx5_0
--------------------------------------------------------------------------


           ************************************************************
           *        Program running with 6 parallel MPI-processes     *
           *              working on a common directory               *
           ************************************************************
------------------------------------------------------------------------------
                             ORCA STARTUP CALCULATIONS
                           -- RI-GTO INTEGRALS CHOSEN --
------------------------------------------------------------------------------
------------------------------------------------------------------------------
                   ___                                                        
                  /   \      - P O W E R E D   B Y -                         
                 /     \                                                     
                 |  |  |   _    _      __       _____    __    __             
                 |  |  |  | |  | |    /  \     |  _  \  |  |  /  |          
                  \  \/   | |  | |   /    \    | | | |  |  | /  /          
                 / \  \   | |__| |  /  /\  \   | |_| |  |  |/  /          
                |  |  |   |  __  | /  /__\  \  |    /   |      \           
                |  |  |   | |  | | |   __   |  |    \   |  |\   \          
                \     /   | |  | | |  |  |  |  | |\  \  |  | \   \       
                 \___/    |_|  |_| |__|  |__|  |_| \__\ |__|  \__/        
                                                                              
                      - O R C A' S   B I G   F R I E N D -                    
                                      &                                       
                       - I N T E G R A L  F E E D E R -                       
                                                                              
 v1 FN, 2020, v2 2021, v3 2022-2024                                           
------------------------------------------------------------------------------


----------------------
SHARK INTEGRAL PACKAGE
----------------------

Number of atoms                             ...     13
Number of basis functions                   ...    228
Number of shells                            ...     94
Maximum angular momentum                    ...      3
Integral batch strategy                     ... SHARK/LIBINT Hybrid
RI-J (if used) integral strategy            ... SPLIT-RIJ (Revised 2003 algorithm where possible)
Printlevel                                  ...      1
Contraction scheme used                     ... SEGMENTED contraction
Prescreening option                         ... SCHWARTZ
   Thresh                                   ... 2.500e-11
   Tcut                                     ... 2.500e-12
   Tpresel                                  ... 2.500e-12 
Coulomb Range Separation                    ... NOT USED
Exchange Range Separation                   ... NOT USED
Multipole approximations                    ... NOT USED
Finite Nucleus Model                        ... NOT USED
CABS basis                                  ... NOT available
Auxiliary Coulomb fitting basis             ... AVAILABLE
   # of basis functions in Aux-J            ...    371
   # of shells in Aux-J                     ...    125
   Maximum angular momentum in Aux-J        ...      4
Auxiliary J/K fitting basis                 ... NOT available
Auxiliary Correlation fitting basis         ... NOT available
Auxiliary 'external' fitting basis          ... NOT available

Checking pre-screening integrals            ... done (  0.0 sec) Dimension = 94
Check shell pair data                       ... done (  0.0 sec)
Shell pair information
Shell pair cut-off parameter TPreSel        ...   2.5e-12
Total number of shell pairs                 ...      4465
Shell pairs after pre-screening             ...      4125
Total number of primitive shell pairs       ...     13356
Primitive shell pairs kept                  ...      9556
          la=0 lb=0:   1194 shell pairs
          la=1 lb=0:   1196 shell pairs
          la=1 lb=1:    316 shell pairs
          la=2 lb=0:    555 shell pairs
          la=2 lb=1:    285 shell pairs
          la=2 lb=2:     74 shell pairs
          la=3 lb=0:    278 shell pairs
          la=3 lb=1:    140 shell pairs
          la=3 lb=2:     68 shell pairs
          la=3 lb=3:     19 shell pairs

Calculating one electron integrals          ... done (  0.0 sec)
Calculating RI/J V-Matrix + Cholesky decomp.... done (  0.0 sec)
Calculating Nuclear repulsion               ... done (  0.0 sec) ENN=    237.924937787524 Eh

Diagonalization of the overlap matrix:
Smallest eigenvalue                        ... 2.473e-04
Time for diagonalization                   ...    0.004 sec
Threshold for overlap eigenvalues          ... 1.000e-07
Number of eigenvalues below threshold      ... 0
Time for construction of square roots      ...    0.002 sec
Total time needed                          ...    0.006 sec

-------------------
DFT GRID GENERATION
-------------------

General Integration Accuracy     IntAcc      ... 4.388
Radial Grid Type                 RadialGrid  ... OptM3 with GC (2021)
Angular Grid (max. ang.)         AngularGrid ... 4 (Lebedev-302)
Angular grid pruning method      GridPruning ... 4 (adaptive)
Weight generation scheme         WeightScheme... mBecke (2022)
Basis function cutoff            BFCut       ... 1.0000e-11
Integration weight cutoff        WCut        ... 1.0000e-14
Partially contracted basis set               ... off
Rotationally invariant grid construction     ... off
Angular grids for H and He will be reduced by one unit

Total number of grid points                  ...    58888
Total number of batches                      ...      927
Average number of points per batch           ...       63
Average number of grid points per atom       ...     4530

--------------------
COSX GRID GENERATION
--------------------

GRIDX 1
-------
General Integration Accuracy     IntAcc      ... 3.816
Radial Grid Type                 RadialGrid  ... OptM3 with GC (2021)
Angular Grid (max. ang.)         AngularGrid ... 1 (Lebedev-50)
Angular grid pruning method      GridPruning ... 4 (adaptive)
Weight generation scheme         WeightScheme... mBecke (2022)
Basis function cutoff            BFCut       ... 1.0000e-11
Integration weight cutoff        WCut        ... 1.0000e-14
Partially contracted basis set               ... on
Rotationally invariant grid construction     ... off
Angular grids for H and He will be reduced by one unit

Total number of grid points                  ...     7535
Total number of batches                      ...       68
Average number of points per batch           ...      110
Average number of grid points per atom       ...      580
UseSFitting                                  ... on

GRIDX 2
-------
General Integration Accuracy     IntAcc      ... 4.020
Radial Grid Type                 RadialGrid  ... OptM3 with GC (2021)
Angular Grid (max. ang.)         AngularGrid ... 2 (Lebedev-110)
Angular grid pruning method      GridPruning ... 4 (adaptive)
Weight generation scheme         WeightScheme... mBecke (2022)
Basis function cutoff            BFCut       ... 1.0000e-11
Integration weight cutoff        WCut        ... 1.0000e-14
Partially contracted basis set               ... on
Rotationally invariant grid construction     ... off
Angular grids for H and He will be reduced by one unit

Total number of grid points                  ...    16334
Total number of batches                      ...      134
Average number of points per batch           ...      121
Average number of grid points per atom       ...     1256
UseSFitting                                  ... on

GRIDX 3
-------
General Integration Accuracy     IntAcc      ... 4.338
Radial Grid Type                 RadialGrid  ... OptM3 with GC (2021)
Angular Grid (max. ang.)         AngularGrid ... 3 (Lebedev-194)
Angular grid pruning method      GridPruning ... 4 (adaptive)
Weight generation scheme         WeightScheme... mBecke (2022)
Basis function cutoff            BFCut       ... 1.0000e-11
Integration weight cutoff        WCut        ... 1.0000e-14
Partially contracted basis set               ... on
Rotationally invariant grid construction     ... off
Angular grids for H and He will be reduced by one unit

Total number of grid points                  ...    35841
Total number of batches                      ...      288
Average number of points per batch           ...      124
Average number of grid points per atom       ...     2757
UseSFitting                                  ... on
Initializing property integral containers    ... done (  0.0 sec)

SHARK setup successfully completed in   0.5 seconds

Maximum memory used throughout the entire STARTUP-calculation: 21.0 MB
[ga00:434086] 5 more processes have sent help message help-mpi-btl-openib.txt / error in device init
[ga00:434086] Set MCA parameter "orte_base_help_aggregate" to 0 to see all help / error messages
--------------------------------------------------------------------------
WARNING: There was an error initializing an OpenFabrics device.

  Local host:   ga00
  Local device: mlx5_0
--------------------------------------------------------------------------


           ************************************************************
           *        Program running with 6 parallel MPI-processes     *
           *              working on a common directory               *
           ************************************************************
-------------------------------------------------------------------------------
                                 ORCA GUESS
                   Start orbitals & Density for SCF / CASSCF
-------------------------------------------------------------------------------

------------
SCF SETTINGS
------------
Hamiltonian:
 Density Functional     Method          .... DFT(GTOs)
 Exchange Functional    Exchange        .... B88
   X-Alpha parameter    XAlpha          ....  0.666667
   Becke's b parameter  XBeta           ....  0.004200
 Correlation Functional Correlation     .... LYP
 LDA part of GGA corr.  LDAOpt          .... VWN-5
 Gradients option       PostSCFGGA      .... off
 Hybrid DFT is turned on
   Fraction HF Exchange ScalHFX         ....  0.200000
   Scaling of DF-GGA-X  ScalDFX         ....  0.720000
   Scaling of DF-GGA-C  ScalDFC         ....  0.810000
   Scaling of DF-LDA-C  ScalLDAC        ....  1.000000
   Perturbative correction              ....  0.000000
   NL short-range parameter             ....  4.800000
 RI-approximation to the Coulomb term is turned on
   Number of AuxJ basis functions       .... 371
   RIJ-COSX (HFX calculated with COS-X)).... on


General Settings:
 Integral files         IntName         .... 03_Alanine_zwitterion
 Hartree-Fock type      HFTyp           .... RHF
 Total Charge           Charge          ....    0
 Multiplicity           Mult            ....    1
 Number of Electrons    NEL             ....   48
 Basis Dimension        Dim             ....  228
 Nuclear Repulsion      ENuc            ....    237.9249377875 Eh

Convergence Acceleration:
 AO-DIIS                CNVDIIS         .... on
   Start iteration      DIISMaxIt       ....    12
   Startup error        DIISStart       ....  0.200000
   # of expansion vecs  DIISMaxEq       ....     5
   Bias factor          DIISBfac        ....   1.050
   Max. coefficient     DIISMaxC        ....  10.000
 MO-DIIS                CNVKDIIS        .... off
 Trust-Rad. Augm. Hess. CNVTRAH         .... auto
   Auto Start mean grad. ratio tolernc. ....  1.125000
   Auto Start start iteration           ....    50
   Auto Start num. interpolation iter.  ....    10
   Max. Number of Micro iterations      ....    24
   Max. Number of Macro iterations      .... Maxiter - #DIIS iter
   Number of Davidson start vectors     ....     2
   Converg. threshold    (grad. norm)   ....   1.000e-05
   Grad. Scal. Fac. for Micro threshold ....   0.100
   Minimum threshold for Micro iter.    ....   1.000e-02
   NR start threshold (gradient norm)   ....   1.000e-04
   Initial trust radius                 ....   0.400
   Minimum AH scaling param. (alpha)    ....   1.000
   Maximum AH scaling param. (alpha)    .... 1000.000
   Quad. conv. algorithm                .... NR
   White noise on init. David. guess    .... on
   Maximum white noise                  ....   0.010
   Pseudo random numbers                .... off
   Inactive MOs                         .... canonical
   Orbital update algorithm             .... Taylor
   Preconditioner                       .... Diag
   Full preconditioner red. dimension   ....   250
 SOSCF                  CNVSOSCF        .... on
   Start iteration      SOSCFMaxIt      ....   150
   Startup grad/error   SOSCFStart      ....  0.003300
   Hessian update       SOSCFHessUp     .... L-BFGS
 Level Shifting         CNVShift        .... on
   Level shift para.    LevelShift      ....    0.2500
   Turn off err/grad.   ShiftErr        ....    0.0010
 Zerner damping         CNVZerner       .... off
 Static damping         CNVDamp         .... on
   Fraction old density DampFac         ....    0.7000
   Max. Damping (<1)    DampMax         ....    0.9800
   Min. Damping (>=0)   DampMin         ....    0.0000
   Turn off err/grad.   DampErr         ....    0.1000

SCF Procedure:
 Maximum # iterations   MaxIter         ....   125
 SCF integral mode      SCFMode         .... Direct
   Integral package                     .... SHARK and LIBINT hybrid scheme
 Reset frequency        DirectResetFreq ....    20
 Integral Threshold     Thresh          ....  2.500e-11 Eh
 Primitive CutOff       TCut            ....  2.500e-12 Eh

Convergence Tolerance:
 Convergence Check Mode ConvCheckMode   .... Total+1el-Energy
 Convergence forced     ConvForced      .... 0
 Energy Change          TolE            ....  1.000e-08 Eh
 1-El. energy change                    ....  1.000e-05 Eh
 Orbital Gradient       TolG            ....  1.000e-05
 Orbital Rotation angle TolX            ....  1.000e-05
 DIIS Error             TolErr          ....  5.000e-07

------------------------------
INITIAL GUESS: MODEL POTENTIAL
------------------------------
Loading Hartree-Fock densities                     ... done
Calculating cut-offs                               ... done
Initializing the effective Hamiltonian             ... done
Setting up the integral package (SHARK)            ... done
Starting the Coulomb interaction                   ... done (   0.0 sec)
Making the grid                                    ... done (   0.1 sec)
Mapping shells                                     ... done
Starting the XC term evaluation                    ... done (   0.0 sec)
  promolecular density results
     # of electrons  =     47.995635105
     EX              =    -40.438621362
     EC              =     -1.631007770
     EX+EC           =    -42.069629132
Transforming the Hamiltonian                       ... done (   0.0 sec)
Diagonalizing the Hamiltonian                      ... done (   0.0 sec)
Back transforming the eigenvectors                 ... done (   0.0 sec)
Now organizing SCF variables                       ... done
                      ------------------
                      INITIAL GUESS DONE (   0.1 sec)
                      ------------------
             **** ENERGY FILE WAS UPDATED (03_Alanine_zwitterion.en.tmp) ****
Finished Guess after   0.4 sec
Maximum memory used throughout the entire GUESS-calculation: 13.7 MB
[ga00:434144] 5 more processes have sent help message help-mpi-btl-openib.txt / error in device init
[ga00:434144] Set MCA parameter "orte_base_help_aggregate" to 0 to see all help / error messages
--------------------------------------------------------------------------
WARNING: There was an error initializing an OpenFabrics device.

  Local host:   ga00
  Local device: mlx5_0
--------------------------------------------------------------------------


           ************************************************************
           *        Program running with 6 parallel MPI-processes     *
           *              working on a common directory               *
           ************************************************************

-------------------------------------------------------------------------------------------
                                      ORCA LEAN-SCF
                              memory conserving SCF solver
-------------------------------------------------------------------------------------------

--------------------
CPCM SOLVATION MODEL
--------------------
CPCM parameters:
  Epsilon                                         ...      80.1510
  Refrac                                          ...       1.3328
  Rsolv                                           ...       1.3000
  Surface type                                    ... GAUSSIAN VDW
  Discretization scheme                           ... Constant charge density
    Threshold for H atoms                         ...       5.0000 (charges/Ang^2)
    Threshold for non-H atoms                     ...       5.0000 (charges/Ang^2)
  Epsilon function type                           ...         CPCM
Solvent:                                          ... WATER
Radii:
  Scheme                                          ... Element-dependent radii
  Radius for C  used is    3.8550 Bohr (=   2.0400 Ang.)
  Radius for O  used is    3.4469 Bohr (=   1.8240 Ang.)
  Radius for N  used is    3.5149 Bohr (=   1.8600 Ang.)
  Radius for H  used is    2.4944 Bohr (=   1.3200 Ang.)
Calculating surface                               ...        done! (  0.0s)
Cavity surface points                             ...         1169
Cavity Volume                                     ...     772.2427
Cavity Surface-area                               ...     483.5325
Calculating surface distance matrix               ...        done! (  0.0s)
Performing Cholesky decomposition & store         ...        done! (  0.0s)
Overall time for CPCM initialization              ...                 0.0s

----------------------------------------D-I-I-S--------------------------------------------
Iteration    Energy (Eh)           Delta-E    RMSDP     MaxDP     DIISErr   Damp  Time(sec)
-------------------------------------------------------------------------------------------
               ***  Starting incremental Fock matrix formation  ***
    1    -323.4175409805285994     0.00e+00  4.17e-03  3.42e-01  3.66e-01  0.700   0.9
    2    -323.5601227217088649    -1.43e-01  3.79e-03  3.50e-01  1.42e-01  0.700   0.5
                               ***Turning on AO-DIIS***
    3    -323.6077061395505439    -4.76e-02  1.31e-03  1.07e-01  3.53e-02  0.700   0.5
    4    -323.6381776122196356    -3.05e-02  1.13e-03  4.92e-02  1.47e-02  0.000   0.5
    5    -323.7080908848610648    -6.99e-02  9.89e-04  9.84e-02  8.65e-03  0.000   0.5
                              *** Initializing SOSCF ***
---------------------------------------S-O-S-C-F--------------------------------------
Iteration    Energy (Eh)           Delta-E    RMSDP     MaxDP     MaxGrad    Time(sec)
--------------------------------------------------------------------------------------
    6    -323.7084856191248150    -3.95e-04  3.51e-04  3.44e-02  2.11e-03     0.5
               *** Restarting incremental Fock matrix formation ***
    7    -323.7084992256430382    -1.36e-05  2.12e-04  1.92e-02  4.41e-04     0.8
[ga00:434173] 5 more processes have sent help message help-mpi-btl-openib.txt / error in device init
[ga00:434173] Set MCA parameter "orte_base_help_aggregate" to 0 to see all help / error messages
    8    -323.7084929078462778     6.32e-06  5.27e-05  3.38e-03  1.09e-03     0.7
    9    -323.7085048115030190    -1.19e-05  3.72e-05  3.60e-03  7.01e-05     0.7
   10    -323.7085047084310077     1.03e-07  6.93e-06  5.79e-04  7.75e-05     0.7
   11    -323.7085050034232268    -2.95e-07  8.53e-06  8.26e-04  1.67e-05     0.6
   12    -323.7085049971367994     6.29e-09  4.30e-06  4.17e-04  2.42e-05     0.6
                 **** Energy Check signals convergence ****

               *****************************************************
               *                     SUCCESS                       *
               *           SCF CONVERGED AFTER  12 CYCLES          *
               *****************************************************

Recomputing exchange energy using gridx3       ... done (    1.168 sec)
Old exchange energy                            :     -8.209082200 Eh
New exchange energy                            :     -8.209079153 Eh
Exchange energy change after final integration :      0.000003048 Eh
Total energy after final integration           :   -323.708501949 Eh
             **** ENERGY FILE WAS UPDATED (03_Alanine_zwitterion.en.tmp) ****

----------------
TOTAL SCF ENERGY
----------------

Total Energy       :       -323.70850194938146 Eh           -8808.55616 eV

Components:
Nuclear Repulsion  :        237.92493778752402 Eh            6474.26670 eV
Electronic Energy  :       -561.50912063412875 Eh          -15279.43996 eV
One Electron Energy:       -913.11076347679023 Eh          -24847.00707 eV
Two Electron Energy:        351.60164284266153 Eh            9567.56711 eV
CPCM Dielectric    :         -0.12432215053217 Eh              -3.38298 eV

Virial components:
Potential Energy   :       -645.73676249711502 Eh          -17571.39062 eV
Kinetic Energy     :        322.02826054773351 Eh            8762.83446 eV
Virial Ratio       :          2.00521768306542

DFT components:
N(Alpha)           :       23.999987570591 electrons
N(Beta)            :       23.999987570591 electrons
N(Total)           :       47.999975141182 electrons
E(X)               :      -32.667393281712 Eh       
E(C)               :       -1.929970853280 Eh       
E(XC)              :      -34.597364134992 Eh       

CPCM Solvation Model Properties:
Surface-charge          :         -0.01893712665950
Corrected charge        :         -0.00000000000000
Outlying charge corr.   :          0.00002936916764 Eh               0.00080 eV
Free-energy (cav+disp)  :  This term is not implemented in the current solvation scheme

---------------
SCF CONVERGENCE
---------------

  Last Energy change         ...   -6.2864e-09  Tolerance :   1.0000e-08
  Last MAX-Density change    ...    4.1670e-04  Tolerance :   1.0000e-07
  Last RMS-Density change    ...    4.2969e-06  Tolerance :   5.0000e-09
  Last DIIS Error            ...    2.1139e-03  Tolerance :   5.0000e-07
  Last Orbital Gradient      ...    2.4178e-05  Tolerance :   1.0000e-05
  Last Orbital Rotation      ...    1.9394e-05  Tolerance :   1.0000e-05


----------------
ORBITAL ENERGIES
----------------

  NO   OCC          E(Eh)            E(eV) 
   0   2.0000     -19.063160      -518.7349 
   1   2.0000     -19.043387      -518.1969 
   2   2.0000     -14.434547      -392.7840 
   3   2.0000     -10.249242      -278.8961 
   4   2.0000     -10.230430      -278.3842 
   5   2.0000     -10.177597      -276.9465 
   6   2.0000      -1.019035       -27.7293 
   7   2.0000      -0.997263       -27.1369 
   8   2.0000      -0.896375       -24.3916 
   9   2.0000      -0.772842       -21.0301 
  10   2.0000      -0.657502       -17.8915 
  11   2.0000      -0.579778       -15.7766 
  12   2.0000      -0.575202       -15.6520 
  13   2.0000      -0.504795       -13.7362 
  14   2.0000      -0.483353       -13.1527 
  15   2.0000      -0.452954       -12.3255 
  16   2.0000      -0.419001       -11.4016 
  17   2.0000      -0.405758       -11.0412 
  18   2.0000      -0.393256       -10.7010 
  19   2.0000      -0.356197        -9.6926 
  20   2.0000      -0.347870        -9.4660 
  21   2.0000      -0.246001        -6.6940 
  22   2.0000      -0.238401        -6.4872 
  23   2.0000      -0.216199        -5.8831 
  24   0.0000       0.011115         0.3024 
  25   0.0000       0.038916         1.0590 
  26   0.0000       0.064303         1.7498 
  27   0.0000       0.066738         1.8160 
  28   0.0000       0.070277         1.9123 
  29   0.0000       0.102138         2.7793 
  30   0.0000       0.120218         3.2713 
  31   0.0000       0.133581         3.6349 
  32   0.0000       0.142795         3.8856 
  33   0.0000       0.160355         4.3635 
  34   0.0000       0.182947         4.9782 
*Only the first 10 virtual orbitals were printed.

                    ********************************
                    * MULLIKEN POPULATION ANALYSIS *
                    ********************************

-----------------------
MULLIKEN ATOMIC CHARGES
-----------------------
   0 C :   -0.155307
   1 C :    0.201991
   2 O :   -0.692240
   3 O :   -0.486669
   4 C :   -0.163527
   5 N :   -0.250873
   6 H :    0.121283
   7 H :    0.100789
   8 H :    0.163119
   9 H :    0.140947
  10 H :    0.339628
  11 H :    0.338733
  12 H :    0.342125
Sum of atomic charges:    0.0000000

--------------------------------
MULLIKEN REDUCED ORBITAL CHARGES
--------------------------------
  0 C s       :     3.184363  s :     3.184363
      pz      :     0.996352  p :     2.889916
      px      :     0.900154
      py      :     0.993410
      dz2     :     0.014121  d :     0.075155
      dxz     :     0.019508
      dyz     :     0.009424
      dx2y2   :     0.019681
      dxy     :     0.012421
      f0      :     0.000740  f :     0.005873
      f+1     :     0.001154
      f-1     :     0.000769
      f+2     :     0.000687
      f-2     :     0.000609
      f+3     :     0.000874
      f-3     :     0.001041

  1 C s       :     3.047645  s :     3.047645
      pz      :     0.906722  p :     2.520422
      px      :     0.836066
      py      :     0.777634
      dz2     :     0.039555  d :     0.205678
      dxz     :     0.017688
      dyz     :     0.052169
      dx2y2   :     0.038026
      dxy     :     0.058240
      f0      :     0.003066  f :     0.024263
      f+1     :     0.001534
      f-1     :     0.005109
      f+2     :     0.004537
      f-2     :     0.003340
      f+3     :     0.003337
      f-3     :     0.003341

  2 O s       :     3.810273  s :     3.810273
      pz      :     1.758649  p :     4.857461
      px      :     1.676902
      py      :     1.421910
      dz2     :     0.003005  d :     0.023131
      dxz     :     0.000481
      dyz     :     0.006037
      dx2y2   :     0.007691
      dxy     :     0.005917
      f0      :     0.000148  f :     0.001376
      f+1     :     0.000023
      f-1     :     0.000248
      f+2     :     0.000246
      f-2     :     0.000059
      f+3     :     0.000322
      f-3     :     0.000329

  3 O s       :     3.751053  s :     3.751053
      pz      :     1.566146  p :     4.706149
      px      :     1.534431
      py      :     1.605572
      dz2     :     0.006009  d :     0.027669
      dxz     :     0.003728
      dyz     :     0.007002
      dx2y2   :     0.005275
      dxy     :     0.005655
      f0      :     0.000165  f :     0.001798
      f+1     :     0.000094
      f-1     :     0.000454
      f+2     :     0.000319
      f-2     :     0.000334
      f+3     :     0.000182
      f-3     :     0.000250

  4 C s       :     3.264842  s :     3.264842
      pz      :     0.840054  p :     2.789925
      px      :     0.898823
      py      :     1.051048
      dz2     :     0.019351  d :     0.100436
      dxz     :     0.032572
      dyz     :     0.010632
      dx2y2   :     0.023603
      dxy     :     0.014278
      f0      :     0.001430  f :     0.008323
      f+1     :     0.001753
      f-1     :     0.000967
      f+2     :     0.001107
      f-2     :     0.001134
      f+3     :     0.000910
      f-3     :     0.001022

  5 N s       :     3.445902  s :     3.445902
      pz      :     1.225955  p :     3.756209
      px      :     1.259697
      py      :     1.270557
      dz2     :     0.014631  d :     0.046441
      dxz     :     0.007435
      dyz     :     0.008126
      dx2y2   :     0.011603
      dxy     :     0.004646
      f0      :     0.000307  f :     0.002321
      f+1     :     0.000574
      f-1     :     0.000409
      f+2     :     0.000233
      f-2     :     0.000225
      f+3     :     0.000060
      f-3     :     0.000513

  6 H s       :     0.857578  s :     0.857578
      pz      :     0.010027  p :     0.021139
      px      :     0.006123
      py      :     0.004989

  7 H s       :     0.878025  s :     0.878025
      pz      :     0.004031  p :     0.021186
      px      :     0.003784
      py      :     0.013371

  8 H s       :     0.816169  s :     0.816169
      pz      :     0.010363  p :     0.020712
      px      :     0.005502
      py      :     0.004847

  9 H s       :     0.837746  s :     0.837746
      pz      :     0.003343  p :     0.021306
      px      :     0.003868
      py      :     0.014095

 10 H s       :     0.628737  s :     0.628737
      pz      :     0.005584  p :     0.031635
      px      :     0.005634
      py      :     0.020418

 11 H s       :     0.629645  s :     0.629645
      pz      :     0.015883  p :     0.031621
      px      :     0.008207
      py      :     0.007531

 12 H s       :     0.626394  s :     0.626394
      pz      :     0.005529  p :     0.031481
      px      :     0.018463
      py      :     0.007488



                     *******************************
                     * LOEWDIN POPULATION ANALYSIS *
                     *******************************

----------------------
LOEWDIN ATOMIC CHARGES
----------------------
   0 C :   -0.245810
   1 C :   -0.641923
   2 O :   -0.288457
   3 O :   -0.062286
   4 C :   -0.265134
   5 N :    0.179330
   6 H :    0.154285
   7 H :    0.147739
   8 H :    0.154771
   9 H :    0.149476
  10 H :    0.238834
  11 H :    0.239088
  12 H :    0.240087

-------------------------------
LOEWDIN REDUCED ORBITAL CHARGES
-------------------------------
  0 C s       :     2.796177  s :     2.796177
      pz      :     1.032238  p :     3.054871
      px      :     0.998751
      py      :     1.023883
      dz2     :     0.073297  d :     0.357371
      dxz     :     0.092249
      dyz     :     0.040676
      dx2y2   :     0.094266
      dxy     :     0.056884
      f0      :     0.004645  f :     0.037390
      f+1     :     0.006295
      f-1     :     0.005246
      f+2     :     0.003851
      f-2     :     0.006304
      f+3     :     0.005134
      f-3     :     0.005914

  1 C s       :     2.782248  s :     2.782248
      pz      :     0.944809  p :     2.733648
      px      :     0.820857
      py      :     0.967981
      dz2     :     0.186486  d :     0.970610
      dxz     :     0.103098
      dyz     :     0.260113
      dx2y2   :     0.207576
      dxy     :     0.213338
      f0      :     0.019108  f :     0.155418
      f+1     :     0.009652
      f-1     :     0.034266
      f+2     :     0.025642
      f-2     :     0.023635
      f+3     :     0.019432
      f-3     :     0.023682

  2 O s       :     3.498873  s :     3.498873
      pz      :     1.667955  p :     4.737891
      px      :     1.585858
      py      :     1.484078
      dz2     :     0.006279  d :     0.047927
      dxz     :     0.000834
      dyz     :     0.012850
      dx2y2   :     0.017535
      dxy     :     0.010430
      f0      :     0.000411  f :     0.003766
      f+1     :     0.000046
      f-1     :     0.000689
      f+2     :     0.000679
      f-2     :     0.000155
      f+3     :     0.000780
      f-3     :     0.001007

  3 O s       :     3.407233  s :     3.407233
      pz      :     1.528015  p :     4.583678
      px      :     1.456965
      py      :     1.598698
      dz2     :     0.011815  d :     0.065357
      dxz     :     0.009822
      dyz     :     0.018725
      dx2y2   :     0.013050
      dxy     :     0.011944
      f0      :     0.000590  f :     0.006019
      f+1     :     0.000399
      f-1     :     0.001246
      f+2     :     0.001129
      f-2     :     0.001260
      f+3     :     0.000703
      f-3     :     0.000692

  4 C s       :     2.802465  s :     2.802465
      pz      :     0.920935  p :     2.972763
      px      :     0.994571
      py      :     1.057257
      dz2     :     0.093702  d :     0.437818
      dxz     :     0.131367
      dyz     :     0.049787
      dx2y2   :     0.101847
      dxy     :     0.061115
      f0      :     0.008520  f :     0.052088
      f+1     :     0.009484
      f-1     :     0.006863
      f+2     :     0.006515
      f-2     :     0.009545
      f+3     :     0.005431
      f-3     :     0.005730

  5 N s       :     2.986022  s :     2.986022
      pz      :     1.229703  p :     3.665462
      px      :     1.217986
      py      :     1.217773
      dz2     :     0.048825  d :     0.159000
      dxz     :     0.029579
      dyz     :     0.027365
      dx2y2   :     0.037327
      dxy     :     0.015904
      f0      :     0.001604  f :     0.010186
      f+1     :     0.001686
      f-1     :     0.002017
      f+2     :     0.001160
      f-2     :     0.001932
      f+3     :     0.000351
      f-3     :     0.001437

  6 H s       :     0.788450  s :     0.788450
      pz      :     0.025541  p :     0.057266
      px      :     0.016634
      py      :     0.015091

  7 H s       :     0.795929  s :     0.795929
      pz      :     0.011295  p :     0.056331
      px      :     0.011067
      py      :     0.033969

  8 H s       :     0.787813  s :     0.787813
      pz      :     0.026905  p :     0.057415
      px      :     0.015239
      py      :     0.015272

  9 H s       :     0.792089  s :     0.792089
      pz      :     0.009722  p :     0.058435
      px      :     0.011036
      py      :     0.037676

 10 H s       :     0.666895  s :     0.666895
      pz      :     0.015882  p :     0.094272
      px      :     0.015717
      py      :     0.062673

 11 H s       :     0.666723  s :     0.666723
      pz      :     0.045945  p :     0.094189
      px      :     0.025543
      py      :     0.022700

 12 H s       :     0.665656  s :     0.665656
      pz      :     0.016321  p :     0.094258
      px      :     0.055361
      py      :     0.022575



                      *****************************
                      * MAYER POPULATION ANALYSIS *
                      *****************************

  NA   - Mulliken gross atomic population
  ZA   - Total nuclear charge
  QA   - Mulliken gross atomic charge
  VA   - Mayer's total valence
  BVA  - Mayer's bonded valence
  FA   - Mayer's free valence

  ATOM       NA         ZA         QA         VA         BVA        FA
  0 C      6.1553     6.0000    -0.1553     3.5951     3.5951     0.0000
  1 C      5.7980     6.0000     0.2020     4.5931     4.5931    -0.0000
  2 O      8.6922     8.0000    -0.6922     1.6972     1.6972    -0.0000
  3 O      8.4867     8.0000    -0.4867     1.9107     1.9107     0.0000
  4 C      6.1635     6.0000    -0.1635     3.8199     3.8199     0.0000
  5 N      7.2509     7.0000    -0.2509     3.5130     3.5130     0.0000
  6 H      0.8787     1.0000     0.1213     0.9796     0.9796     0.0000
  7 H      0.8992     1.0000     0.1008     0.9997     0.9997    -0.0000
  8 H      0.8369     1.0000     0.1631     0.9596     0.9596    -0.0000
  9 H      0.8591     1.0000     0.1409     1.0052     1.0052     0.0000
 10 H      0.6604     1.0000     0.3396     0.8823     0.8823    -0.0000
 11 H      0.6613     1.0000     0.3387     0.8837     0.8837     0.0000
 12 H      0.6579     1.0000     0.3421     0.8790     0.8790     0.0000

  Mayer bond orders larger than 0.100000
B(  0-C ,  1-C ) :   0.9086 B(  0-C ,  4-C ) :   0.9621 B(  0-C ,  6-H ) :   0.9341 
B(  0-C ,  7-H ) :   0.9423 B(  1-C ,  2-O ) :   1.7067 B(  1-C ,  3-O ) :   1.9276 
B(  4-C ,  5-N ) :   0.9099 B(  4-C ,  8-H ) :   0.9559 B(  4-C ,  9-H ) :   0.9505 
B(  5-N , 10-H ) :   0.8656 B(  5-N , 11-H ) :   0.8663 B(  5-N , 12-H ) :   0.8667 


-------
TIMINGS
-------

Total SCF time: 0 days 0 hours 0 min 9 sec 

Total time                  ....       9.102 sec
Sum of individual times     ....       9.086 sec  ( 99.8%)

SCF preparation             ....       0.328 sec  (  3.6%)
Fock matrix formation       ....       8.544 sec  ( 93.9%)
  Startup                   ....       0.007 sec  (  0.1% of F)
  Split-RI-J                ....       0.558 sec  (  6.5% of F)
  Chain of spheres X        ....       5.817 sec  ( 68.1% of F)
  XC integration            ....       1.316 sec  ( 15.4% of F)
    Basis function eval.    ....       0.384 sec  ( 29.2% of XC)
    Density eval.           ....       0.289 sec  ( 21.9% of XC)
    XC-Functional eval.     ....       0.068 sec  (  5.2% of XC)
    XC-Potential eval.      ....       0.507 sec  ( 38.5% of XC)
  CPCM terms                ....       0.816 sec  (  9.6% of F)
Diagonalization             ....       0.000 sec  (  0.0%)
Density matrix formation    ....       0.020 sec  (  0.2%)
Total Energy calculation    ....       0.016 sec  (  0.2%)
Population analysis         ....       0.013 sec  (  0.1%)
Orbital Transformation      ....       0.020 sec  (  0.2%)
Orbital Orthonormalization  ....       0.000 sec  (  0.0%)
DIIS solution               ....       0.093 sec  (  1.0%)
SOSCF solution              ....       0.053 sec  (  0.6%)
Finished LeanSCF after   9.1 sec

Maximum memory used throughout the entire LEANSCF-calculation: 21.6 MB


-------------------------------------------------------------------------------
                          DFT DISPERSION CORRECTION                            
                                                                               
                                DFTD4 V3.4.0                                   
-------------------------------------------------------------------------------
The B3LYP functional is recognized
Active option DFTDOPT                   ...         5   

-------------------------   ----------------
Dispersion correction           -0.013398807
-------------------------   ----------------


-------------------------   --------------------
FINAL SINGLE POINT ENERGY      -323.721900756094
-------------------------   --------------------

--------------------------------------------------------------------------
WARNING: There was an error initializing an OpenFabrics device.

  Local host:   ga00
  Local device: mlx5_0
--------------------------------------------------------------------------


           ************************************************************
           *        Program running with 6 parallel MPI-processes     *
           *              working on a common directory               *
           ************************************************************
------------------------------------------------------------------------------
                         ORCA SCF GRADIENT CALCULATION
------------------------------------------------------------------------------

Nuc. rep. gradient        (SHARK) ... done (  0.0 sec)
HCore & Overlap gradient  (SHARK) ... done (  0.0 sec)
Split-RIJ-J gradient      (SHARK) ... done (  0.2 sec)
COSX-gradient                     ... done (  3.9 sec)
XC gradient                       ... done (  0.5 sec)
CPCM gradient                     ... [ga00:434489] 5 more processes have sent help message help-mpi-btl-openib.txt / error in device init
[ga00:434489] Set MCA parameter "orte_base_help_aggregate" to 0 to see all help / error messages
done (  0.3 sec)
Dispersion correction             ... done (  0.0 sec)

-------------------
DISPERSION GRADIENT
-------------------

   1   C   :   -0.000128291    0.000087940    0.000064389
   2   C   :   -0.000309398   -0.000006074   -0.000231870
   3   O   :   -0.000300373   -0.000297470   -0.000240559
   4   O   :   -0.000298632    0.000187571   -0.000283798
   5   C   :    0.000305033   -0.000047074    0.000102248
   6   N   :    0.000364757    0.000004472    0.000239308
   7   H   :   -0.000093573   -0.000010791    0.000080797
   8   H   :   -0.000058224    0.000107424   -0.000000561
   9   H   :    0.000139088    0.000010909    0.000000146
  10   H   :    0.000088028   -0.000059229    0.000032041
  11   H   :    0.000090333    0.000077692    0.000067733
  12   H   :    0.000052799   -0.000026297    0.000124821
  13   H   :    0.000148453   -0.000029073    0.000045307

Difference to translation invariance:
           :   -0.0000000000   -0.0000000000   -0.0000000000

Difference to rotation invariance:
           :   -0.0000000000    0.0000000000    0.0000000000

Norm of the Dispersion gradient    ...    0.0010199324
RMS gradient                       ...    0.0001633199
MAX gradient                       ...    0.0003647573

------------------
CARTESIAN GRADIENT
------------------

   1   C   :   -0.008078400   -0.004558336   -0.017914073
   2   C   :    0.022863245    0.085470402    0.030384883
   3   O   :   -0.022015415   -0.052477560   -0.031497699
   4   O   :    0.006518337   -0.036955689    0.011279185
   5   C   :    0.017848937    0.013397378    0.030082716
   6   N   :   -0.016548513   -0.003267952   -0.015367176
   7   H   :   -0.005888647   -0.003854479    0.007461615
   8   H   :    0.001663466    0.012700365    0.001037817
   9   H   :    0.003080476    0.005093204   -0.014131466
  10   H   :   -0.002765357   -0.015454004   -0.003011719
  11   H   :   -0.000851176    0.018924258   -0.003346463
  12   H   :   -0.011293084   -0.009676688    0.012081244
  13   H   :    0.015466131   -0.009340900   -0.007058865

Difference to translation invariance:
           :   -0.0000000000    0.0000000000   -0.0000000000

Difference to rotation invariance:
           :    0.0003298634   -0.0005001872    0.0000193323

Norm of the Cartesian gradient     ...    0.1368299432
RMS gradient                       ...    0.0219103262
MAX gradient                       ...    0.0854704021

-------
TIMINGS
-------

Total SCF gradient time     ....        5.015 sec

Densities                   ....       0.001 sec  (  0.0%)
One electron gradient       ....       0.035 sec  (  0.7%)
RI-J Coulomb gradient       ....       0.246 sec  (  4.9%)
COSX gradient               ....       3.887 sec  ( 77.5%)
XC gradient                 ....       0.536 sec  ( 10.7%)
CPCM gradient               ....       0.286 sec  (  5.7%)
   A-Matrix (El+Nuc)        ....       0.039 sec  (  0.8%)
   Potential                ....       0.247 sec  (  4.9%)

Maximum memory used throughout the entire SCFGRAD-calculation: 32.4 MB
------------------------------------------------------------------------------
                         ORCA GEOMETRY RELAXATION STEP
------------------------------------------------------------------------------

Reading the OPT-File                    .... done
Getting information on internals        .... done
Copying old internal coords+grads       .... done
Making the new internal coordinates     .... (2022 redundants) done
Validating the new internal coordinates .... (2022 redundants) done
Calculating the B-matrix                .... done
Calculating the G,G- and P matrices     .... done
Transforming gradient to internals      .... done
Projecting the internal gradient        .... done
Number of atoms                         ....  13
Number of internal coordinates          ....  50
Current Energy                          ....  -323.721900756 Eh
Current gradient norm                   ....     0.136829943 Eh/bohr
Maximum allowed component of the step   ....  0.300
Current trust radius                    ....  0.300
Evaluating the initial hessian          ....  (Almloef) done
Projecting the Hessian                  .... done
Forming the augmented Hessian           .... done
Diagonalizing the augmented Hessian     .... done
Last element of RFO vector              ....  0.981496954
Lowest eigenvalues of augmented Hessian:
 -0.017177287  0.010864892  0.012746398  0.012819155  0.016785105
Length of the computed step             ....  0.195087463
The final length of the internal step   ....  0.195087463
Converting the step to Cartesian space:
 Initial RMS(Int)=    0.0275895335
Transforming coordinates:
 Iter   0:  RMS(Cart)=    0.0333602052 RMS(Int)=    0.8877285634
 Iter   5:  RMS(Cart)=    0.0000000116 RMS(Int)=    0.0000000078
done
Storing new coordinates                 .... done

                                .--------------------.
          ----------------------|Geometry convergence|-------------------------
          Item                value                   Tolerance       Converged
          ---------------------------------------------------------------------
          RMS gradient        0.0135736927            0.0000300000      NO
          MAX gradient        0.0609516210            0.0001000000      NO
          RMS step            0.0275895335            0.0006000000      NO
          MAX step            0.0906364778            0.0010000000      NO
          ........................................................
          Max(Bonds)      0.0480      Max(Angles)    3.91
          Max(Dihed)        1.94      Max(Improp)    0.00
          ---------------------------------------------------------------------

The optimization has not yet converged - more geometry cycles are needed


    ---------------------------------------------------------------------------
                         Redundant Internal Coordinates
                            (Angstroem and degrees)

        Definition                    Value    dE/dq     Step     New-Value
    ----------------------------------------------------------------------------
     1. B(C   1,C   0)                1.5014 -0.011160  0.0137    1.5150   
     2. B(O   2,C   1)                1.3470  0.060952 -0.0480    1.2991   
     3. B(O   3,C   1)                1.2207 -0.035451  0.0177    1.2384   
     4. B(C   4,C   0)                1.5337  0.004768 -0.0065    1.5272   
     5. B(N   5,C   4)                1.4626 -0.018906  0.0224    1.4850   
     6. B(H   6,C   0)                1.1112  0.010173 -0.0154    1.0959   
     7. B(H   7,C   0)                1.1125  0.012800 -0.0194    1.0930   
     8. B(H   8,C   4)                1.1131  0.014698 -0.0224    1.0908   
     9. B(H   9,C   4)                1.1130  0.015724 -0.0239    1.0891   
    10. B(H  10,N   5)                1.0460  0.018506 -0.0247    1.0213   
    11. B(H  11,N   5)                1.0460  0.018464 -0.0247    1.0214   
    12. B(H  12,N   5)                1.0456  0.018309 -0.0244    1.0212   
    13. A(C   4,C   0,H   6)          109.80  0.001809   -0.47    109.33   
    14. A(C   1,C   0,C   4)          110.86 -0.000813    0.16    111.02   
    15. A(H   6,C   0,H   7)          108.51  0.000456   -0.17    108.35   
    16. A(C   1,C   0,H   7)          109.70  0.000992   -0.05    109.64   
    17. A(C   4,C   0,H   7)          109.19 -0.001691    0.43    109.62   
    18. A(C   1,C   0,H   6)          108.75 -0.000711    0.08    108.83   
    19. A(O   2,C   1,O   3)          119.60 -0.032091    3.91    123.51   
    20. A(C   0,C   1,O   2)          120.16  0.025618   -3.27    116.89   
    21. A(C   0,C   1,O   3)          120.24  0.006462   -0.62    119.62   
    22. A(N   5,C   4,H   9)          109.13  0.004082   -0.66    108.47   
    23. A(C   0,C   4,H   9)          109.67 -0.001676    0.47    110.14   
    24. A(N   5,C   4,H   8)          109.23  0.003745   -0.94    108.30   
    25. A(C   0,C   4,H   8)          109.43 -0.002972    0.69    110.12   
    26. A(H   8,C   4,H   9)          108.41 -0.001565    0.12    108.53   
    27. A(C   0,C   4,N   5)          110.92 -0.001580    0.30    111.22   
    28. A(H  11,N   5,H  12)          108.87  0.005467   -0.86    108.01   
    29. A(H  10,N   5,H  12)          108.86  0.005404   -0.85    108.01   
    30. A(C   4,N   5,H  12)          109.12 -0.007239    1.33    110.45   
    31. A(H  10,N   5,H  11)          109.72  0.005544   -1.15    108.56   
    32. A(C   4,N   5,H  11)          110.11 -0.004310    0.72    110.83   
    33. A(C   4,N   5,H  10)          110.13 -0.004707    0.79    110.92   
    34. D(O   3,C   1,C   0,C   4)   -119.61  0.000393    0.25   -119.36   
    35. D(O   2,C   1,C   0,C   4)     60.91  0.001922   -1.94     58.98   
    36. D(O   2,C   1,C   0,H   6)    -59.89  0.000647   -1.51    -61.40   
    37. D(O   3,C   1,C   0,H   6)    119.59 -0.000882    0.67    120.26   
    38. D(O   2,C   1,C   0,H   7)   -178.42 -0.000060   -1.33   -179.75   
    39. D(N   5,C   4,C   0,H   6)    -59.77  0.000482   -0.02    -59.80   
    40. D(N   5,C   4,C   0,C   1)   -179.96  0.000710    0.08   -179.88   
    41. D(H   8,C   4,C   0,H   6)    179.64 -0.001237    0.50    180.14   
    42. D(H   8,C   4,C   0,C   1)     59.46 -0.001009    0.60     60.06   
    43. D(H   8,C   4,C   0,H   7)    -61.50 -0.000623    0.28    -61.22   
    44. D(N   5,C   4,C   0,H   7)     59.08  0.001096   -0.24     58.84   
    45. D(H  10,N   5,C   4,H   9)    178.53  0.000441   -0.05    178.49   
    46. D(H  10,N   5,C   4,H   8)     60.17 -0.002232    0.74     60.91   
    47. D(H  11,N   5,C   4,C   0)     60.59  0.001084   -0.16     60.43   
    48. D(H  10,N   5,C   4,C   0)    -60.53  0.000023    0.29    -60.24   
    49. D(H  11,N   5,C   4,H   9)    -60.34  0.001502   -0.50    -60.85   
    50. D(H  11,N   5,C   4,H   8)   -178.70 -0.001171    0.28   -178.42   
    ----------------------------------------------------------------------------

Geometry step timings:
Preparation and reading OPT file:      0.000 s (10.551 %)
Internal coordinates            :      0.000 s ( 1.969 %)
B/P matrices and projection     :      0.000 s (26.535 %)
Hessian update/contruction      :      0.000 s ( 8.031 %)
Making the step                 :      0.000 s (20.079 %)
Converting the step to Cartesian:      0.000 s ( 4.567 %)
Storing new data                :      0.000 s ( 1.496 %)
Checking convergence            :      0.000 s ( 0.079 %)
Final printing                  :      0.000 s (26.063 %)
Total time                      :      0.001 s
--------------------------------------------------------------------------
WARNING: There was an error initializing an OpenFabrics device.

  Local host:   ga00
  Local device: mlx5_0
--------------------------------------------------------------------------
[ga00:434718] 5 more processes have sent help message help-mpi-btl-openib.txt / error in device init
[ga00:434718] Set MCA parameter "orte_base_help_aggregate" to 0 to see all help / error messages

Time for energy+gradient        :     16.195 s
Time for complete geometry iter :     16.554 s

         *************************************************************
         *                GEOMETRY OPTIMIZATION CYCLE   2            *
         *************************************************************
---------------------------------
CARTESIAN COORDINATES (ANGSTROEM)
---------------------------------
  C     -0.043653    0.722648   -2.973354
  C     -0.836446    0.347219   -4.208630
  O     -0.973079   -0.920756   -4.455862
  O     -1.288974    1.238701   -4.939488
  C      1.376568    0.165682   -3.043711
  N      2.156984    0.528675   -1.833564
  H     -0.549762    0.315273   -2.090865
  H     -0.006724    1.810810   -2.877150
  H      1.893575    0.565265   -3.917103
  H      1.350013   -0.920105   -3.124122
  H      2.226792    1.542807   -1.735353
  H      1.719237    0.149895   -0.992091
  H      3.104067    0.151586   -1.893608

----------------------------
CARTESIAN COORDINATES (A.U.)
----------------------------
  NO LB      ZA    FRAG     MASS         X           Y           Z
   0 C     6.0000    0    12.011   -0.082491    1.365607   -5.618825
   1 C     6.0000    0    12.011   -1.580654    0.656149   -7.953159
   2 O     8.0000    0    15.999   -1.838853   -1.739977   -8.420359
   3 O     8.0000    0    15.999   -2.435807    2.340806   -9.334279
   4 C     6.0000    0    12.011    2.601337    0.313093   -5.751780
   5 N     7.0000    0    14.007    4.076109    0.999051   -3.464934
   6 H     1.0000    0     1.008   -1.038899    0.595779   -3.951161
   7 H     1.0000    0     1.008   -0.012706    3.421934   -5.437026
   8 H     1.0000    0     1.008    3.578339    1.068196   -7.402252
   9 H     1.0000    0     1.008    2.551154   -1.738746   -5.903734
  10 H     1.0000    0     1.008    4.208027    2.915483   -3.279342
  11 H     1.0000    0     1.008    3.248887    0.283261   -1.874779
  12 H     1.0000    0     1.008    5.865836    0.286456   -3.578401

--------------------------------
INTERNAL COORDINATES (ANGSTROEM)
--------------------------------
 C      0   0   0     0.000000000000     0.00000000     0.00000000
 C      1   0   0     1.515049715462     0.00000000     0.00000000
 O      2   1   0     1.299058746351   116.87721451     0.00000000
 O      2   1   3     1.238415899532   119.60420103   181.65754239
 C      1   2   3     1.527150512865   111.02045170    58.97846661
 N      5   1   2     1.485014492764   111.22543837   180.11889111
 H      1   2   3     1.095850520396   108.83247396   298.59770565
 H      1   2   3     1.093029984241   109.64174661   180.24522206
 H      5   1   2     1.090769237846   110.12569070    60.05718582
 H      5   1   2     1.089084063666   110.14093514   300.40355050
 H      6   5   1     1.021265207551   110.91723429   299.76573434
 H      6   5   1     1.021359011846   110.82363797    60.42818314
 H      6   5   1     1.021159551682   110.43982662   180.06828671

---------------------------
INTERNAL COORDINATES (A.U.)
---------------------------
 C      0   0   0     0.000000000000     0.00000000     0.00000000
 C      1   0   0     2.863029041498     0.00000000     0.00000000
 O      2   1   0     2.454865262478   116.87721451     0.00000000
 O      2   1   3     2.340266890009   119.60420103   181.65754239
 C      1   2   3     2.885896234591   111.02045170    58.97846661
 N      5   1   2     2.806270696228   111.22543837   180.11889111
 H      1   2   3     2.070857367264   108.83247396   298.59770565
 H      1   2   3     2.065527326379   109.64174661   180.24522206
 H      5   1   2     2.061255134835   110.12569070    60.05718582
 H      5   1   2     2.058070617146   110.14093514   300.40355050
 H      6   5   1     1.929911552374   110.91723429   299.76573434
 H      6   5   1     1.930088816801   110.82363797    60.42818314
 H      6   5   1     1.929711891718   110.43982662   180.06828671

[...]
  11 H :    0.222604
  12 H :    0.223026

-------------------------------
LOEWDIN REDUCED ORBITAL CHARGES
-------------------------------
  0 C s       :     2.793468  s :     2.793468
      pz      :     1.037301  p :     3.072418
      px      :     1.005075
      py      :     1.030041
      dz2     :     0.071284  d :     0.355260
      dxz     :     0.097672
      dyz     :     0.027787
      dx2y2   :     0.098207
      dxy     :     0.060310
      f0      :     0.003949  f :     0.036140
      f+1     :     0.006073
      f-1     :     0.004893
      f+2     :     0.004147
      f-2     :     0.005562
      f+3     :     0.006075
      f-3     :     0.005441

  1 C s       :     2.777262  s :     2.777262
      pz      :     0.916339  p :     2.730886
      px      :     0.940072
      py      :     0.874476
      dz2     :     0.174021  d :     1.011586
      dxz     :     0.232062
      dyz     :     0.149985
      dx2y2   :     0.229970
      dxy     :     0.225548
      f0      :     0.022318  f :     0.157483
      f+1     :     0.014917
      f-1     :     0.022540
      f+2     :     0.024269
      f-2     :     0.023249
      f+3     :     0.029145
      f-3     :     0.021047

  2 O s       :     3.429104  s :     3.429104
      pz      :     1.539689  p :     4.632049
      px      :     1.612903
      py      :     1.479457
      dz2     :     0.010103  d :     0.059455
      dxz     :     0.008341
      dyz     :     0.018946
      dx2y2   :     0.010063
      dxy     :     0.012002
      f0      :     0.000507  f :     0.005213
      f+1     :     0.000314
      f-1     :     0.001091
      f+2     :     0.000949
      f-2     :     0.001177
      f+3     :     0.000639
      f-3     :     0.000538

  3 O s       :     3.430939  s :     3.430939
      pz      :     1.610280  p :     4.644157
      px      :     1.494384
      py      :     1.539492
      dz2     :     0.007437  d :     0.059170
      dxz     :     0.012548
      dyz     :     0.003790
      dx2y2   :     0.016142
      dxy     :     0.019254
      f0      :     0.000571  f :     0.005222
      f+1     :     0.000739
      f-1     :     0.000297
      f+2     :     0.000300
      f-2     :     0.000666
      f+3     :     0.001150
      f-3     :     0.001499

  4 C s       :     2.802147  s :     2.802147
      pz      :     0.911085  p :     2.964482
      px      :     1.001700
      py      :     1.051697
      dz2     :     0.084718  d :     0.425362
      dxz     :     0.133236
      dyz     :     0.042145
      dx2y2   :     0.104879
      dxy     :     0.060383
      f0      :     0.006886  f :     0.049411
      f+1     :     0.008732
      f-1     :     0.006370
      f+2     :     0.006205
      f-2     :     0.009624
      f+3     :     0.006383
      f-3     :     0.005211

  5 N s       :     2.979017  s :     2.979017
      pz      :     1.226205  p :     3.672142
      px      :     1.220017
      py      :     1.225920
      dz2     :     0.048415  d :     0.149630
      dxz     :     0.030186
      dyz     :     0.017979
      dx2y2   :     0.032831
      dxy     :     0.020220
      f0      :     0.001181  f :     0.009432
      f+1     :     0.001766
      f-1     :     0.001859
      f+2     :     0.001239
      f-2     :     0.001374
      f+3     :     0.000416
      f-3     :     0.001598

  6 H s       :     0.791757  s :     0.791757
      pz      :     0.027766  p :     0.060258
      px      :     0.018341
      py      :     0.014151

  7 H s       :     0.793306  s :     0.793306
      pz      :     0.013969  p :     0.060215
      px      :     0.012283
      py      :     0.033963

  8 H s       :     0.794113  s :     0.794113
      pz      :     0.028385  p :     0.061187
      px      :     0.018622
      py      :     0.014179

  9 H s       :     0.794552  s :     0.794552
      pz      :     0.010623  p :     0.061418
      px      :     0.012575
      py      :     0.038220

 10 H s       :     0.677034  s :     0.677034
      pz      :     0.018113  p :     0.100355
      px      :     0.018846
      py      :     0.063396

 11 H s       :     0.677063  s :     0.677063
      pz      :     0.051111  p :     0.100333
      px      :     0.028990
      py      :     0.020232

 12 H s       :     0.676415  s :     0.676415
      pz      :     0.018180  p :     0.100559
      px      :     0.054944
      py      :     0.027436



                      *****************************
                      * MAYER POPULATION ANALYSIS *
                      *****************************

  NA   - Mulliken gross atomic population
  ZA   - Total nuclear charge
  QA   - Mulliken gross atomic charge
  VA   - Mayer's total valence
  BVA  - Mayer's bonded valence
  FA   - Mayer's free valence

  ATOM       NA         ZA         QA         VA         BVA        FA
  0 C      6.2661     6.0000    -0.2661     3.6585     3.6585     0.0000
  1 C      5.7535     6.0000     0.2465     4.6022     4.6022    -0.0000
  2 O      8.5636     8.0000    -0.5636     1.8372     1.8372     0.0000
  3 O      8.5745     8.0000    -0.5745     1.8454     1.8454    -0.0000
  4 C      6.1029     6.0000    -0.1029     3.7764     3.7764     0.0000
  5 N      7.2538     7.0000    -0.2538     3.5221     3.5221     0.0000
  6 H      0.8788     1.0000     0.1212     0.9801     0.9801     0.0000
  7 H      0.8810     1.0000     0.1190     0.9839     0.9839     0.0000
  8 H      0.8524     1.0000     0.1476     0.9771     0.9771     0.0000
  9 H      0.8549     1.0000     0.1451     0.9830     0.9830     0.0000
 10 H      0.6740     1.0000     0.3260     0.8934     0.8934    -0.0000
 11 H      0.6743     1.0000     0.3257     0.8938     0.8938     0.0000
 12 H      0.6701     1.0000     0.3299     0.8893     0.8893     0.0000

  Mayer bond orders larger than 0.100000
B(  0-C ,  1-C ) :   0.9289 B(  0-C ,  4-C ) :   0.9491 B(  0-C ,  6-H ) :   0.9469 
B(  0-C ,  7-H ) :   0.9501 B(  1-C ,  2-O ) :   1.8087 B(  1-C ,  3-O ) :   1.8380 
B(  4-C ,  5-N ) :   0.8751 B(  4-C ,  8-H ) :   0.9603 B(  4-C ,  9-H ) :   0.9592 
B(  5-N , 10-H ) :   0.8787 B(  5-N , 11-H ) :   0.8789 B(  5-N , 12-H ) :   0.8779 


-------
TIMINGS
-------

Total SCF time: 0 days 0 hours 0 min 3 sec 

Total time                  ....       3.873 sec
Sum of individual times     ....       3.858 sec  ( 99.6%)

SCF preparation             ....       0.415 sec  ( 10.7%)
Fock matrix formation       ....       3.331 sec  ( 86.0%)
  Startup                   ....       0.003 sec  (  0.1% of F)
  Split-RI-J                ....       0.136 sec  (  4.1% of F)
  Chain of spheres X        ....       2.633 sec  ( 79.0% of F)
  XC integration            ....       0.345 sec  ( 10.4% of F)
    Basis function eval.    ....       0.096 sec  ( 27.7% of XC)
    Density eval.           ....       0.079 sec  ( 23.0% of XC)
    XC-Functional eval.     ....       0.017 sec  (  4.9% of XC)
    XC-Potential eval.      ....       0.142 sec  ( 41.1% of XC)
  CPCM terms                ....       0.207 sec  (  6.2% of F)
Diagonalization             ....       0.000 sec  (  0.0%)
Density matrix formation    ....       0.004 sec  (  0.1%)
Total Energy calculation    ....       0.005 sec  (  0.1%)
Population analysis         ....       0.055 sec  (  1.4%)
Orbital Transformation      ....       0.010 sec  (  0.3%)
Orbital Orthonormalization  ....       0.000 sec  (  0.0%)
DIIS solution               ....       0.013 sec  (  0.3%)
SOSCF solution              ....       0.025 sec  (  0.6%)
Finished LeanSCF after   4.0 sec

Maximum memory used throughout the entire LEANSCF-calculation: 24.2 MB
[ga00:446647] 5 more processes have sent help message help-mpi-btl-openib.txt / error in device init
[ga00:446647] Set MCA parameter "orte_base_help_aggregate" to 0 to see all help / error messages


-------------------------------------------------------------------------------
                          DFT DISPERSION CORRECTION                            
                                                                               
                                DFTD4 V3.4.0                                   
-------------------------------------------------------------------------------
The B3LYP functional is recognized
Active option DFTDOPT                   ...         5   

-------------------------   ----------------
Dispersion correction           -0.013375985
-------------------------   ----------------


-------------------------   --------------------
FINAL SINGLE POINT ENERGY      -323.737885663134
-------------------------   --------------------

                                *** OPTIMIZATION RUN DONE ***

--------------------------------------------------------------------------
WARNING: There was an error initializing an OpenFabrics device.

  Local host:   ga00
  Local device: mlx5_0
--------------------------------------------------------------------------


           ************************************************************
           *        Program running with 6 parallel MPI-processes     *
           *              working on a common directory               *
           ************************************************************

------------------------------------------------------------------------------
                              ORCA PROPERTY CALCULATIONS
------------------------------------------------------------------------------

GBWName                                 ... 03_Alanine_zwitterion.gbw
Number of atoms                         ...     13
Number of basis functions               ...    228
Max core memory                         ...   5000 MB

Electric properties:
Dipole moment                           ... YES
Quadrupole moment                       ...  NO
Static polarizability (Dipole/Dipole)   ...  NO
Static polarizability (Dipole/Quad.)    ...  NO
Static polarizability (Quad./Quad.)     ...  NO
Static polarizability (Velocity)        ...  NO

Atomic electric properties:
Dipole moment                           ...  NO
Quadrupole moment                       ...  NO
Static polarizability                   ...  NO

Choice of electric origin               ... Center of mass
Position of electric origin             ...     0.173982     0.671977    -6.703159

General magnetic properties:
Magnetizability                         ...  NO

EPR properties:
g-Tensor (aka g-matrix)                 ...  NO
Zero-Field splitting spin-orbit         ...  NO
Zero-field splitting spin-spin          ...  NO
Hyperfine couplings                     ...  NO (   0 nuclei)
Quadrupole couplings                    ...  NO (   0 nuclei)
Contact density                         ...  NO (   0 nuclei)

NMR properties:
Chemical shifts                         ...  NO (   0 nuclei)
Spin-rotation constants                 ...  NO (   0 nuclei)
Spin-spin couplings                     ...  NO (   0 nuclei,    0 pairs)

Choice of magnetic origin               ... GIAO
Position of magnetic origin             ...     0.000000     0.000000     0.000000

Properties with geometric perturbations:
SCF Hessian                             ...  NO
IR spectrum                             ...  NO
VCD spectrum                            ...  NO
X-ray spectroscopy properties:
SCF XES/XAS/RIXS spectra                ...  NO


-------------
DIPOLE MOMENT
-------------

Method             : SCF
Type of density    : Electron Density
Multiplicity       :   1
Irrep              :   0
Energy             :  -323.7245096784376415 Eh
Relativity type    : 
Basis              : AO
                                X                 Y                 Z
Electronic contribution:     -2.330409767      -0.335724565      -2.165667942
Nuclear contribution   :      8.602689986       1.021823334       7.716428893
                        -----------------------------------------
Total Dipole Moment    :      6.272280219       0.686098769       5.550760951
                        -----------------------------------------
Magnitude (a.u.)       :      8.403759742
Magnitude (Debye)      :     21.360659704



--------------------
Rotational spectrum 
--------------------
 
Rotational constants in cm-1:             0.306809             0.061318             0.052549 
Rotational constants in MHz :          9197.888447          1838.276487          1575.390341 

Dipole components along the rotational axes: 
x,y,z [a.u.] :    -8.355299    -0.900937     0.021773 
x,y,z [Debye]:   -21.237481    -2.290000     0.055343 

 

Dipole moment calculation done in   0.0 sec 

Maximum memory used throughout the entire PROP-calculation: 13.7 MB
[ga00:446725] 5 more processes have sent help message help-mpi-btl-openib.txt / error in device init
[ga00:446725] Set MCA parameter "orte_base_help_aggregate" to 0 to see all help / error messages
--------------------------------------------------------------------------
WARNING: There was an error initializing an OpenFabrics device.

  Local host:   ga00
  Local device: mlx5_0
--------------------------------------------------------------------------
[ga00:446820] *** Process received signal ***
[ga00:446820] Signal: Segmentation fault (11)
[ga00:446820] Signal code: Address not mapped (1)
[ga00:446820] Failing at address: (nil)
[ga00:446820] [ 0] /usr/lib64/libpthread.so.0(+0x12cf0)[0x1547408ebcf0]
[ga00:446820] [ 1] /usr/lib64/libc.so.6(+0xc84d2)[0x1547405db4d2]
[ga00:446820] [ 2] /home/yongsang/.openmpi/lib/libopen-rte.so.40(+0x2b27d)[0x1547419d627d]
[ga00:446820] [ 3] /home/yongsang/.openmpi/lib/libopen-rte.so.40(orte_show_help_recv+0x147)[0x1547419d66f7]
[ga00:446820] [ 4] /home/yongsang/.openmpi/lib/libopen-rte.so.40(orte_rml_base_process_msg+0x39b)[0x154741a3221b]
[ga00:446820] [ 5] /home/yongsang/.openmpi/lib/libopen-pal.so.40(opal_libevent2022_event_base_loop+0x769)[0x1547417205b9]
[ga00:446820] [ 6] mpirun[0x400f39]
[ga00:446820] [ 7] /usr/lib64/libc.so.6(__libc_start_main+0xe5)[0x15474054dd85]
[ga00:446820] [ 8] mpirun[0x400cde]
[ga00:446820] *** End of error message ***

--------------------------------
SUGGESTED CITATIONS FOR THIS RUN
--------------------------------

Below you find a list of papers that are relevant to this ORCA run
We neither can nor want to force you to cite these papers, but we appreciate if you do
You receive ORCA, which is the product of decades of hard work by many enthusiastic individuals, for free
The only thing we kindly ask in return is that you cite our papers,
We deeply appreciate it, if you show your appreciation for ORCA by not just citing the generic ORCA reference.

Please note that relegating all ORCA citations to the supporting information does *not* help us.
SI sections are not indexed - citations you put there will not count into any citation statistics
But we need these citations in order to attract the funding resources that allow us to do what we are doing

Therefore, if you are a happy ORCA user, please consider citing a few of the papers listed below in the main body of your paper

In addition to the list printed below, the program has created the file 03_Alanine_zwitterion.bibtex that contains the list in bibtex format
You can import this file easily into all common literature databanks and citation aid programs


List of essential papers. We consider these as the minimum necessary citations

  1. Neese,F.
     Software update: the ORCA program system, version 5.0
     WIRES Comput. Molec. Sci., 2022 12(1)e1606
     doi.org/10.1002/wcms.1606

List of papers to cite with high priority. The work reported in these papers was absolutely
necessary for this run to complete.
Our perspective: the developers of density functionals and basis sets usually get cited in chemistry papers
Good! But without the algorithms to do something with them, the functionals or basis sets would not do anything.
Hence, in our opinion, the algorithm design and method developments papers are equally worthy of getting cited

  1. Neese,F.
     An improvement of the resolution of the identity approximation for the formation of the Coulomb matrix
     J. Comp. Chem., 2003 24(14)1740-1747
     doi.org/10.1002/jcc.10318
  2. Neese,F.; Wennmohs,F.; Hansen,A.; Becker,U.
     Efficient, approximate and parallel Hartree-Fock and hybrid DFT calculations. A 'chain-of-spheres' algorithm for the Hartree-Fock exchange
     Chem. Phys., 2009 356(1-3)98-109
     doi.org/10.1016/j.chemphys.2008.10.036
  3. Garcia-Rates,M.; Neese,F.
     Effect of the Solute Cavity on the Solvation Energy and its Derivatives within the Framework of the Gaussian Charge Scheme
     J. Comput. Chem., 2020 41 922-939
     doi.org/10.1002/jcc.26139
  4. Helmich-Paris,B.; de Souza,B.; Neese,F.; Izsák,R.
     An improved chain of spheres for exchange algorithm
     J. Chem. Phys., 2021 155 104109
     doi.org/doi: 10.1063/5.0058766.
  5. Neese,F.
     The SHARK Integral Generation and Digestion System
     J. Comp. Chem., 2022  1-16
     doi.org/10.1002/jcc.26942
  6. Caldeweyher,E.; Bannwarth,C.; Grimme,S.
     Extension of the D3 dispersion coefficient model
     J. Chem. Phys., 2017 147 034112
     doi.org/10.1063/1.4993215
  7. Caldeweyher,E.; Ehlert,S.; Hansen,A.; Neugebauer,H.; Spicher,S.; Bannwarth,C.; Grimme,S.
     A generally applicable atomic-charge dependent London dispersion correction
     J. Chem. Phys., 2019 150 154122
     doi.org/10.1063/1.5090222
  8. Caldeweyher,E.; Mewes,J.; Ehlert,S.; Grimme,S.
     Extension and evaluation of the D4 London-dispersion model for periodic systems
     Phys. Chem. Chem. Phys., 2020 22(16)8499-8512
     doi.org/10.1039/D0CP00502A
  9. Wittmann,L.; Gordiy,I.; Friede,M.; Helmich-Paris,B.; Grimme,S.; Hansen,A.; Bursch,M.
     Extension of the D3 and D4 London Dispersion Corrections to the full Actinides Series
     Phys. Chem. Chem. Phys., 2024 26(32)21379-21394
     doi.org/https://doi.org/10.1039/D4CP01514B 

List of suggested additional citations. These are papers that are important in the 'surrounding' of 
of this run, or papers that preceded the highly important papers. If you like your results we are grateful for a citation.

  1. Izsak,R.; Neese,F.
     An overlap fitted chain of spheres exchange method
     J. Chem. Phys., 2011 135 144105
     doi.org/10.1063/1.3646921
  2. Izsak,R.; Hansen,A.; Neese,F.
     The resolution of identity and chain of spheres approximations for the LPNO-CCSD singles Fock term
     Molec. Phys., 2012 110 2413-2417
     doi.org/10.1080/00268976.2012.687466
  3. Neese,F.
     The ORCA program system
     WIRES Comput. Molec. Sci., 2012 2(1)73-78
     doi.org/10.1002/wcms.81
  4. Izsak,R.; Neese,F.; Klopper,W.
     Robust fitting techniques in the chain of spheres approximation to the Fock exchange: The role of the complementary space
     J. Chem. Phys., 2013 139 
     doi.org/10.1063/1.4819264
  5. Neese,F.
     Software update: the ORCA program system, version 4.0
     WIRES Comput. Molec. Sci., 2018 8(1)1-6
     doi.org/10.1002/wcms.1327
  6. Neese,F.; Wennmohs,F.; Becker,U.; Riplinger,C.
     The ORCA quantum chemistry program package
     J. Chem. Phys., 2020 152 Art. No. L224108
     doi.org/10.1063/5.0004608

List of optional additional citations

  1. Neese,F.
     Approximate second-order SCF convergence for spin unrestricted wavefunctions
     Chem. Phys. Lett., 2000 325(1-3)93-98
     doi.org/10.1016/s0009-2614(00)00662-x

Timings for individual modules:

Sum of individual times          ...      313.893 sec (=   5.232 min)
Startup calculation              ...       19.552 sec (=   0.326 min)   6.2 %
SCF iterations                   ...      176.872 sec (=   2.948 min)  56.3 %
Property calculations            ...        0.496 sec (=   0.008 min)   0.2 %
SCF Gradient evaluation          ...      116.901 sec (=   1.948 min)  37.2 %
Geometry relaxation              ...        0.071 sec (=   0.001 min)   0.0 %
                             ****ORCA TERMINATED NORMALLY****
TOTAL RUN TIME: 0 days 0 hours 5 minutes 23 seconds 39 msec
