
                                 *****************
                                 * O   R   C   A *
                                 *****************

                                            #,                                       
                                            ###                                      
                                            ####                                     
                                            #####                                    
                                            ######                                   
                                           ########,                                 
                                     ,,################,,,,,                         
                               ,,#################################,,                 
                          ,,##########################################,,             
                       ,#########################################, ''#####,          
                    ,#############################################,,   '####,        
                  ,##################################################,,,,####,       
                ,###########''''           ''''###############################       
              ,#####''   ,,,,##########,,,,          '''####'''          '####       
            ,##' ,,,,###########################,,,                        '##       
           ' ,,###''''                  '''############,,,                           
         ,,##''                                '''############,,,,        ,,,,,,###''
      ,#''                                            '''#######################'''  
     '                                                          ''''####''''         
             ,#######,   #######,   ,#######,      ##                                
            ,#'     '#,  ##    ##  ,#'     '#,    #''#        ,####,   ,####,        
            ##       ##  ##   ,#'  ##            #'  '#       #'       #'  '#        
            ##       ##  #######   ##           ,######,      #####,   #    #        
            '#,     ,#'  ##    ##  '#,     ,#' ,#      #,     #,   #   #,  ,#        
             '#######'   ##     ##  '#######'  #'      '#     '####' # '####'        



                #########################################################
                #                        -***-                          #
                #          Department of theory and spectroscopy        #
                #                                                       #
                #                      Frank Neese                      #
                #                                                       #
                #     Directorship, Architecture, Infrastructure        #
                #                    SHARK, DRIVERS                     #
                #        Core code/Algorithms in most modules           #
                #                                                       #
                #        Max Planck Institute fuer Kohlenforschung      #
                #                Kaiser Wilhelm Platz 1                 #
                #                 D-45470 Muelheim/Ruhr                 #
                #                      Germany                          #
                #                                                       #
                #                  All rights reserved                  #
                #                        -***-                          #
                #########################################################


                         Program Version 6.0.1  -  RELEASE   -


 With contributions from (in alphabetic order):
[Max-Planck-Institut fuer Kohlenforschung]                               
  Daniel Aravena         : Magnetic Suceptibility                        
  Michael Atanasov       : Ab Initio Ligand Field Theory (pilot matlab implementation)
  Alexander A. Auer      : GIAO ZORA, VPT2 properties, NMR spectrum      
  Ute Becker             : All parallelization in ORCA, NUMFREQ, NUMCALC 
  Giovanni Bistoni       : ED, misc. LED, open-shell LED, HFLD           
  Martin Brehm           : Molecular dynamics                            
  Dmytro Bykov           : pre 5.0 version of the SCF Hessian            
  Marcos Casanova-Páez   : Triplet and SCS-CIS(D). UHF-(DLPNO)-IP/EA/STEOM-CCSD. UHF-CVS-IP/STEOM-CCSD   
  Vijay G. Chilkuri      : MRCI spin determinant printing, contributions to CSF-ICE 
  Pauline Colinet        : FMM embedding                                 
  Dipayan Datta          : RHF DLPNO-CCSD density                        
  Achintya Kumar Dutta   : EOM-CC, STEOM-CC                              
  Nicolas Foglia         : Exact transition moments, OPA infrastructure, MCD improvements    
  Dmitry Ganyushin       : Spin-Orbit,Spin-Spin,Magnetic field MRCI      
  Miquel Garcia-Rates    : C-PCM and meta-GGA Hessian, CCSD/C-PCM, Gaussian charge scheme 
  Tiago L. C. Gouveia    : GS-ROHF, GS-ROCIS                             
  Yang Guo               : DLPNO-NEVPT2, F12-NEVPT2, CIM, IAO-localization        
  Andreas Hansen         : Spin unrestricted coupled pair/coupled cluster methods 
  Ingolf Harden          : AUTO-CI MPn and infrastructure                
  Benjamin Helmich-Paris : MC-RPA, TRAH-(SCF,CASSCF), AVAS, COSX integrals, SCF dyn. polar. 
  Lee Huntington         : MR-EOM, pCC                                   
  Robert Izsak           : Overlap fitted RIJCOSX, COSX-SCS-MP3, EOM     
  Riya Kayal             : Wick's Theorem for AUTO-CI, AUTO-CI UHF-CCSDT 
  Emily Kempfer          : AUTO-CI, RHF CISDT and CCSDT                  
  Christian Kollmar      : KDIIS, OOCD, Brueckner-CCSD(T), CCSD density, CASPT2, CASPT2-K, improved NEVPT2 
  Axel Koslowski         : Symmetry handling                             
  Simone Kossmann        : meta-GGA functionals, TD-DFT gradient, OOMP2, (MP2 Hessian; deprecated post 5.0) 
  Lucas Lang             : DCDCAS                                        
  Marvin Lechner         : AUTO-CI (C++ implementation), FIC-MRCC        
  Spencer Leger          : CASSCF response                               
  Dagmar Lenk            : GEPOL surface, SMD, ORCA-2-JSON               
  Dimitrios Liakos       : Extrapolation schemes; Compound Job, initial MDCI parallelization 
  Dimitrios Manganas     : Further ROCIS development; embedding schemes. LFT, Crystal Embedding 
  Dimitrios Pantazis     : SARC Basis sets                               
  Anastasios Papadopoulos: AUTO-CI, single reference methods and gradients 
  Taras Petrenko         : pre 6.0 DFT Hessian and TD-DFT gradient, (ASA, deprecated), ECA, 1-Electron XAS/XES, NRVS 
  Peter Pinski           : DLPNO-MP2, DLPNO-MP2 Gradient                 
  Christoph Reimann      : Effective Core Potentials                     
  Marius Retegan         : Local ZFS, SOC                                
  Christoph Riplinger    : Optimizer, TS searches, QM/MM, DLPNO-CCSD(T), (RO)-DLPNO pert. Triples 
  Michael Roemelt        : Original ROCIS implementation                 
  Masaaki Saitow         : Open-shell DLPNO-CCSD energy and density      
  Barbara Sandhoefer     : DKH picture change effects                    
  Kantharuban Sivalingam : CASSCF convergence/infrastructure, NEVPT2 and variants, FIC-MRCI 
  Bernardo de Souza      : ESD, SOC TD-DFT                               
  Georgi L. Stoychev     : AutoAux, RI-MP2 NMR, DLPNO-MP2 response, X2C  
  Van Anh Tran           : RI-MP2 g-tensors                              
  Willem Van den Heuvel  : Paramagnetic NMR                              
  Zikuan Wang            : NOTCH, Electric field optimization            
  Frank Wennmohs         : Technical directorship and infrastructure     
  Hang Xu                : AUTO-CI-Response properties                   
                                                                         
[FACCTs GmbH]                                                            
  Markus Bursch, Miquel Garcia-Rates, Christoph Riplinger, Bernardo de Souza, Georgi L. Stoychev 
                                                                 
  APM, Basis sets (HGBS, AHGBS, def-TZVP (Ac-Lr), def2-XVPD (La-Lu)), CI-OPT, improved COSX, DLPNO-Multilevel,           
  DOCKER, DRACO, updates on ESD, GOAT, IRC, LR-CPCM, MBIS, meta-GGA TD-DFT gradient, ML-optimized integration grids, 
  MM, NACMEs, nearIR, NEB, NEB-TS, NL-DFT gradient (VV10), 2- and 3-layer-ONIOM, interface openCOSMO-RS, QMMM,   
  Crystal-QMMM, SF, symmetry and pop. for TD-DFT, r2SCAN hybrids, SOLVATOR                                   
                                                                         
[Other institutions]                                                     
  V. Asgeirsson          : NEB                                           
  Christoph Bannwarth    : sTDA-DFT, sTD-DFT, PBEh-3c, B97-3c, D3        
  Sebastian Ehlert       : rSCAN, r2SCAN, r2SCAN-3c, D4, dhf basis sets  
  Marvin Friede          : D4 for Fr, Ra, Ac-Lr                          
  Lars Goerigk           : TD-DFT with DH, B97 family of functionals     
  Stefan Grimme          : VdW corrections, initial TS optimization, DFT functionals, gCP, sTDA/sTD-DF 
  Waldemar Hujo          : DFT-NL                                        
  H. Jonsson             : NEB                                           
  Holger Kruse           : gCP                                           
  Marcel Mueller         : wB97X-3c, vDZP basis set                      
  Hagen Neugebauer       : wr2SCAN                                       
  Tobias Risthaus        : range-separated hybrid DFT                    
  Lukas Wittmann         : regularized MP2, r2SCAN double-hybrids, wr2SCAN        
                                                                         
We gratefully acknowledge several colleagues who have allowed us to      
interface, adapt or use parts of their codes:                            
  Ed Valeev, F. Pavosevic, A. Kumar             : LibInt (2-el integral package), F12 methods 
  Garnet Chan, S. Sharma, J. Yang, R. Olivares  : DMRG                   
  Ulf Ekstrom                                   : XCFun DFT Library      
  Mihaly Kallay                                 : mrcc  (arbitrary order and MRCC methods)
  Frank Weinhold                                : gennbo (NPA and NBO analysis)           
  Simon Mueller                                 : openCOSMO-RS                            
  Christopher J. Cramer and Donald G. Truhlar   : smd solvation model                     
  S Lehtola, MJT Oliveira, MAL Marques          : LibXC Library                           
  Liviu Ungur et al                             : ANISO software                          


 Your calculation uses the libint2 library for the computation of 2-el integrals
 For citations please refer to: http://libint.valeyev.net

 Your ORCA version has been built with support for libXC version: 6.2.2
 For citations please refer to: https://libxc.gitlab.io

 This ORCA versions uses:
   CBLAS   interface :  Fast vector & matrix operations
   LAPACKE interface :  Fast linear algebra routines
   SCALAPACK package :  Parallel linear algebra routines
   Shared memory     :  Shared parallel matrices
   BLAS/LAPACK       :  OpenBLAS 0.3.27  USE64BITINT DYNAMIC_ARCH NO_AFFINITY SkylakeX SINGLE_THREADED
        Core in use  :  SkylakeX
   Copyright (c) 2011-2014, The OpenBLAS Project


NOTE: MaxCore=5000 MB was set to SCF,MP2,MDCI,CIPSI,MRCI and CIS
      => If you want to overwrite this, your respective input block should be placed after the MaxCore statement
Your calculation utilizes the atom-pairwise dispersion correction
based on EEQ partial charges (D4)


Warning: RI is on but no J-basis has been assigned. Assigning Def2/J (nothing to worry about!)
================================================================================

----- Orbital basis set information -----
Your calculation utilizes the basis: def2-TZVP
   F. Weigend and R. Ahlrichs, Phys. Chem. Chem. Phys. 7, 3297 (2005).

----- AuxJ basis set information -----
Your calculation utilizes the auxiliary basis: def2/J
   F. Weigend, Phys. Chem. Chem. Phys. 8, 1057 (2006).

================================================================================
                                        WARNINGS
                       Please study these warnings very carefully!
================================================================================

WARNING: Old DensityContainer found on disk!
         Will remove this file - 
         If you want to keep old densities, please start your calculation with a different basename. 


WARNING: Geometry Optimization
  ===> : Switching off AutoStart
         For restart on a previous wavefunction, please use MOREAD

================================================================================
                                       INPUT FILE
================================================================================
NAME = 07_Aminobutyric-acid_zwitterion.inp
|  1> ! Opt B3LYP D4 def2-TZVP TightSCF TightOpt CPCM(water)
|  2> 
|  3> %maxcore 5000
|  4> 
|  5> %pal
|  6> nprocs 10
|  7> end
|  8> 
|  9> %geom
| 10> 	MaxIter 1000
| 11> end
| 12> 
| 13> * xyz 0 1
| 14>   N           0.29261262494415      0.90065178383725     -0.41176787325136
| 15>   C           1.15068504650871      2.06119328024317     -0.80268492595427
| 16>   C           0.56139901721297      2.89007460551515     -1.93975622447053
| 17>   C           0.47423326471762      2.19323211840370     -3.30027850068554
| 18>   C          -0.58137645140245      1.09955997645791     -3.42711290490291
| 19>   O          -0.30883389892323      0.11315181134605     -4.17660313457776
| 20>   O          -1.66110111149185      1.21487132463699     -2.79346845030076
| 21>   H           0.59727632906989      0.45096770113341      0.46103870387099
| 22>   H          -0.68286530067377      1.21046254805683     -0.24885458325147
| 23>   H           1.25515252134537      2.68074869722401      0.08465604975545
| 24>   H           2.13162028481708      1.66622704119999     -1.06321626544441
| 25>   H           1.21836310119647      3.75556426713777     -2.04684030443950
| 26>   H          -0.41438915199216      3.28050884819825     -1.64920513852980
| 27>   H           1.44728140691302      1.78632113537017     -3.57966079085758
| 28>   H           0.22007991736201      2.94110619445488     -4.05891362131988
| 29>   H           0.28614826673561      0.15951147771695     -1.12489960574783
| 30>   O          -3.86624567162062      0.33237657548926      1.39069866010080
| 31>   H          -3.39421544729578     -0.51842695197209      1.26075720370044
| 32>   H          -4.78518271481292      0.16265774716708      1.15165332762614
| 33>   O          -1.24854777193538      3.95270725099223      1.39859937176211
| 34>   H          -0.61865770411010      4.45920816783097      0.87251990332085
| 35>   H          -1.67816738014201      3.33675556072980      0.76643160209738
| 36>   O          -0.15141292860909     -0.51150488094301      2.00151672224193
| 37>   H           0.32678444333179     -1.19882665983821      2.48215924210884
| 38>   H          -0.88844872472439     -0.96140993516428      1.52854322526356
| 39>   O           3.01657000419697     -1.32661179194874     -2.51661186170325
| 40>   H           2.86126703349101     -0.95004427893019     -3.41515765132372
| 41>   H           3.11879873289910     -0.55791619715986     -1.93980089806839
| 42>   O          -2.20436640675276     -1.68229576453103      0.54030736251933
| 43>   H          -1.97053686208406     -2.63556567964255      0.55455961913383
| 44>   H          -2.42558555085477     -1.45494420165764     -0.39093909836204
| 45>   O          -2.25777152599018     -1.81012963789980     -4.75510869548000
| 46>   H          -2.67110117896999     -1.88600102412085     -3.87745378595486
| 47>   H          -1.62088724961300     -1.07352385099910     -4.62113708762601
| 48>   O           2.24141118412191     -0.36466948107359     -4.98939091180415
| 49>   H           2.23633830046696     -1.08027140732782     -5.64173037153454
| 50>   H           1.29115144684039     -0.18498860262790     -4.77980653288263
| 51>   O           2.86899056511434      2.54325319590809      2.26749411851991
| 52>   H           3.16894772761630      1.68200412051532      1.95610374308410
| 53>   H           1.92767905717344      2.40435119913852      2.51438331296042
| 54>   O          -1.42901756023494     -4.33934516256693      0.54119652265896
| 55>   H          -0.49571749511269     -4.42010029406748      0.78180862265779
| 56>   H          -1.89724190071244     -4.92026857815669      1.15599462991599
| 57>   O           0.30997055096318     -1.69367784737775     -1.98330321557361
| 58>   H          -0.10056591122305     -1.26788495310704     -2.75023261185219
| 59>   H           1.27128707181789     -1.63797313227902     -2.15925439852079
| 60>   O          -2.34694050541196      1.98570178609404     -0.19019784028120
| 61>   H          -2.96398096467382      1.36704323837676      0.26307547581071
| 62>   H          -2.39316860999191      1.83796718539331     -1.14738734460526
| 63>   O           4.56363801306176      1.33880609053110     -1.94426073786851
| 64>   H           4.46811893969311      2.26531683930391     -1.69065193790606
| 65>   H           4.78559740071219      0.88741504385525     -1.12044257167152
| 66>   O          -3.04449504824351     -1.00074545342352     -2.01674543019378
| 67>   H          -2.53516696331080     -0.21730614008593     -2.34112589388828
| 68>   H          -3.96796548743377     -0.71589667659514     -1.99369247431604
| 69>   O           0.20641302860275      2.14686355792704      2.97803852862754
| 70>   H          -0.32625834239919      2.79232643306097      2.46236635061563
| 71>   H          -0.08378407531541      1.26441664184360      2.68806451945704
| 72> *
| 73> 
| 74>                          ****END OF INPUT****
================================================================================

                       *****************************
                       * Geometry Optimization Run *
                       *****************************

Geometry optimization settings:
Update method            Update   .... BFGS
Choice of coordinates    CoordSys .... (2022) Redundant Internals
Initial Hessian          InHess   .... Almloef's Model
Max. no of cycles        MaxIter  .... 1000

Convergence Tolerances:
Energy Change            TolE     ....  1.0000e-06 Eh
Max. Gradient            TolMAXG  ....  1.0000e-04 Eh/bohr
RMS Gradient             TolRMSG  ....  3.0000e-05 Eh/bohr
Max. Displacement        TolMAXD  ....  1.0000e-03 bohr
RMS Displacement         TolRMSD  ....  6.0000e-04 bohr
Strict Convergence                .... False

------------------------------------------------------------------------------
                        ORCA OPTIMIZATION COORDINATE SETUP
------------------------------------------------------------------------------

The optimization will be done in redundant internal coordinates (2022)
Making redundant internal coordinates   ...  (2022 redundants) done
Evaluating the initial hessian          ...  (Almloef) done
Evaluating the coordinates              ...  done
Calculating the B-matrix                .... done
Calculating the G-matrix                .... done
Diagonalizing the G-matrix              .... done
Small eigenvalue found = 1.708e-02
Small eigenvalue found = 2.603e-02
The first mode is                       ....  487
The number of degrees of freedom        ....  168

    -----------------------------------------------------------------
                    Redundant Internal Coordinates


    -----------------------------------------------------------------
         Definition                    Initial Value    Approx d2E/dq
    -----------------------------------------------------------------
      1. B(C   1,N   0)                  1.4953         0.380063   
      2. B(C   2,C   1)                  1.5255         0.379764   
      3. B(C   3,C   2)                  1.5311         0.372095   
      4. B(C   4,C   3)                  1.5253         0.380091   
      5. B(O   5,C   4)                  1.2685         0.874518   
      6. B(O   6,C   4)                  1.2572         0.911411   
      7. B(H   7,N   0)                  1.0280         0.404989   
      8. B(H   8,N   0)                  1.0364         0.392744   
      9. B(H   9,C   1)                  1.0873         0.363742   
     10. B(H  10,C   1)                  1.0891         0.361311   
     11. B(H  10,N   0)                  2.0958         0.008014   
     12. B(H  11,C   2)                  1.0919         0.357658   
     13. B(H  12,C   2)                  1.0904         0.359541   
     14. B(H  13,C   3)                  1.0911         0.358675   
     15. B(H  14,C   3)                  1.0952         0.353302   
     16. B(H  15,N   0)                  1.0285         0.404223   
     17. B(H  17,O  16)                  0.9816         0.480269   
     18. B(H  18,O  16)                  0.9646         0.511303   
     19. B(H  20,O  19)                  0.9644         0.511622   
     20. B(H  21,O  19)                  0.9816         0.480232   
     21. B(O  22,H   7)                  1.9647         0.012974   
     22. B(H  23,O  22)                  0.9655         0.509642   
     23. B(H  24,H   7)                  2.3112         0.000776   
     24. B(H  24,O  22)                  0.9846         0.475114   
     25. B(H  26,O  25)                  0.9866         0.471614   
     26. B(H  27,O  25)                  0.9665         0.507753   
     27. B(O  28,H  24)                  1.7966         0.024052   
     28. B(O  28,H  17)                  1.8137         0.022594   
     29. B(H  29,H  24)                  2.2186         0.001091   
     30. B(H  29,O  28)                  0.9816         0.480234   
     31. B(H  30,O  28)                  0.9838         0.476440   
     32. B(H  30,H  17)                  2.1315         0.001502   
     33. B(H  32,O  31)                  0.9731         0.495571   
     34. B(H  33,O  31)                  0.9829         0.477945   
     35. B(H  33,O   5)                  1.8241         0.021746   
     36. B(O  34,H  26)                  1.7903         0.024621   
     37. B(H  35,O  34)                  0.9683         0.504290   
     38. B(H  35,H  26)                  2.3163         0.000762   
     39. B(H  36,H  26)                  2.2165         0.001100   
     40. B(H  36,O   5)                  1.7357         0.030086   
     41. B(H  36,O  34)                  0.9895         0.466472   
     42. B(H  38,O  37)                  0.9637         0.512965   
     43. B(H  39,O  37)                  0.9830         0.477805   
     44. B(O  40,H  29)                  1.7878         0.024845   
     45. B(H  41,O  40)                  0.9672         0.506394   
     46. B(H  42,O  40)                  0.9668         0.507147   
     47. B(O  43,H  15)                  2.0425         0.009748   
     48. B(H  44,H  15)                  2.1974         0.001179   
     49. B(H  44,O   5)                  1.9963         0.011551   
     50. B(H  44,O  43)                  0.9685         0.503944   
     51. B(H  45,H  15)                  2.2959         0.000821   
     52. B(H  45,H  27)                  2.1513         0.001397   
     53. B(H  45,H  26)                  2.1398         0.001458   
     54. B(H  45,O  25)                  1.8085         0.023027   
     55. B(H  45,O  43)                  0.9789         0.485129   
     56. B(O  46,H  21)                  1.7854         0.025064   
     57. B(O  46,H   8)                  1.8367         0.020759   
     58. B(H  47,O  46)                  0.9843         0.475474   
     59. B(H  47,H  17)                  2.1761         0.001275   
     60. B(H  47,O  16)                  1.7766         0.025894   
     61. B(H  48,O  46)                  0.9696         0.501891   
     62. B(H  48,H   8)                  2.0313         0.002171   
     63. B(H  48,O   6)                  1.9062         0.016081   
     64. B(O  49,H  10)                  2.6073         0.001224   
     65. B(O  49,H  27)                  2.3844         0.002777   
     66. B(H  50,H  10)                  2.4924         0.000399   
     67. B(H  50,O  49)                  0.9653         0.509873   
     68. B(H  51,H  10)                  2.7665         0.000146   
     69. B(H  51,H  27)                  2.3534         0.000665   
     70. B(H  51,O  49)                  0.9652         0.510035   
     71. B(O  52,H  30)                  1.7979         0.023938   
     72. B(O  52,H  32)                  2.0941         0.008064   
     73. B(H  53,H  30)                  2.3124         0.000773   
     74. B(H  53,O   6)                  1.7377         0.029863   
     75. B(H  53,O  52)                  0.9891         0.467156   
     76. B(H  53,H  32)                  2.2723         0.000896   
     77. B(H  54,O  52)                  0.9667         0.507354   
     78. B(O  55,H  39)                  1.8011         0.023660   
     79. B(H  56,O  55)                  0.9830         0.477837   
     80. B(H  56,H  39)                  2.2877         0.000847   
     81. B(H  56,H  20)                  2.3220         0.000746   
     82. B(H  56,H  21)                  2.2361         0.001023   
     83. B(H  56,O  19)                  1.8245         0.021715   
     84. B(H  57,O  55)                  0.9731         0.495444   
     85. B(H  57,H  39)                  2.3185         0.000756   
     86. B(H  57,O  22)                  1.9052         0.016142   
     87. A(C   1,N   0,H  15)          112.4329         0.326701   
     88. A(H   7,N   0,H  15)          105.9814         0.296842   
     89. A(C   1,N   0,H   8)          110.4388         0.325157   
     90. A(C   1,N   0,H   7)          113.0410         0.326803   
     91. A(H   7,N   0,H   8)          106.0363         0.295492   
     92. A(H   8,N   0,H  15)          108.5711         0.295403   
     93. A(C   2,C   1,H   9)          109.6219         0.325734   
     94. A(N   0,C   1,H  10)          107.3333         0.323472   
     95. A(N   0,C   1,H   9)          106.5012         0.323828   
     96. A(C   2,C   1,H  10)          111.5101         0.325375   
     97. A(H   9,C   1,H  10)          108.3817         0.291453   
     98. A(N   0,C   1,C   2)          113.2592         0.363174   
     99. A(C   3,C   2,H  12)          110.4135         0.324025   
    100. A(C   1,C   2,H  12)          109.9752         0.325113   
    101. A(C   1,C   2,C   3)          115.9146         0.364126   
    102. A(C   3,C   2,H  11)          107.9314         0.323746   
    103. A(H  11,C   2,H  12)          106.3049         0.290458   
    104. A(C   1,C   2,H  11)          105.7459         0.324832   
    105. A(C   4,C   3,H  14)          105.7495         0.324225   
    106. A(C   2,C   3,C   4)          116.0804         0.364180   
    107. A(C   2,C   3,H  13)          110.2735         0.323897   
    108. A(C   4,C   3,H  13)          109.1778         0.325030   
    109. A(C   2,C   3,H  14)          108.5389         0.323095   
    110. A(H  13,C   3,H  14)          106.5146         0.289790   
    111. A(C   3,C   4,O   6)          119.1231         0.423262   
    112. A(O   5,C   4,O   6)          123.6175         0.489319   
    113. A(C   3,C   4,O   5)          117.2594         0.420151   
    114. A(C   4,O   5,H  44)           97.9442         0.217376   
    115. A(C   4,O   5,H  33)          119.6925         0.237138   
    116. A(H  36,O   5,H  44)           91.9089         0.140608   
    117. A(C   4,O   5,H  36)          122.4777         0.248434   
    118. A(H  33,O   5,H  44)           78.4111         0.136952   
    119. A(H  33,O   5,H  36)          117.8144         0.148553   
    120. A(C   4,O   6,H  48)          142.6568         0.228657   
    121. A(C   4,O   6,H  53)          119.1817         0.249661   
    122. A(H  48,O   6,H  53)           81.4570         0.144527   
    123. A(O  22,H   7,H  24)           24.9756         0.107733   
    124. A(N   0,H   7,H  24)          117.9657         0.129818   
    125. A(N   0,H   7,O  22)          140.0904         0.184430   
    126. A(N   0,H   8,O  46)          169.7216         0.194407   
    127. A(O  46,H   8,H  48)           28.4685         0.115296   
    128. A(N   0,H   8,H  48)          144.6173         0.140157   
    129. A(C   1,H  10,O  49)          165.1304         0.144144   
    130. A(C   1,H  10,H  51)          166.1942         0.116563   
    131. A(O  49,H  10,H  51)           20.4180         0.096519   
    132. A(O  49,H  10,H  50)           21.6713         0.098444   
    133. A(C   1,H  10,H  50)          144.8277         0.123619   
    134. A(H  50,H  10,H  51)           33.1876         0.093720   
    135. A(H  44,H  15,H  45)           39.9806         0.097920   
    136. A(N   0,H  15,H  45)          150.9037         0.130322   
    137. A(O  43,H  15,H  44)           26.0806         0.108302   
    138. A(N   0,H  15,H  44)          169.1150         0.133849   
    139. A(N   0,H  15,O  43)          160.9297         0.178414   
    140. A(O  43,H  15,H  45)           25.2192         0.106784   
    141. A(H  18,O  16,H  47)          115.4054         0.206634   
    142. A(H  17,O  16,H  18)          105.8316         0.316820   
    143. A(H  17,O  16,H  47)          100.1686         0.204978   
    144. A(O  16,H  17,H  30)          134.5807         0.138260   
    145. A(H  30,H  17,H  47)           86.3062         0.099410   
    146. A(O  16,H  17,H  47)           53.4720         0.136468   
    147. A(O  28,H  17,H  47)          104.1338         0.112765   
    148. A(O  28,H  17,H  30)           27.3908         0.113663   
    149. A(O  16,H  17,O  28)          157.5578         0.201455   
    150. A(H  21,O  19,H  56)          101.3992         0.200447   
    151. A(H  20,O  19,H  21)          105.3137         0.316848   
    152. A(H  20,O  19,H  56)          108.7789         0.202055   
    153. A(O  19,H  20,H  56)           48.0658         0.131652   
    154. A(O  46,H  21,H  56)          116.6530         0.112145   
    155. A(O  19,H  21,H  56)           53.1123         0.134156   
    156. A(O  19,H  21,O  46)          169.6747         0.204124   
    157. A(H  23,O  22,H  24)          106.5366         0.316097   
    158. A(H  23,O  22,H  57)          117.8154         0.194622   
    159. A(H  24,O  22,H  57)          128.7292         0.192958   
    160. A(H   7,O  22,H  24)           97.6119         0.187943   
    161. A(H   7,O  22,H  23)          123.3917         0.189526   
    162. A(H   7,O  22,H  57)           79.1859         0.135018   
    163. A(O  28,H  24,H  29)           25.6484         0.112266   
    164. A(H   7,H  24,H  29)          124.8818         0.097654   
    165. A(H   7,H  24,O  28)          117.5144         0.110542   
    166. A(H   7,H  24,O  22)           57.4124         0.131320   
    167. A(O  22,H  24,H  29)          157.0471         0.134707   
    168. A(O  22,H  24,O  28)          174.8042         0.202779   
    169. A(H  26,O  25,H  27)          104.8708         0.315527   
    170. A(H  27,O  25,H  45)           96.9545         0.203370   
    171. A(H  26,O  25,H  45)           95.3805         0.201475   
    172. A(O  25,H  26,O  34)          168.5742         0.203192   
    173. A(O  34,H  26,H  45)          111.3432         0.113975   
    174. A(H  35,H  26,H  36)           40.2218         0.097633   
    175. A(O  34,H  26,H  35)           23.0299         0.110566   
    176. A(O  25,H  26,H  35)          153.7049         0.131072   
    177. A(H  35,H  26,H  45)          110.2217         0.098202   
    178. A(O  34,H  26,H  36)           25.9067         0.112432   
    179. A(O  25,H  26,H  45)           57.2949         0.137723   
    180. A(O  25,H  26,H  36)          143.5148         0.134712   
    181. A(H  36,H  26,H  45)           86.9024         0.098998   
    182. A(O  25,H  27,H  45)           56.5615         0.138072   
    183. A(O  49,H  27,H  51)           23.4991         0.101760   
    184. A(H  45,H  27,H  51)          162.1928         0.097837   
    185. A(O  25,H  27,H  51)          140.4595         0.130480   
    186. A(H  45,H  27,O  49)          156.8664         0.104095   
    187. A(O  25,H  27,O  49)          134.0819         0.159855   
    188. A(H  17,O  28,H  24)           90.2594         0.146104   
    189. A(H  17,O  28,H  30)           94.5998         0.201251   
    190. A(H  17,O  28,H  29)          140.6861         0.201453   
    191. A(H  24,O  28,H  30)          126.3445         0.202851   
    192. A(H  24,O  28,H  29)          101.9579         0.203056   
    193. A(H  29,O  28,H  30)          106.9614         0.313204   
    194. A(H  24,H  29,O  40)          125.0765         0.112438   
    195. A(H  24,H  29,O  28)           52.3937         0.134818   
    196. A(O  52,H  30,H  53)           23.9139         0.110499   
    197. A(O  28,H  30,H  53)          158.8561         0.131307   
    198. A(H  17,H  30,H  53)          113.3800         0.098295   
    199. A(H  17,H  30,O  52)          115.6758         0.113987   
    200. A(H  17,H  30,O  28)           58.0094         0.138171   
    201. A(O  28,H  30,O  52)          172.6343         0.202728   
    202. A(H  32,O  31,H  33)          102.1647         0.314966   
    203. A(O  52,H  32,H  53)           25.7725         0.106375   
    204. A(O  31,H  32,H  53)          121.8126         0.133131   
    205. A(O  31,H  32,O  52)          147.5849         0.178699   
    206. A(O   5,H  33,O  31)          170.6811         0.200362   
    207. A(H  26,O  34,H  36)          101.8658         0.202909   
    208. A(H  26,O  34,H  35)          110.6438         0.204936   
    209. A(H  35,O  34,H  36)          105.7738         0.314616   
    210. A(H  26,H  35,O  34)           46.3263         0.131715   
    211. A(O   5,H  36,H  26)          119.8883         0.113519   
    212. A(H  26,H  36,O  34)           52.2274         0.134598   
    213. A(O   5,H  36,O  34)          171.8904         0.208196   
    214. A(H  38,O  37,H  39)          104.6509         0.316722   
    215. A(H  56,H  39,H  57)           39.6751         0.097122   
    216. A(O  55,H  39,H  57)           23.2682         0.110332   
    217. A(O  37,H  39,H  57)          156.7863         0.131117   
    218. A(O  55,H  39,H  56)           24.2905         0.110887   
    219. A(O  37,H  39,H  56)          156.0331         0.132212   
    220. A(H  29,O  40,H  41)          111.7150         0.205283   
    221. A(H  41,O  40,H  42)          105.0088         0.319142   
    222. A(H  29,O  40,H  42)          114.9095         0.205323   
    223. A(H  15,O  43,H  45)           92.0267         0.182184   
    224. A(H  15,O  43,H  44)           85.9266         0.182990   
    225. A(H  44,O  43,H  45)          104.4140         0.316592   
    226. A(O   5,H  44,H  15)           95.5936         0.109058   
    227. A(H  15,H  44,O  43)           67.9929         0.136144   
    228. A(O   5,H  44,O  43)          156.0862         0.186670   
    229. A(H  15,H  45,H  27)           85.9560         0.098269   
    230. A(H  15,H  45,H  26)          109.3633         0.098359   
    231. A(H  15,H  45,O  25)          111.6117         0.110604   
    232. A(H  15,H  45,O  43)           62.7541         0.132064   
    233. A(H  26,H  45,H  27)           42.2960         0.099555   
    234. A(H  27,H  45,O  43)          148.6087         0.137569   
    235. A(O  25,H  45,H  26)           27.3246         0.113600   
    236. A(H  26,H  45,O  43)          148.5982         0.138036   
    237. A(O  25,H  45,H  27)           26.4839         0.113365   
    238. A(O  25,H  45,O  43)          173.2427         0.202196   
    239. A(H   8,O  46,H  48)           86.9826         0.200423   
    240. A(H   8,O  46,H  47)          108.5034         0.199068   
    241. A(H  47,O  46,H  48)          109.2039         0.315349   
    242. A(H   8,O  46,H  21)           89.8360         0.145544   
    243. A(H  21,O  46,H  48)          131.4587         0.205280   
    244. A(H  21,O  46,H  47)          117.6241         0.203865   
    245. A(O  16,H  47,O  46)          167.6018         0.204715   
    246. A(O  16,H  47,H  17)           26.3594         0.113510   
    247. A(H  17,H  47,O  46)          151.5949         0.136360   
    248. A(O   6,H  48,O  46)          152.1214         0.194166   
    249. A(O   6,H  48,H   8)           87.5727         0.113819   
    250. A(H   8,H  48,O  46)           64.5489         0.143077   
    251. A(H  10,O  49,H  27)           62.2276         0.107107   
    252. A(H  10,O  49,H  51)           89.1299         0.147924   
    253. A(H  10,O  49,H  50)           72.4463         0.147920   
    254. A(H  27,O  49,H  51)           76.4521         0.159927   
    255. A(H  27,O  49,H  50)          134.6719         0.159921   
    256. A(H  50,O  49,H  51)          104.3218         0.319796   
    257. A(H  10,H  50,O  49)           85.8823         0.125990   
    258. A(H  10,H  51,H  27)           60.0429         0.094298   
    259. A(H  10,H  51,O  49)           70.4521         0.118452   
    260. A(H  27,H  51,O  49)           80.0489         0.130523   
    261. A(H  30,O  52,H  54)          112.4403         0.204358   
    262. A(H  30,O  52,H  53)          108.6252         0.202223   
    263. A(H  53,O  52,H  54)          105.4462         0.315000   
    264. A(H  30,O  52,H  32)          129.4423         0.134177   
    265. A(H  32,O  52,H  54)          108.4267         0.179177   
    266. A(H  32,O  52,H  53)           87.2270         0.177508   
    267. A(O   6,H  53,H  30)          129.5546         0.111603   
    268. A(H  30,H  53,O  52)           47.4609         0.131119   
    269. A(H  30,H  53,H  32)          100.3697         0.097269   
    270. A(O   6,H  53,H  32)          117.3439         0.112368   
    271. A(H  32,H  53,O  52)           67.0006         0.132546   
    272. A(H  39,O  55,H  57)          109.7498         0.203437   
    273. A(H  39,O  55,H  56)          106.7949         0.202503   
    274. A(H  56,O  55,H  57)          106.1123         0.314941   
    275. A(H  20,H  56,H  39)          105.1522         0.097098   
    276. A(H  21,H  56,H  39)          130.8587         0.097698   
    277. A(O  19,H  56,H  39)          128.2559         0.110466   
    278. A(H  39,H  56,O  55)           48.9147         0.132213   
    279. A(H  20,H  56,H  21)           39.6280         0.097453   
    280. A(O  19,H  56,H  20)           23.1553         0.109862   
    281. A(H  20,H  56,O  55)          154.0004         0.130997   
    282. A(O  19,H  56,H  21)           25.4885         0.111406   
    283. A(H  21,H  56,O  55)          152.2941         0.134105   
    284. A(O  22,H  57,H  39)          117.5227         0.108564   
    285. A(H  39,H  57,O  55)           46.9821         0.131464   
    286. A(O  22,H  57,O  55)          164.4134         0.193949   
    287. D(C   2,C   1,N   0,H  15)     70.8630         0.014042   
    288. D(H   9,C   1,N   0,H   8)     69.9936         0.014042   
    289. D(H   9,C   1,N   0,H  15)   -168.5698         0.014042   
    290. D(H  10,C   1,N   0,H   7)     67.2946         0.014042   
    291. D(H   9,C   1,N   0,H   7)    -48.6177         0.014042   
    292. D(C   2,C   1,N   0,H   8)    -50.5736         0.014042   
    293. D(C   2,C   1,N   0,H   7)   -169.1849         0.014042   
    294. D(C   3,C   2,C   1,H  10)     54.4443         0.011495   
    295. D(H  11,C   2,C   1,N   0)    173.7345         0.011495   
    296. D(H  11,C   2,C   1,H  10)    -65.0700         0.011495   
    297. D(C   3,C   2,C   1,H   9)    174.4680         0.011495   
    298. D(H  11,C   2,C   1,H   9)     54.9537         0.011495   
    299. D(C   3,C   2,C   1,N   0)    -66.7512         0.011495   
    300. D(C   4,C   3,C   2,H  11)   -169.8894         0.011061   
    301. D(H  13,C   3,C   2,C   1)    -53.0051         0.011061   
    302. D(C   4,C   3,C   2,C   1)     71.7939         0.011061   
    303. D(H  13,C   3,C   2,H  11)     65.3116         0.011061   
    304. D(C   4,C   3,C   2,H  12)    -54.0858         0.011061   
    305. D(H  13,C   3,C   2,H  12)   -178.8848         0.011061   
    306. D(O   6,C   4,C   3,H  13)    158.8077         0.010780   
    307. D(O   5,C   4,C   3,H  13)    -21.0867         0.010780   
    308. D(O   5,C   4,C   3,H  14)     93.1677         0.010780   
    309. D(O   5,C   4,C   3,C   2)   -146.4451         0.010780   
    310. D(O   6,C   4,C   3,C   2)     33.4492         0.010780   
    311. D(H  44,O   5,C   4,O   6)    -69.8891         0.072712   
    312. D(H  44,O   5,C   4,C   3)    110.0001         0.072712   
    313. D(H  36,O   5,C   4,O   6)   -167.2832         0.072712   
    314. D(H  36,O   5,C   4,C   3)     12.6059         0.072712   
    315. D(H  33,O   5,C   4,C   3)   -168.8541         0.072712   
    316. D(H  53,O   6,C   4,O   5)     26.7989         0.073308   
    317. D(H  48,O   6,C   4,C   3)    -36.2521         0.073308   
    318. D(H  53,O   6,C   4,C   3)   -153.0883         0.073308   
    319. D(H  48,O   6,C   4,O   5)    143.6352         0.073308   
    320. D(H  24,H   7,N   0,H   8)     42.6316         0.238782   
    321. D(H  24,H   7,N   0,C   1)    163.7690         0.238782   
    322. D(O  22,H   7,N   0,H  15)    -87.8681         0.238782   
    323. D(H  24,H   7,N   0,H  15)    -72.6468         0.238782   
    324. D(O  22,H   7,N   0,H   8)     27.4102         0.238782   
    325. D(O  22,H   7,N   0,C   1)    148.5477         0.238782   
    326. D(O  46,H   8,N   0,H  15)    -92.4451         0.221110   
    327. D(O  46,H   8,N   0,H   7)    154.0531         0.221110   
    328. D(H  48,H   8,N   0,H   7)   -164.0135         0.221110   
    329. D(H  48,H   8,N   0,C   1)     73.1863         0.221110   
    330. D(H  48,H   8,N   0,H  15)    -50.5117         0.221110   
    331. D(O  46,H   8,N   0,C   1)     31.2529         0.221110   
    332. D(O  49,H  10,C   1,N   0)    166.4837         0.153918   
    333. D(O  49,H  10,C   1,C   2)     41.8972         0.153918   
    334. D(H  50,H  10,C   1,H   9)    -59.2664         0.153918   
    335. D(O  49,H  10,C   1,H   9)    -78.8548         0.153918   
    336. D(H  51,H  10,C   1,N   0)   -102.1900         0.153918   
    337. D(H  50,H  10,C   1,C   2)     61.4856         0.153918   
    338. D(H  50,H  10,C   1,N   0)   -173.9280         0.153918   
    339. D(H  45,H  15,N   0,C   1)     78.4726         0.254049   
    340. D(H  44,H  15,N   0,H   8)     20.2472         0.254049   
    341. D(H  44,H  15,N   0,C   1)   -102.2496         0.254049   
    342. D(O  43,H  15,N   0,C   1)    138.7239         0.254049   
    343. D(H  44,H  15,N   0,H   7)    133.7852         0.254049   
    344. D(O  43,H  15,N   0,H   8)    -98.7793         0.254049   
    345. D(O  43,H  15,N   0,H   7)     14.7587         0.254049   
    346. D(O  28,H  17,O  16,H  47)     -4.1721         0.341129   
    347. D(H  30,H  17,O  16,H  18)     87.6663         0.341129   
    348. D(O  28,H  17,O  16,H  18)    116.0872         0.341129   
    349. D(H  30,H  17,O  16,H  47)    -32.5930         0.341129   
    350. D(H  47,H  17,O  16,H  18)    120.2593         0.341129   
    351. D(H  56,H  20,O  19,H  21)   -108.0319         0.331650   
    352. D(H  56,H  21,O  19,H  20)    113.3092         0.312498   
    353. D(O  46,H  21,O  19,H  56)      8.0525         0.312498   
    354. D(O  46,H  21,O  19,H  20)    121.3618         0.312498   
    355. D(H  57,O  22,H   7,H  24)   -128.1037         0.001606   
    356. D(H  57,O  22,H   7,N   0)    -94.7916         0.001606   
    357. D(H  23,O  22,H   7,H  24)    115.5961         0.001606   
    358. D(H  24,O  22,H   7,N   0)     33.3122         0.001606   
    359. D(H  23,O  22,H   7,N   0)    148.9083         0.001606   
    360. D(H  29,H  24,O  22,H  57)   -174.4232         0.357949   
    361. D(H  29,H  24,O  22,H   7)    103.3625         0.357949   
    362. D(H  29,H  24,O  22,H  23)    -24.8725         0.357949   
    363. D(O  28,H  24,O  22,H  57)     69.4078         0.357949   
    364. D(O  28,H  24,O  22,H   7)    -12.8066         0.357949   
    365. D(H  29,H  24,H   7,O  22)   -152.4505         0.001507   
    366. D(O  28,H  24,H   7,O  22)    178.7031         0.001507   
    367. D(H  29,H  24,H   7,N   0)     51.0614         0.001507   
    368. D(O  22,H  24,H   7,N   0)   -156.4881         0.001507   
    369. D(O  28,H  24,O  22,H  23)   -141.0416         0.357949   
    370. D(O  28,H  24,H   7,N   0)     22.2150         0.001507   
    371. D(H  35,H  26,O  25,H  45)    -68.1470         0.351239   
    372. D(H  35,H  26,O  25,H  27)   -166.8227         0.351239   
    373. D(O  34,H  26,O  25,H  45)     -6.4023         0.351239   
    374. D(H  36,H  26,O  25,H  45)     12.5162         0.351239   
    375. D(H  36,H  26,O  25,H  27)    -86.1595         0.351239   
    376. D(O  34,H  26,O  25,H  27)   -105.0780         0.351239   
    377. D(O  49,H  27,O  25,H  45)   -153.4521         0.393650   
    378. D(O  49,H  27,O  25,H  26)    -55.9752         0.393650   
    379. D(H  51,H  27,O  25,H  26)    -89.6514         0.393650   
    380. D(H  45,H  27,O  25,H  26)     97.4770         0.393650   
    381. D(H  51,H  27,O  25,H  45)    172.8716         0.393650   
    382. D(H  17,O  28,H  24,O  22)    -91.6039         0.001905   
    383. D(H  30,O  28,H  17,O  16)    -47.4647         0.001856   
    384. D(H  29,O  28,H  17,H  47)   -174.9897         0.001856   
    385. D(H  29,O  28,H  24,H   7)    113.8842         0.001905   
    386. D(H  24,O  28,H  17,H  30)    126.5072         0.001856   
    387. D(H  24,O  28,H  17,O  16)     79.0425         0.001856   
    388. D(H  30,O  28,H  17,H  47)    -50.9210         0.001856   
    389. D(H  29,O  28,H  24,O  22)    126.0406         0.001905   
    390. D(H  30,O  28,H  24,H  29)   -121.7386         0.001905   
    391. D(H  30,O  28,H  24,H   7)     -7.8544         0.001905   
    392. D(H  30,O  28,H  24,O  22)      4.3021         0.001905   
    393. D(H  29,O  28,H  17,H  30)   -124.0687         0.001856   
    394. D(H  29,O  28,H  17,O  16)   -171.5334         0.001856   
    395. D(H  17,O  28,H  24,H  29)    142.3554         0.001905   
    396. D(H  24,H  29,O  28,H  17)   -105.4223         0.341065   
    397. D(O  40,H  29,H  24,H   7)     94.7475         0.001513   
    398. D(O  40,H  29,H  24,O  28)    176.0712         0.001513   
    399. D(O  40,H  29,H  24,O  22)      6.8940         0.001513   
    400. D(O  28,H  29,H  24,H   7)    -81.3237         0.001513   
    401. D(O  28,H  29,H  24,O  22)   -169.1772         0.001513   
    402. D(H  24,H  29,O  28,H  30)    134.2610         0.341065   
    403. D(H  53,H  30,O  28,H  24)    -22.2594         0.360514   
    404. D(O  52,H  30,O  28,H  24)   -125.7974         0.360514   
    405. D(H  53,H  30,O  28,H  29)   -141.8194         0.360514   
    406. D(O  52,H  30,O  28,H  29)    114.6425         0.360514   
    407. D(H  53,H  30,H  17,O  16)     -1.3872         0.001526   
    408. D(O  52,H  30,H  17,O  28)    175.6673         0.001526   
    409. D(O  52,H  30,H  17,O  16)    -27.5947         0.001526   
    410. D(O  52,H  30,O  28,H  17)    -32.0800         0.360514   
    411. D(O  28,H  30,H  17,H  47)    131.0319         0.001526   
    412. D(O  28,H  30,H  17,O  16)    156.7381         0.001526   
    413. D(O  52,H  30,H  17,H  47)    -53.3009         0.001526   
    414. D(H  17,H  30,O  28,H  29)    146.7225         0.360514   
    415. D(H  53,H  30,O  28,H  17)     71.4580         0.360514   
    416. D(H  53,H  32,O  31,H  33)     17.4824         0.305487   
    417. D(O  52,H  32,O  31,H  33)     17.3181         0.305487   
    418. D(O   5,H  33,O  31,H  32)     63.1516         0.245309   
    419. D(O  31,H  33,O   5,H  44)    -11.9125         0.001779   
    420. D(O  31,H  33,O   5,C   4)   -104.5191         0.001779   
    421. D(O  31,H  33,O   5,H  36)     74.0884         0.001779   
    422. D(H  36,O  34,H  26,H  45)     20.4022         0.001925   
    423. D(H  36,O  34,H  26,H  35)    112.0858         0.001925   
    424. D(H  36,O  34,H  26,O  25)     26.1839         0.001925   
    425. D(H  35,O  34,H  26,H  45)    -91.6836         0.001925   
    426. D(H  35,O  34,H  26,H  36)   -112.0858         0.001925   
    427. D(H  35,O  34,H  26,O  25)    -85.9019         0.001925   
    428. D(H  26,H  35,O  34,H  36)   -109.5574         0.319522   
    429. D(O  34,H  35,H  26,H  45)     97.1748         0.001506   
    430. D(O  34,H  35,H  26,O  25)    153.5103         0.001506   
    431. D(O  34,H  35,H  26,H  36)     38.8250         0.001506   
    432. D(O   5,H  36,O  34,H  26)     14.2117         0.290103   
    433. D(O   5,H  36,H  26,H  35)    148.1386         0.001514   
    434. D(H  26,H  36,O  34,H  35)    115.7028         0.290103   
    435. D(O   5,H  36,H  26,O  34)   -177.7107         0.001514   
    436. D(O   5,H  36,H  26,O  25)     10.7428         0.001514   
    437. D(O  34,H  36,H  26,H  45)   -161.0239         0.001514   
    438. D(O  34,H  36,H  26,H  35)    -34.1507         0.001514   
    439. D(O  34,H  36,O   5,H  44)    -40.3498         0.002098   
    440. D(H  26,H  36,O   5,C   4)     73.2535         0.002098   
    441. D(O  34,H  36,O   5,H  33)   -118.2467         0.002098   
    442. D(O   5,H  36,O  34,H  35)    129.9146         0.290103   
    443. D(O  34,H  36,H  26,O  25)   -171.5466         0.001514   
    444. D(O  34,H  36,O   5,C   4)     60.3194         0.002098   
    445. D(H  26,H  36,O   5,H  44)    -27.4157         0.002098   
    446. D(H  57,H  39,O  37,H  38)     -8.0264         0.308468   
    447. D(H  56,H  39,O  37,H  38)   -124.0009         0.308468   
    448. D(H  42,O  40,H  29,H  24)    103.1143         0.001868   
    449. D(H  41,O  40,H  29,H  24)    -16.3763         0.001868   
    450. D(H  42,O  40,O  28,H  17)     -3.6610         0.001501   
    451. D(H  42,O  40,O  28,H  24)    100.8837         0.001501   
    452. D(H  42,O  40,O  28,H  30)   -126.0428         0.001501   
    453. D(H  41,O  40,O  28,H  17)   -123.1494         0.001501   
    454. D(H  41,O  40,O  28,H  24)    -18.6047         0.001501   
    455. D(H  41,O  40,O  28,H  30)    114.4688         0.001501   
    456. D(H  45,O  43,H  15,H  44)    104.3114         0.001560   
    457. D(H  45,O  43,H  15,N   0)    -97.7489         0.001560   
    458. D(H  44,O  43,H  15,H  45)   -104.3114         0.001560   
    459. D(H  44,O  43,H  15,N   0)    157.9397         0.001560   
    460. D(H  15,H  44,O  43,H  45)    -91.0488         0.353724   
    461. D(O   5,H  44,O  43,H  15)     49.2984         0.353724   
    462. D(O   5,H  44,O  43,H  45)    -41.7503         0.353724   
    463. D(O   5,H  44,H  15,H  45)   -122.0316         0.001515   
    464. D(O   5,H  44,H  15,O  43)   -162.0142         0.001515   
    465. D(O   5,H  44,H  15,N   0)     58.5150         0.001515   
    466. D(O  43,H  44,H  15,H  45)     39.9826         0.001515   
    467. D(O  43,H  44,H  15,N   0)   -139.4708         0.001515   
    468. D(H  15,H  44,O   5,H  36)    101.7849         0.001584   
    469. D(H  15,H  44,O   5,C   4)    -21.3851         0.001584   
    470. D(O  43,H  44,O   5,H  33)    174.8730         0.001584   
    471. D(O  43,H  44,O   5,C   4)    -66.3150         0.001584   
    472. D(O  43,H  44,O   5,H  36)     56.8550         0.001584   
    473. D(H  27,H  45,O  43,H  15)      5.0036         0.377620   
    474. D(H  26,H  45,O  43,H  15)    -82.6576         0.377620   
    475. D(H  26,H  45,O  43,H  44)      3.6561         0.377620   
    476. D(O  25,H  45,O  43,H  15)    -34.3975         0.377620   
    477. D(H  26,H  45,H  27,H  51)    153.9337         0.001524   
    478. D(H  26,H  45,H  27,O  25)    -41.0371         0.001524   
    479. D(O  25,H  45,H  27,O  49)    125.1939         0.001524   
    480. D(O  25,H  45,H  27,H  51)   -165.0291         0.001524   
    481. D(O  43,H  45,H  27,O  49)    -45.1649         0.001524   
    482. D(O  43,H  45,H  27,H  51)     24.6120         0.001524   
    483. D(O  43,H  45,H  27,O  25)   -170.3588         0.001524   
    484. D(O  25,H  45,H  26,H  35)    154.0128         0.001528   
    485. D(O  25,H  45,H  26,H  36)   -172.5853         0.001528   
    486. D(O  25,H  45,H  26,O  34)    178.6410         0.001528   
    487. D(O  43,H  45,H  26,H  35)    -37.0139         0.001528   
    488. D(O  43,H  45,H  26,H  36)     -3.6120         0.001528   
    489. D(O  43,H  45,H  26,O  34)    -12.3857         0.001528   
    490. D(O  43,H  45,H  26,O  25)    168.9733         0.001528   
    491. D(H  15,H  45,O  25,H  27)     15.1517         0.001870   
    492. D(H  27,H  45,H  26,O  25)     39.6305         0.001528   
    493. D(H  15,H  45,O  25,H  26)    -90.5826         0.001870   
    494. D(H  27,H  45,O  25,H  26)   -105.7343         0.001870   
    495. D(H  26,H  45,O  25,H  27)    105.7343         0.001870   
    496. D(O  43,H  45,O  25,H  27)     47.8509         0.001870   
    497. D(O  43,H  45,O  25,H  26)    -57.8834         0.001870   
    498. D(H  26,H  45,H  15,O  43)    146.7874         0.001509   
    499. D(H  26,H  45,H  15,N   0)    -74.9533         0.001509   
    500. D(O  25,H  45,O  43,H  44)     51.9162         0.377620   
    501. D(O  25,H  45,H  15,H  44)    134.3715         0.001509   
    502. D(O  25,H  45,H  15,O  43)    175.9000         0.001509   
    503. D(O  25,H  45,H  15,N   0)    -45.8407         0.001509   
    504. D(H  27,H  45,O  43,H  44)     91.3172         0.377620   
    505. D(O  43,H  45,H  15,H  44)    -41.5285         0.001509   
    506. D(O  43,H  45,H  15,N   0)    138.2593         0.001509   
    507. D(H   8,O  46,H  21,O  19)    -52.8294         0.001909   
    508. D(H  48,O  46,H  21,H  56)   -131.4549         0.001909   
    509. D(H  48,O  46,H  21,O  19)   -138.6564         0.001909   
    510. D(H  47,O  46,H  21,H  56)     65.2695         0.001909   
    511. D(H  47,O  46,H  21,O  19)     58.0680         0.001909   
    512. D(H  21,O  46,H   8,H  48)   -131.5408         0.001777   
    513. D(H  21,O  46,H   8,N   0)    -77.2718         0.001777   
    514. D(H  48,O  46,H   8,N   0)     54.2690         0.001777   
    515. D(H  47,O  46,H   8,H  48)    109.2507         0.001777   
    516. D(H  47,O  46,H   8,N   0)    163.5197         0.001777   
    517. D(H  17,H  47,O  46,H   8)     -0.5286         0.332470   
    518. D(H  17,H  47,O  46,H  48)     92.7842         0.332470   
    519. D(O  16,H  47,O  46,H  21)    -31.6163         0.332470   
    520. D(O  16,H  47,O  46,H   8)     68.2721         0.332470   
    521. D(O  16,H  47,O  46,H  48)    161.5849         0.332470   
    522. D(O  16,H  47,H  17,H  30)    157.3891         0.001518   
    523. D(O  16,H  47,H  17,O  28)    178.3588         0.001518   
    524. D(O  46,H  47,H  17,H  30)    -49.4088         0.001518   
    525. D(O  46,H  47,H  17,O  28)    -28.4391         0.001518   
    526. D(O  46,H  47,H  17,O  16)    153.2021         0.001518   
    527. D(H  17,H  47,O  16,H  18)   -113.0807         0.001901   
    528. D(O  46,H  47,O  16,H  18)    154.2282         0.001901   
    529. D(O  46,H  47,O  16,H  17)    -92.6912         0.001901   
    530. D(H   8,H  48,O  46,H  47)   -108.5521         0.382028   
    531. D(O   6,H  48,O  46,H  21)     86.8810         0.382028   
    532. D(O   6,H  48,O  46,H   8)     -0.2304         0.382028   
    533. D(O   6,H  48,O  46,H  47)   -108.7826         0.382028   
    534. D(O   6,H  48,H   8,O  46)    179.8921         0.001547   
    535. D(O   6,H  48,H   8,N   0)     14.3784         0.001547   
    536. D(O  46,H  48,H   8,N   0)   -165.5138         0.001547   
    537. D(H   8,H  48,O   6,H  53)     92.7539         0.001650   
    538. D(H   8,H  48,O   6,C   4)    -35.2667         0.001650   
    539. D(O  46,H  48,O   6,H  53)     92.9622         0.001650   
    540. D(H   8,H  48,O  46,H  21)     87.1115         0.382028   
    541. D(O  46,H  48,O   6,C   4)    -35.0585         0.001650   
    542. D(H  10,O  49,H  27,O  25)    146.0192         0.001506   
    543. D(H  51,O  49,H  27,O  25)   -117.7091         0.001506   
    544. D(H  50,O  49,H  27,H  51)    -96.8679         0.001506   
    545. D(H  50,O  49,H  27,H  45)     37.1038         0.001506   
    546. D(H  50,O  49,H  27,O  25)    145.4230         0.001506   
    547. D(H  27,O  49,H  10,H  51)     75.1203         0.001501   
    548. D(H  27,O  49,H  10,H  50)   -179.5553         0.001501   
    549. D(H  27,O  49,H  10,C   1)   -148.0238         0.001501   
    550. D(H  51,O  49,H  10,H  50)    105.3244         0.001501   
    551. D(H  51,O  49,H  10,C   1)    136.8559         0.001501   
    552. D(H  51,O  49,H  27,H  45)    133.9717         0.001506   
    553. D(H  50,O  49,H  10,H  51)   -105.3244         0.001501   
    554. D(H  50,O  49,H  10,C   1)     31.5315         0.001501   
    555. D(H  10,H  50,O  49,H  27)      0.5533         0.364566   
    556. D(H  10,H  50,O  49,H  51)    -84.4222         0.364566   
    557. D(O  49,H  50,H  10,H  51)     37.9284         0.001502   
    558. D(O  49,H  50,H  10,C   1)   -166.5275         0.001502   
    559. D(H  10,H  51,O  49,H  27)    -61.5955         0.398238   
    560. D(H  10,H  51,O  49,H  50)     71.6280         0.398238   
    561. D(H  27,H  51,O  49,H  10)     61.5955         0.398238   
    562. D(H  27,H  51,O  49,H  50)    133.2235         0.398238   
    563. D(H  10,H  51,H  27,O  49)     73.0840         0.001505   
    564. D(H  10,H  51,H  27,H  45)    -39.3123         0.001505   
    565. D(H  10,H  51,H  27,O  25)    160.4800         0.001505   
    566. D(O  49,H  51,H  27,H  45)   -112.3963         0.001505   
    567. D(O  49,H  51,H  27,O  25)     87.3960         0.001505   
    568. D(H  27,H  51,H  10,O  49)    -89.5981         0.001500   
    569. D(H  27,H  51,H  10,H  50)   -130.1884         0.001500   
    570. D(H  27,H  51,H  10,C   1)    137.7419         0.001500   
    571. D(O  49,H  51,H  10,H  50)    -40.5904         0.001500   
    572. D(O  49,H  51,H  10,C   1)   -132.6601         0.001500   
    573. D(H  30,O  52,H  32,H  53)   -111.9747         0.001541   
    574. D(H  54,O  52,H  32,H  53)    105.3621         0.001541   
    575. D(H  54,O  52,H  32,O  31)    105.6831         0.001541   
    576. D(H  53,O  52,H  32,O  31)      0.3210         0.001541   
    577. D(H  32,O  52,H  30,O  28)   -137.7073         0.001901   
    578. D(H  54,O  52,H  30,H  17)    -26.1960         0.001901   
    579. D(H  54,O  52,H  30,H  53)   -116.3126         0.001901   
    580. D(H  54,O  52,H  30,O  28)      3.7906         0.001901   
    581. D(H  53,O  52,H  30,H  17)     90.1167         0.001901   
    582. D(H  53,O  52,H  30,O  28)    120.1032         0.001901   
    583. D(H  32,O  52,O   6,H  48)    171.5870         0.001501   
    584. D(H  32,O  52,H  30,H  53)    102.1895         0.001901   
    585. D(H  32,O  52,O   6,C   4)    -42.1683         0.001501   
    586. D(H  30,O  52,O   6,H  48)    -56.8482         0.001501   
    587. D(H  30,O  52,O   6,C   4)     89.3965         0.001501   
    588. D(H  30,O  52,H  32,O  31)   -111.6537         0.001541   
    589. D(H  54,O  52,O   6,H  48)     62.5227         0.001501   
    590. D(H  54,O  52,O   6,C   4)   -151.2326         0.001501   
    591. D(H  32,H  53,O  52,H  30)    130.9100         0.342810   
    592. D(H  32,H  53,O  52,H  54)   -108.3570         0.342810   
    593. D(H  30,H  53,O  52,H  32)   -130.9100         0.342810   
    594. D(H  30,H  53,O  52,H  54)    120.7330         0.342810   
    595. D(H  30,H  53,H  32,O  31)   -145.3198         0.001509   
    596. D(O   6,H  53,H  32,O  52)    179.9091         0.001509   
    597. D(O   6,H  53,H  32,O  31)      0.1116         0.001509   
    598. D(O  52,H  53,H  32,O  31)   -179.7975         0.001509   
    599. D(H  32,H  53,H  30,O  28)    152.8984         0.001507   
    600. D(O   6,H  53,H  30,H  17)     74.8858         0.001507   
    601. D(O   6,H  53,H  30,O  52)    175.8105         0.001507   
    602. D(O   6,H  53,H  30,O  28)     13.7178         0.001507   
    603. D(O  52,H  53,H  30,H  17)   -100.9247         0.001507   
    604. D(H  30,H  53,H  32,O  52)     34.4778         0.001509   
    605. D(O  52,H  53,H  30,O  28)   -162.0928         0.001507   
    606. D(H  32,H  53,O   6,H  48)    171.6694         0.002089   
    607. D(H  32,H  53,O   6,C   4)    -41.5147         0.002089   
    608. D(H  30,H  53,O   6,H  48)    -54.7065         0.002089   
    609. D(H  30,H  53,O   6,C   4)     92.1094         0.002089   
    610. D(H  57,O  55,H  39,H  56)    114.6054         0.001863   
    611. D(H  56,O  55,H  39,H  57)   -114.6054         0.001863   
    612. D(H  57,O  55,O  37,H  38)     -8.9366         0.001501   
    613. D(H  56,O  55,O  37,H  38)   -123.6133         0.001501   
    614. D(H  39,O  55,O  19,H  21)    108.0542         0.001501   
    615. D(H  39,O  55,O  19,H  20)     -2.0152         0.001501   
    616. D(H  57,O  55,O  19,H  21)     -7.7228         0.001501   
    617. D(H  57,O  55,O  19,H  20)   -117.7922         0.001501   
    618. D(H  39,H  56,O  55,H  57)   -117.0383         0.363230   
    619. D(H  20,H  56,O  55,H  39)      4.7165         0.363230   
    620. D(H  20,H  56,O  55,H  57)   -112.3218         0.363230   
    621. D(H  21,H  56,O  55,H  39)    101.9169         0.363230   
    622. D(H  21,H  56,O  55,H  57)    -15.1214         0.363230   
    623. D(H  21,H  56,H  39,O  37)     37.4972         0.001509   
    624. D(O  19,H  56,H  39,H  57)   -141.8756         0.001509   
    625. D(O  19,H  56,H  39,O  55)   -176.1094         0.001509   
    626. D(O  19,H  56,H  39,O  37)      4.4119         0.001509   
    627. D(O  55,H  56,H  39,H  57)     34.2339         0.001509   
    628. D(O  55,H  56,H  39,O  37)   -179.4787         0.001509   
    629. D(H  39,H  56,H  21,O  19)    -95.0502         0.001512   
    630. D(H  20,H  56,H  21,O  46)    146.3831         0.001512   
    631. D(H  20,H  56,H  21,O  19)    -35.2268         0.001512   
    632. D(O  19,H  56,H  21,O  46)   -178.3902         0.001512   
    633. D(O  55,H  56,H  21,O  46)      9.3742         0.001512   
    634. D(O  55,H  56,H  21,O  19)   -172.2356         0.001512   
    635. D(H  39,H  56,H  20,O  19)    176.5027         0.001506   
    636. D(H  21,H  56,H  39,O  55)   -143.0242         0.001509   
    637. D(H  21,H  56,H  20,O  19)     39.1418         0.001506   
    638. D(O  55,H  56,H  20,O  19)    172.8213         0.001506   
    639. D(H  39,H  56,O  19,H  21)    106.3781         0.001828   
    640. D(H  39,H  56,O  19,H  20)     -4.3002         0.001828   
    641. D(H  20,H  56,O  19,H  21)    110.6783         0.001828   
    642. D(H  21,H  56,O  19,H  20)   -110.6783         0.001828   
    643. D(H  39,H  57,O  55,H  56)    115.0412         0.338555   
    644. D(O  22,H  57,O  55,H  39)      6.8772         0.338555   
    645. D(O  22,H  57,H  39,H  56)    146.2179         0.001506   
    646. D(O  22,H  57,H  39,O  55)   -177.9209         0.001506   
    647. D(O  22,H  57,H  39,O  37)      1.1070         0.001506   
    648. D(O  55,H  57,H  39,H  56)    -35.8613         0.001506   
    649. D(O  55,H  57,H  39,O  37)    179.0279         0.001506   
    650. D(H  39,H  57,O  22,H  24)   -142.5233         0.001665   
    651. D(H  39,H  57,O  22,H  23)     70.7945         0.001665   
    652. D(O  22,H  57,O  55,H  56)    121.9184         0.338555   
    653. D(O  55,H  57,O  22,H   7)    -57.0612         0.001665   
    654. D(O  55,H  57,O  22,H  24)   -148.1888         0.001665   
    655. D(O  55,H  57,O  22,H  23)     65.1290         0.001665   
    -----------------------------------------------------------------

Number of atoms                         .... 58
Number of degrees of freedom            .... 655


         *************************************************************
         *                GEOMETRY OPTIMIZATION CYCLE   1            *
         *************************************************************
---------------------------------
CARTESIAN COORDINATES (ANGSTROEM)
---------------------------------
  N      0.292613    0.900652   -0.411768
  C      1.150685    2.061193   -0.802685
  C      0.561399    2.890075   -1.939756
  C      0.474233    2.193232   -3.300279
  C     -0.581376    1.099560   -3.427113
  O     -0.308834    0.113152   -4.176603
  O     -1.661101    1.214871   -2.793468
  H      0.597276    0.450968    0.461039
  H     -0.682865    1.210463   -0.248855
  H      1.255153    2.680749    0.084656
  H      2.131620    1.666227   -1.063216
  H      1.218363    3.755564   -2.046840
  H     -0.414389    3.280509   -1.649205
  H      1.447281    1.786321   -3.579661
  H      0.220080    2.941106   -4.058914
  H      0.286148    0.159511   -1.124900
  O     -3.866246    0.332377    1.390699
  H     -3.394215   -0.518427    1.260757
  H     -4.785183    0.162658    1.151653
  O     -1.248548    3.952707    1.398599
  H     -0.618658    4.459208    0.872520
  H     -1.678167    3.336756    0.766432
  O     -0.151413   -0.511505    2.001517
  H      0.326784   -1.198827    2.482159
  H     -0.888449   -0.961410    1.528543
  O      3.016570   -1.326612   -2.516612
  H      2.861267   -0.950044   -3.415158
  H      3.118799   -0.557916   -1.939801
  O     -2.204366   -1.682296    0.540307
  H     -1.970537   -2.635566    0.554560
  H     -2.425586   -1.454944   -0.390939
  O     -2.257772   -1.810130   -4.755109
  H     -2.671101   -1.886001   -3.877454
  H     -1.620887   -1.073524   -4.621137
  O      2.241411   -0.364669   -4.989391
  H      2.236338   -1.080271   -5.641730
  H      1.291151   -0.184989   -4.779807
  O      2.868991    2.543253    2.267494
  H      3.168948    1.682004    1.956104
  H      1.927679    2.404351    2.514383
  O     -1.429018   -4.339345    0.541197
  H     -0.495717   -4.420100    0.781809
  H     -1.897242   -4.920269    1.155995
  O      0.309971   -1.693678   -1.983303
  H     -0.100566   -1.267885   -2.750233
  H      1.271287   -1.637973   -2.159254
  O     -2.346941    1.985702   -0.190198
  H     -2.963981    1.367043    0.263075
  H     -2.393169    1.837967   -1.147387
  O      4.563638    1.338806   -1.944261
  H      4.468119    2.265317   -1.690652
  H      4.785597    0.887415   -1.120443
  O     -3.044495   -1.000745   -2.016745
  H     -2.535167   -0.217306   -2.341126
  H     -3.967965   -0.715897   -1.993692
  O      0.206413    2.146864    2.978039
  H     -0.326258    2.792326    2.462366
  H     -0.083784    1.264417    2.688065

----------------------------
CARTESIAN COORDINATES (A.U.)
----------------------------
  NO LB      ZA    FRAG     MASS         X           Y           Z
   0 N     7.0000    0    14.007    0.552958    1.701985   -0.778129
   1 C     6.0000    0    12.011    2.174480    3.895091   -1.516855
   2 C     6.0000    0    12.011    1.060890    5.461450   -3.665608
   3 C     6.0000    0    12.011    0.896171    4.144608   -6.236623
   4 C     6.0000    0    12.011   -1.098642    2.077867   -6.476305
   5 O     8.0000    0    15.999   -0.583611    0.213826   -7.892636
   6 O     8.0000    0    15.999   -3.139026    2.295774   -5.278890
   7 H     1.0000    0     1.008    1.128689    0.852205    0.871237
   8 H     1.0000    0     1.008   -1.290428    2.287443   -0.470267
   9 H     1.0000    0     1.008    2.371895    5.065881    0.159977
  10 H     1.0000    0     1.008    4.028179    3.148713   -2.009188
  11 H     1.0000    0     1.008    2.302373    7.096988   -3.867968
  12 H     1.0000    0     1.008   -0.783082    6.199263   -3.116546
  13 H     1.0000    0     1.008    2.734965    3.375658   -6.764579
  14 H     1.0000    0     1.008    0.415891    5.557885   -7.670235
  15 H     1.0000    0     1.008    0.540742    0.301433   -2.125752
  16 O     8.0000    0    15.999   -7.306145    0.628101    2.628040
  17 H     1.0000    0     1.008   -6.414138   -0.979685    2.382486
  18 H     1.0000    0     1.008   -9.042685    0.307379    2.176309
  19 O     8.0000    0    15.999   -2.359413    7.469534    2.642970
  20 H     1.0000    0     1.008   -1.169094    8.426682    1.648824
  21 H     1.0000    0     1.008   -3.171277    6.305554    1.448346
  22 O     8.0000    0    15.999   -0.286129   -0.966604    3.782318
  23 H     1.0000    0     1.008    0.617533   -2.265454    4.690601
  24 H     1.0000    0     1.008   -1.678925   -1.816801    2.888528
  25 O     8.0000    0    15.999    5.700491   -2.506933   -4.755707
  26 H     1.0000    0     1.008    5.407011   -1.795324   -6.453713
  27 H     1.0000    0     1.008    5.893675   -1.054309   -3.665692
  28 O     8.0000    0    15.999   -4.165649   -3.179078    1.021033
  29 H     1.0000    0     1.008   -3.723775   -4.980497    1.047966
  30 H     1.0000    0     1.008   -4.583692   -2.749446   -0.738768
  31 O     8.0000    0    15.999   -4.266570   -3.420649   -8.985853
  32 H     1.0000    0     1.008   -5.047650   -3.564025   -7.327326
  33 H     1.0000    0     1.008   -3.063033   -2.028666   -8.732684
  34 O     8.0000    0    15.999    4.235653   -0.689125   -9.428582
  35 H     1.0000    0     1.008    4.226067   -2.041417  -10.661325
  36 H     1.0000    0     1.008    2.439923   -0.349578   -9.032525
  37 O     8.0000    0    15.999    5.421606    4.806052    4.284943
  38 H     1.0000    0     1.008    5.988443    3.178527    3.696500
  39 H     1.0000    0     1.008    3.642785    4.543565    4.751496
  40 O     8.0000    0    15.999   -2.700452   -8.200174    1.022713
  41 H     1.0000    0     1.008   -0.936770   -8.352779    1.477404
  42 H     1.0000    0     1.008   -3.585268   -9.297960    2.184513
  43 O     8.0000    0    15.999    0.585759   -3.200587   -3.747900
  44 H     1.0000    0     1.008   -0.190042   -2.395955   -5.197186
  45 H     1.0000    0     1.008    2.402384   -3.095321   -4.080399
  46 O     8.0000    0    15.999   -4.435075    3.752433   -0.359422
  47 H     1.0000    0     1.008   -5.601112    2.583337    0.497141
  48 H     1.0000    0     1.008   -4.522433    3.473255   -2.168248
  49 O     8.0000    0    15.999    8.624026    2.529977   -3.674120
  50 H     1.0000    0     1.008    8.443521    4.280828   -3.194869
  51 H     1.0000    0     1.008    9.043468    1.676971   -2.117330
  52 O     8.0000    0    15.999   -5.753262   -1.891135   -3.811097
  53 H     1.0000    0     1.008   -4.790771   -0.410649   -4.424087
  54 H     1.0000    0     1.008   -7.498368   -1.352849   -3.767533
  55 O     8.0000    0    15.999    0.390064    4.056984    5.627677
  56 H     1.0000    0     1.008   -0.616539    5.276732    4.653198
  57 H     1.0000    0     1.008   -0.158329    2.389401    5.079706

--------------------------------
INTERNAL COORDINATES (ANGSTROEM)
--------------------------------
 N      0   0   0     0.000000000000     0.00000000     0.00000000
 C      1   0   0     1.495313006572     0.00000000     0.00000000
 C      2   1   0     1.525527257579   113.25916777     0.00000000
 C      3   2   1     1.531080724302   115.91462769   293.24880115
 C      4   3   2     1.525292625344   116.08035912    71.79386356
 O      5   4   3     1.268469989984   117.25935363   213.55489116
 O      5   4   3     1.257222074047   119.12308549    33.44924002
 H      1   2   3     1.028020947217   113.04096259   190.81511234
 H      1   2   3     1.036378614722   110.43875283   309.42636848
 H      2   1   3     1.087260950822   106.50120772   120.56720991
 H      2   1   3     1.089086245710   107.33326142   236.47945404
 H      3   2   1     1.091852170490   105.74592002   173.73448818
 H      3   2   1     1.090422570640   109.97524803    59.35043058
 H      4   3   2     1.091079144336   110.27351575   306.99486398
 H      4   3   2     1.095188022150   108.53891171   190.66794776
 H      1   2   3     1.028536634825   112.43285941    70.86299143
 O      9   1   2     3.686879493438   144.23345271   200.43293305
 H     17   9   1     0.981612936502    74.47601739   336.22205956
 H     17   9   1     0.964568525827   138.96297938   239.78392158
 O     10   2   1     3.100458155583   120.13562567   298.71333683
 H     20  10   2     0.964398404923    57.10198544   254.87108583
 H     20  10   2     0.981634138310    79.80958793    10.71145546
 O      8   1   2     1.964678498100   140.09038351   148.54769295
 H     23   8   1     0.965453875739   123.39171250   148.90828891
 H     23   8   1     0.984550786609    97.61194873    33.31216098
 O     16   1   2     3.405969500806   126.34730130    52.38807782
 H     26  16   1     0.986563044420    94.55491104   247.25926462
 H     26  16   1     0.966464959628    59.59461122   351.84091210
 O     25  23   8     1.796642937612   174.80421868   347.19344760
 H     29  25  23     0.981632779524   101.95787688   126.04064921
 H     29  25  23     0.983791956545   126.34449716     4.30208999
 O      6   5   4     2.798577869420   120.45954367   187.48380549
 H     32   6   5     0.973075541514    99.37811415   319.44374406
 H     32   6   5     0.982933394744     6.05851698    77.31671642
 O     27  26  16     1.790277991365   168.57420217   314.64652126
 H     35  27  26     0.968327744996   110.64376782   274.09811986
 H     35  27  26     0.989547572512   101.86582109    26.18391224
 O     10   2   1     2.718117046568   133.12784520    81.56307305
 H     38  10   2     0.963684717693    88.31079672   352.28652431
 H     38  10   2     0.983013425147    68.91804353   245.87354526
 O     30  29  25     1.787816056829   175.94915642   307.46032302
 H     41  30  29     0.967194181893   111.71499157    33.83399786
 H     41  30  29     0.966789925725   114.90954092   153.32465883
 O     16   1   2     2.042482541720   160.92966252   138.72388793
 H     44  16   1     0.968514571120    85.92655776   157.93969664
 H     44  16   1     0.978872457133    92.02669360   262.25112820
 O     22  20  10     1.785425351300   169.67468387    69.77927300
 H     47  22  20     0.984344465170   117.62413193    58.06795043
 H     47  22  20     0.969625854175   131.45869269   221.34356990
 O     28  26  16     2.384352296179   134.08189928   217.49636454
 H     50  28  26     0.965330764239   134.67189324   145.42298651
 H     50  28  26     0.965244123391    76.45207739   242.29093539
 O     31  29  25     1.797940960510   172.63428554   234.20258082
 H     53  31  29     0.989148593999   108.62522185   120.10321734
 H     53  31  29     0.966678807305   112.44032077     3.79056786
 O     40  38  10     1.801119869832   179.61255128   171.93912826
 H     56  40  38     0.982994866638   106.79486055   146.86754709
 H     56  40  38     0.973145335920   109.74977872   261.47294309

---------------------------
INTERNAL COORDINATES (A.U.)
---------------------------
 N      0   0   0     0.000000000000     0.00000000     0.00000000
 C      1   0   0     2.825732066912     0.00000000     0.00000000
 C      2   1   0     2.882828726657   113.25916777     0.00000000
 C      3   2   1     2.893323257856   115.91462769   293.24880115
 C      4   3   2     2.882385335990   116.08035912    71.79386356
 O      5   4   3     2.397060890167   117.25935363   213.55489116
 O      5   4   3     2.375805409470   119.12308549    33.44924002
 H      1   2   3     1.942678050174   113.04096259   190.81511234
 H      1   2   3     1.958471752877   110.43875283   309.42636848
 H      2   1   3     2.054625433161   106.50120772   120.56720991
 H      2   1   3     2.058074740613   107.33326142   236.47945404
 H      3   2   1     2.063301580953   105.74592002   173.73448818
 H      3   2   1     2.060600028756   109.97524803    59.35043058
 H      4   3   2     2.061840773228   110.27351575   306.99486398
 H      4   3   2     2.069605427015   108.53891171   190.66794776
 H      1   2   3     1.943652558524   112.43285941    70.86299143
 O      9   1   2     6.967192531369   144.23345271   200.43293305
 H     17   9   1     1.854979619503    74.47601739   336.22205956
 H     17   9   1     1.822770351213   138.96297938   239.78392158
 O     10   2   1     5.859016803735   120.13562567   298.71333683
 H     20  10   2     1.822448869296    57.10198544   254.87108583
 H     20  10   2     1.855019685114    79.80958793    10.71145546
 O      8   1   2     3.712704302613   140.09038351   148.54769295
 H     23   8   1     1.824443420079   123.39171250   148.90828891
 H     23   8   1     1.860531351628    97.61194873    33.31216098
 O     16   1   2     6.436349577012   126.34730130    52.38807782
 H     26  16   1     1.864333967802    94.55491104   247.25926462
 H     26  16   1     1.826354091729    59.59461122   351.84091210
 O     25  23   8     3.395163112530   174.80421868   347.19344760
 H     29  25  23     1.855017117380   101.95787688   126.04064921
 H     29  25  23     1.859097370624   126.34449716     4.30208999
 O      6   5   4     5.288545737656   120.45954367   187.48380549
 H     32   6   5     1.838846281079    99.37811415   319.44374406
 H     32   6   5     1.857474923952     6.05851698    77.31671642
 O     27  26  16     3.383135107266   168.57420217   314.64652126
 H     35  27  26     1.829874245920   110.64376782   274.09811986
 H     35  27  26     1.869973908535   101.86582109    26.18391224
 O     10   2   1     5.136496817957   133.12784520    81.56307305
 H     38  10   2     1.821100195885    88.31079672   352.28652431
 H     38  10   2     1.857626159496    68.91804353   245.87354526
 O     30  29  25     3.378482725234   175.94915642   307.46032302
 H     41  30  29     1.827732122099   111.71499157    33.83399786
 H     41  30  29     1.826968188654   114.90954092   153.32465883
 O     16   1   2     3.859732637167   160.92966252   138.72388793
 H     44  16   1     1.830227296129    85.92655776   157.93969664
 H     44  16   1     1.849800864019    92.02669360   262.25112820
 O     22  20  10     3.373964946518   169.67468387    69.77927300
 H     47  22  20     1.860141460612   117.62413193    58.06795043
 H     47  22  20     1.832327316761   131.45869269   221.34356990
 O     28  26  16     4.505772846565   134.08189928   217.49636454
 H     50  28  26     1.824210773061   134.67189324   145.42298651
 H     50  28  26     1.824047045586    76.45207739   242.29093539
 O     31  29  25     3.397616020323   172.63428554   234.20258082
 H     53  31  29     1.869219948412   108.62522185   120.10321734
 H     53  31  29     1.826758205273   112.44032077     3.79056786
 O     40  38  10     3.403623288346   179.61255128   171.93912826
 H     56  40  38     1.857591088996   106.79486055   146.86754709
 H     56  40  38     1.838978173391   109.74977872   261.47294309

---------------------
BASIS SET INFORMATION
---------------------
There are 4 groups of distinct atoms

 Group   1 Type N   : 11s6p2d1f contracted to 5s3p2d1f pattern {62111/411/11/1}
 Group   2 Type C   : 11s6p2d1f contracted to 5s3p2d1f pattern {62111/411/11/1}
[...]
 H     38  10   2     1.821776979513    78.85604420     7.02665492
 H     38  10   2     1.858627860470    71.81997190   256.95867051
 O     30  29  25     3.386048342135   175.87630205   325.39029673
 H     41  30  29     1.826878591623   111.91149069    12.07259295
 H     41  30  29     1.826575352287   113.20483829   130.45504078
 O     16   1   2     3.530606412603   163.61541608   138.41552719
 H     44  16   1     1.829331679401    94.12941735   152.34821265
 H     44  16   1     1.859800007502    95.52820390   259.16168314
 O     22  20  10     3.348928957894   167.87703442    72.28067797
 H     47  22  20     1.859983217567   116.96374470    58.58378634
 H     47  22  20     1.839511192348   131.33774472   220.19850735
 O     28  26  11     4.111290234188   146.42805448   235.03747726
 H     50  28  26     1.824653511512   132.04246932   136.21188920
 H     50  28  26     1.822250289051    85.69805618   241.81178100
 O     31  29  25     3.360269986698   174.20260139   235.07486691
 H     53  31  29     1.873384874018   114.20448072   115.23477748
 H     53  31  29     1.825684116289   107.78366076   357.97159691
 O     40  38  10     3.389101281716   174.24389125   276.40988734
 H     56  40  38     1.857207590184   107.91899115    42.89851081
 H     56  40  38     1.841763601758   105.74804655   156.77168554

--------------------------------------------------------------------------
WARNING: There was an error initializing an OpenFabrics device.

  Local host:   ga03
  Local device: mlx5_0
--------------------------------------------------------------------------


           ************************************************************
           *        Program running with 10 parallel MPI-processes    *
           *              working on a common directory               *
           ************************************************************
------------------------------------------------------------------------------
                   ___                                                        
                  /   \      - P O W E R E D   B Y -                         
                 /     \                                                     
                 |  |  |   _    _      __       _____    __    __             
                 |  |  |  | |  | |    /  \     |  _  \  |  |  /  |          
                  \  \/   | |  | |   /    \    | | | |  |  | /  /          
                 / \  \   | |__| |  /  /\  \   | |_| |  |  |/  /          
                |  |  |   |  __  | /  /__\  \  |    /   |      \           
                |  |  |   | |  | | |   __   |  |    \   |  |\   \          
                \     /   | |  | | |  |  |  |  | |\  \  |  | \   \       
                 \___/    |_|  |_| |__|  |__|  |_| \__\ |__|  \__/        
                                                                              
                      - O R C A' S   B I G   F R I E N D -                    
                                      &                                       
                       - I N T E G R A L  F E E D E R -                       
                                                                              
 v1 FN, 2020, v2 2021, v3 2022-2024                                           
------------------------------------------------------------------------------


----------------------
SHARK INTEGRAL PACKAGE
----------------------

Number of atoms                             ...     58
Number of basis functions                   ...    873
Number of shells                            ...    379
Maximum angular momentum                    ...      3
Integral batch strategy                     ... SHARK/LIBINT Hybrid
RI-J (if used) integral strategy            ... SPLIT-RIJ (Revised 2003 algorithm where possible)
Printlevel                                  ...      1
Contraction scheme used                     ... SEGMENTED contraction
Prescreening option                         ... SCHWARTZ
   Thresh                                   ... 2.500e-11
   Tcut                                     ... 2.500e-12
   Tpresel                                  ... 2.500e-12 
Coulomb Range Separation                    ... NOT USED
Exchange Range Separation                   ... NOT USED
Multipole approximations                    ... NOT USED
Finite Nucleus Model                        ... NOT USED
CABS basis                                  ... NOT available
Auxiliary Coulomb fitting basis             ... AVAILABLE
   # of basis functions in Aux-J            ...   1436
   # of shells in Aux-J                     ...    500
   Maximum angular momentum in Aux-J        ...      4
Auxiliary J/K fitting basis                 ... NOT available
Auxiliary Correlation fitting basis         ... NOT available
Auxiliary 'external' fitting basis          ... NOT available

Checking pre-screening integrals            ... done (  0.0 sec) Dimension = 379
Check shell pair data                       ... done (  0.0 sec)
Shell pair information
Shell pair cut-off parameter TPreSel        ...   2.5e-12
Total number of shell pairs                 ...     72010
Shell pairs after pre-screening             ...     44459
Total number of primitive shell pairs       ...    206976
Primitive shell pairs kept                  ...     81717
          la=0 lb=0:  15295 shell pairs
          la=1 lb=0:  13886 shell pairs
          la=1 lb=1:   3255 shell pairs
          la=2 lb=0:   5162 shell pairs
          la=2 lb=1:   2375 shell pairs
          la=2 lb=2:    434 shell pairs
          la=3 lb=0:   2460 shell pairs
          la=3 lb=1:   1119 shell pairs
          la=3 lb=2:    376 shell pairs
          la=3 lb=3:     97 shell pairs

Calculating one electron integrals          ... done (  0.1 sec)
Calculating RI/J V-Matrix + Cholesky decomp.... done (  0.1 sec)
Calculating Nuclear repulsion               ... done (  0.0 sec) ENN=   2327.566373975608 Eh

Diagonalization of the overlap matrix:
Smallest eigenvalue                        ... 1.231e-04
Time for diagonalization                   ...    0.110 sec
Threshold for overlap eigenvalues          ... 1.000e-07
Number of eigenvalues below threshold      ... 0
Time for construction of square roots      ...    0.056 sec
Total time needed                          ...    0.173 sec

-------------------
DFT GRID GENERATION
-------------------

General Integration Accuracy     IntAcc      ... 4.388
Radial Grid Type                 RadialGrid  ... OptM3 with GC (2021)
Angular Grid (max. ang.)         AngularGrid ... 4 (Lebedev-302)
Angular grid pruning method      GridPruning ... 4 (adaptive)
Weight generation scheme         WeightScheme... mBecke (2022)
Basis function cutoff            BFCut       ... 1.0000e-11
Integration weight cutoff        WCut        ... 1.0000e-14
Partially contracted basis set               ... off
Rotationally invariant grid construction     ... off
Angular grids for H and He will be reduced by one unit

Total number of grid points                  ...   244291
Total number of batches                      ...     3844
Average number of points per batch           ...       63
Average number of grid points per atom       ...     4212

--------------------
COSX GRID GENERATION
--------------------

GRIDX 1
-------
General Integration Accuracy     IntAcc      ... 3.816
Radial Grid Type                 RadialGrid  ... OptM3 with GC (2021)
Angular Grid (max. ang.)         AngularGrid ... 1 (Lebedev-50)
Angular grid pruning method      GridPruning ... 4 (adaptive)
Weight generation scheme         WeightScheme... mBecke (2022)
Basis function cutoff            BFCut       ... 1.0000e-11
Integration weight cutoff        WCut        ... 1.0000e-14
Partially contracted basis set               ... on
Rotationally invariant grid construction     ... off
Angular grids for H and He will be reduced by one unit

Total number of grid points                  ...    31070
Total number of batches                      ...      265
Average number of points per batch           ...      117
Average number of grid points per atom       ...      536
UseSFitting                                  ... on

GRIDX 2
-------
General Integration Accuracy     IntAcc      ... 4.020
Radial Grid Type                 RadialGrid  ... OptM3 with GC (2021)
Angular Grid (max. ang.)         AngularGrid ... 2 (Lebedev-110)
Angular grid pruning method      GridPruning ... 4 (adaptive)
Weight generation scheme         WeightScheme... mBecke (2022)
Basis function cutoff            BFCut       ... 1.0000e-11
Integration weight cutoff        WCut        ... 1.0000e-14
Partially contracted basis set               ... on
Rotationally invariant grid construction     ... off
Angular grids for H and He will be reduced by one unit

Total number of grid points                  ...    64400
Total number of batches                      ...      532
Average number of points per batch           ...      121
Average number of grid points per atom       ...     1110
UseSFitting                                  ... on

GRIDX 3
-------
General Integration Accuracy     IntAcc      ... 4.338
Radial Grid Type                 RadialGrid  ... OptM3 with GC (2021)
Angular Grid (max. ang.)         AngularGrid ... 3 (Lebedev-194)
Angular grid pruning method      GridPruning ... 4 (adaptive)
Weight generation scheme         WeightScheme... mBecke (2022)
Basis function cutoff            BFCut       ... 1.0000e-11
Integration weight cutoff        WCut        ... 1.0000e-14
Partially contracted basis set               ... on
Rotationally invariant grid construction     ... off
Angular grids for H and He will be reduced by one unit

Total number of grid points                  ...   139440
Total number of batches                      ...     1119
Average number of points per batch           ...      124
Average number of grid points per atom       ...     2404
UseSFitting                                  ... on
Initializing property integral containers    ... done (  0.0 sec)

SHARK setup successfully completed in   3.5 seconds

Maximum memory used throughout the entire STARTUP-calculation: 108.2 MB
[ga03:3371318] 9 more processes have sent help message help-mpi-btl-openib.txt / error in device init
[ga03:3371318] Set MCA parameter "orte_base_help_aggregate" to 0 to see all help / error messages
--------------------------------------------------------------------------
WARNING: There was an error initializing an OpenFabrics device.

  Local host:   ga03
  Local device: mlx5_0
--------------------------------------------------------------------------


           ************************************************************
           *        Program running with 10 parallel MPI-processes    *
           *              working on a common directory               *
           ************************************************************
Occupation numbers will be reassigned to an Aufbau configuration
             **** ENERGY FILE WAS UPDATED (07_Aminobutyric-acid_zwitterion.en.tmp) ****
Finished Guess after   1.0 sec
Maximum memory used throughout the entire GUESS-calculation: 90.8 MB
[ga03:3371453] 9 more processes have sent help message help-mpi-btl-openib.txt / error in device init
[ga03:3371453] Set MCA parameter "orte_base_help_aggregate" to 0 to see all help / error messages
--------------------------------------------------------------------------
WARNING: There was an error initializing an OpenFabrics device.

  Local host:   ga03
  Local device: mlx5_0
--------------------------------------------------------------------------


           ************************************************************
           *        Program running with 10 parallel MPI-processes    *
           *              working on a common directory               *
           ************************************************************
--------------------
CPCM SOLVATION MODEL
--------------------
CPCM parameters:
  Epsilon                                         ...      80.1510
  Refrac                                          ...       1.3328
  Rsolv                                           ...       1.3000
  Surface type                                    ... GAUSSIAN VDW
  Discretization scheme                           ... Constant charge density
    Threshold for H atoms                         ...       5.0000 (charges/Ang^2)
    Threshold for non-H atoms                     ...       5.0000 (charges/Ang^2)
  Epsilon function type                           ...         CPCM
Solvent:                                          ... WATER
Radii:
  Scheme                                          ... Element-dependent radii
  Radius for N  used is    3.5149 Bohr (=   1.8600 Ang.)
  Radius for C  used is    3.8550 Bohr (=   2.0400 Ang.)
  Radius for O  used is    3.4469 Bohr (=   1.8240 Ang.)
  Radius for H  used is    2.4944 Bohr (=   1.3200 Ang.)
Calculating surface                               ...        done! (  0.0s)
Cavity surface points                             ...         4634
Cavity Volume                                     ...    3103.1081
Cavity Surface-area                               ...    1835.8167
Calculating surface distance matrix               ...        done! (  0.1s)
Performing Cholesky decomposition & store         ...        done! (  0.6s)
Overall time for CPCM initialization              ...                 0.7s

----------------------------------------D-I-I-S--------------------------------------------
Iteration    Energy (Eh)           Delta-E    RMSDP     MaxDP     DIISErr   Damp  Time(sec)
-------------------------------------------------------------------------------------------
               ***  Starting incremental Fock matrix formation  ***
[ga03:3371497] 9 more processes have sent help message help-mpi-btl-openib.txt / error in device init
[ga03:3371497] Set MCA parameter "orte_base_help_aggregate" to 0 to see all help / error messages
    1    -1433.2487055762635464     0.00e+00  2.85e-05  2.75e-03  1.67e-02  0.700   8.8
    2    -1433.2491590430558972    -4.53e-04  2.68e-05  2.59e-03  1.27e-02  0.700   4.1
                               ***Turning on AO-DIIS***
    3    -1433.2495085160921917    -3.49e-04  2.22e-05  2.06e-03  9.29e-03  0.700   3.9
    4    -1433.2497639865614474    -2.55e-04  5.65e-05  5.28e-03  6.64e-03  0.000   3.8
                              *** Initializing SOSCF ***
---------------------------------------S-O-S-C-F--------------------------------------
Iteration    Energy (Eh)           Delta-E    RMSDP     MaxDP     MaxGrad    Time(sec)
--------------------------------------------------------------------------------------
    5    -1433.2503987609088654    -6.35e-04  3.16e-06  3.26e-04  1.76e-04     4.3
               *** Restarting incremental Fock matrix formation ***
    6    -1433.2503978991976510     8.62e-07  2.57e-06  2.46e-04  5.71e-05     8.5
    7    -1433.2503977629380643     1.36e-07  1.29e-06  1.30e-04  1.31e-04     4.1
    8    -1433.2503981325080531    -3.70e-07  3.50e-07  3.94e-05  5.65e-06     4.1
    9    -1433.2503981130444117     1.95e-08  1.09e-07  9.46e-06  4.78e-06     3.2
   10    -1433.2503981732170359    -6.02e-08  8.38e-08  9.12e-06  7.98e-07     3.2
                  *** Gradient check signals convergence ***

               *****************************************************
               *                     SUCCESS                       *
               *           SCF CONVERGED AFTER  10 CYCLES          *
               *****************************************************

Recomputing exchange energy using gridx3       ... done (   11.882 sec)
Old exchange energy                            :    -34.419236809 Eh
New exchange energy                            :    -34.419090377 Eh
Exchange energy change after final integration :      0.000146432 Eh
Total energy after final integration           :  -1433.250251741 Eh
             **** ENERGY FILE WAS UPDATED (07_Aminobutyric-acid_zwitterion.en.tmp) ****

----------------
TOTAL SCF ENERGY
----------------

Total Energy       :      -1433.25025174143957 Eh          -39000.72211 eV

Components:
Nuclear Repulsion  :       2327.56637397560826 Eh           63336.30099 eV
Electronic Energy  :      -3760.70126676950940 Eh         -102333.88402 eV
One Electron Energy:      -6606.46294024066992 Eh         -179770.99598 eV
Two Electron Energy:       2845.76167347116052 Eh           77437.11196 eV
CPCM Dielectric    :         -0.11550537931588 Eh              -3.14306 eV

Virial components:
Potential Energy   :      -2860.75198521981019 Eh          -77845.01908 eV
Kinetic Energy     :       1427.50173347837040 Eh           38844.29697 eV
Virial Ratio       :          2.00402697813127

DFT components:
N(Alpha)           :       97.999626073296 electrons
N(Beta)            :       97.999626073296 electrons
N(Total)           :      195.999252146592 electrons
E(X)               :     -137.068177873812 Eh       
E(C)               :       -7.962709630846 Eh       
E(XC)              :     -145.030887504658 Eh       

CPCM Solvation Model Properties:
Surface-charge          :         -0.02864715287789
Corrected charge        :         -0.00000000000000
Outlying charge corr.   :          0.00003983568631 Eh               0.00108 eV
Free-energy (cav+disp)  :  This term is not implemented in the current solvation scheme

---------------
SCF CONVERGENCE
---------------

  Last Energy change         ...    6.0173e-08  Tolerance :   1.0000e-08
  Last MAX-Density change    ...    9.1182e-06  Tolerance :   1.0000e-07
  Last RMS-Density change    ...    8.3794e-08  Tolerance :   5.0000e-09
  Last DIIS Error            ...    1.7571e-04  Tolerance :   5.0000e-07
  Last Orbital Gradient      ...    7.9782e-07  Tolerance :   1.0000e-05
  Last Orbital Rotation      ...    4.0702e-06  Tolerance :   1.0000e-05


Total SCF time: 0 days 0 hours 1 min 1 sec 
Finished LeanSCF after  62.0 sec

Maximum memory used throughout the entire LEANSCF-calculation: 149.1 MB


-------------------------------------------------------------------------------
                          DFT DISPERSION CORRECTION                            
                                                                               
                                DFTD4 V3.4.0                                   
-------------------------------------------------------------------------------
-------------------------   ----------------
Dispersion correction           -0.067990234
-------------------------   ----------------


-------------------------   --------------------
FINAL SINGLE POINT ENERGY     -1433.318241974950
-------------------------   --------------------

--------------------------------------------------------------------------
WARNING: There was an error initializing an OpenFabrics device.

  Local host:   ga03
  Local device: mlx5_0
--------------------------------------------------------------------------


           ************************************************************
           *        Program running with 10 parallel MPI-processes    *
           *              working on a common directory               *
           ************************************************************
------------------------------------------------------------------------------
                         ORCA SCF GRADIENT CALCULATION
------------------------------------------------------------------------------

Nuc. rep. gradient        (SHARK) ... done (  0.0 sec)
HCore & Overlap gradient  (SHARK) ... done (  0.7 sec)
Split-RIJ-J gradient      (SHARK) ... done (  2.0 sec)
COSX-gradient                     ... [ga03:3372101] 9 more processes have sent help message help-mpi-btl-openib.txt / error in device init
[ga03:3372101] Set MCA parameter "orte_base_help_aggregate" to 0 to see all help / error messages
