37
 energy: -59.760913890570 gnorm: 0.176480964599 xtb: 6.7.1 (edcfbbe)
N            0.00260500000000        0.26833900000000        2.34949800000000
C            0.00561000000000       -0.53426800000000        1.12782400000000
C           -0.01360500000000        0.36044200000000       -0.11757000000000
C           -0.00658000000000       -0.48411400000000       -1.39958300000000
C            0.00530900000000        0.34606300000000       -2.65559300000000
O            0.01598000000000        1.56658800000000       -2.61114500000000
O            0.01013600000000       -0.27058000000000       -3.85192000000000
H            0.84383000000000        0.88923800000000        2.37341700000000
H           -0.86762500000000        0.84621600000000        2.39703300000000
H           -0.88589600000000       -1.19861800000000        1.12403900000000
H            0.91775600000000       -1.17084600000000        1.11100500000000
H            0.88289000000000        1.01613200000000       -0.10393900000000
H           -0.92488100000000        0.99783100000000       -0.09978000000000
H           -0.91002800000000       -1.12912700000000       -1.41351300000000
H            0.89428700000000       -1.13411000000000       -1.40682800000000
H            0.03021100000000       -0.36918600000000        3.17705500000000
O           -0.60782700000000        2.04701400000000        5.36895400000000
H           -0.35162900000000        2.81714200000000        5.93629500000000
H           -1.42804700000000        2.34544600000000        4.90120300000000
O            1.94581900000000        3.09231200000000        0.92285100000000
H            2.46446000000000        2.24898900000000        0.90212000000000
H            1.03721500000000        2.81790800000000        1.20525700000000
O            0.38613000000000        0.93859700000000        8.45609800000000
H            1.00778700000000        0.21291700000000        8.19621000000000
H            0.46447100000000        1.60506100000000        7.72788000000000
O           -3.44517500000000       -0.87024600000000        3.43789700000000
H           -2.76384600000000       -1.50382800000000        3.09881600000000
H           -2.96173500000000       -0.01069600000000        3.52775200000000
O            2.17127400000000       -3.35268600000000        5.48388200000000
H            2.42239900000000       -2.60939700000000        4.87967400000000
H            1.64062600000000       -3.96591100000000        4.91556800000000
O            0.25689400000000       -2.28420100000000        4.59474400000000
H           -0.51663600000000       -2.77000800000000        4.97717500000000
H            0.33296200000000       -1.46534700000000        5.14638300000000
O            2.28306800000000        0.30102400000000        5.47947600000000
H            2.45984900000000        1.06122100000000        4.87000200000000
H            2.80588900000000       -0.44890400000000        5.09884400000000
37
 energy: -59.788419398986 gnorm: 0.095264491080 xtb: 6.7.1 (edcfbbe)
N            0.00320504067808        0.25995638389543        2.35990254855153
C            0.00627950626586       -0.54193770573373        1.12549831652332
C           -0.01577308948569        0.35321336662620       -0.11490359954438
C           -0.00873639874266       -0.48596858260578       -1.39453321025320
C            0.00451196848556        0.35147691217652       -2.66500486491648
O            0.01184898307723        1.58803459422603       -2.60696668754068
O            0.00718947984018       -0.28231794875127       -3.79533155643874
H            0.82727063366406        0.88045328304422        2.38627992375205
H           -0.84923888094061        0.83873610448494        2.40698673849003
H           -0.87124838130121       -1.19795951380640        1.11596611376832
H            0.90224151573157       -1.17299256871671        1.10470133102078
H            0.86167990074951        1.01088709671216       -0.13145914976359
H           -0.90984349389461        0.99017421764958       -0.11937624849019
H           -0.89573543396121       -1.13200680216899       -1.42936587131620
H            0.87672613625561       -1.13530580263167       -1.41999670251439
H            0.03268624543468       -0.36456897482237        3.18580974586310
O           -0.60171016872071        2.06060316480103        5.34478967095725
H           -0.35520425677714        2.79955096447394        5.92195730373063
H           -1.42841333681094        2.34762099736845        4.92313369247899
O            1.95717521581853        3.09075351929345        0.95762552009874
H            2.45866108488440        2.25911418823325        0.88660131954537
H            1.04405000938529        2.83240217302882        1.18143236669832
O            0.39175051226242        0.93275110139563        8.45280954860099
H            1.00497235404400        0.22133439476114        8.20445241686382
H            0.46548099898839        1.58195076789082        7.73408144494309
O           -3.43616165813742       -0.87062146428760        3.43491086325096
H           -2.77237239047763       -1.49636000750554        3.10003060050563
H           -2.96933314759761       -0.02412544530613        3.53475073958065
O            2.25667349289999       -3.40147390651777        5.48048166099209
H            2.43756959665773       -2.64376537370319        4.89580209839989
H            1.67347087696830       -3.97094853384249        4.94597489031224
O            0.12215065720163       -2.16912958756494        4.49687280785371
H           -0.51159581436823       -2.74786288169880        4.98834512879554
H            0.33345039421015       -1.47085746289876        5.17578888027016
O            2.24668653627325        0.28658791562938        5.44342122334599
H            2.47911267374130        1.05772966683495        4.89493118827823
H            2.82446963769776       -0.42872124996370        5.12068080730690
37
 energy: -59.794754753469 gnorm: 0.065034023314 xtb: 6.7.1 (edcfbbe)
N            0.00385624082025        0.24170167031045        2.37745122377773
C            0.00783064083216       -0.55208521250480        1.12367660432399
C           -0.01812852179382        0.34426391724921       -0.11052849621055
C           -0.01168218246740       -0.49200496191616       -1.38633591454550
C           -0.00048622284435        0.35426789980757       -2.67982375127422
O            0.00745920037864        1.60605792387338       -2.58665183701096
O            0.00753775915667       -0.28648438393122       -3.73557737005258
H            0.81187948655791        0.86142069044924        2.41165938611551
H           -0.82985343353223        0.82377493523178        2.42405571577589
H           -0.85913574360611       -1.19815281227626        1.10842880758922
H            0.89111042082807       -1.17565031393393        1.09927990791226
H            0.84348677943101        1.00169212772454       -0.15981991428579
H           -0.89988363841318        0.97640583056702       -0.13708066240266
H           -0.88571858341629       -1.13567276518892       -1.44933016405178
H            0.86272251086908       -1.13655213288342       -1.43733909838099
H            0.03067865209674       -0.37842972460066        3.19846739353419
O           -0.59907279169653        2.08201984817517        5.30991304939722
H           -0.35529296688347        2.78718543543588        5.89924800972197
H           -1.43953075884058        2.35361592733971        4.94399812340078
O            1.97765198787999        3.09343559749658        1.01475583366906
H            2.45677381282334        2.27242040173097        0.86263500816923
H            1.04941435040509        2.85526813537410        1.14298011900450
O            0.39841772686320        0.92520334785846        8.44697532103909
H            1.00736986713748        0.22640238488553        8.22060451225202
H            0.46620031141870        1.55492928008720        7.73394517328783
O           -3.42640379808085       -0.87524523854622        3.43050362940658
H           -2.77905969626829       -1.49561789933077        3.10452824417069
H           -2.98004014884447       -0.04007113769572        3.54917541729860
O            2.29936839673275       -3.43034487706047        5.48286908670199
H            2.43561632658062       -2.67680509273468        4.90644419705451
H            1.70049324267381       -3.98354794567974        4.97971894608615
O            0.13642334528365       -2.13557004627848        4.53470283914171
H           -0.54286234190330       -2.65744304900467        4.90957644416056
H            0.28911495788798       -1.41474910702333        5.11884004830170
O            2.21129679995546        0.26605814456745        5.40525087628664
H            2.48695982547679        1.05353769361584        4.92522798828084
H            2.84943518650054       -0.40882749119022        5.14465630235570
37
 energy: -59.799366476246 gnorm: 0.073637437337 xtb: 6.7.1 (edcfbbe)
N            0.00537652370741        0.22538625425352        2.38791712926750
C            0.00839045737535       -0.55705523906555        1.12618342258923
C           -0.02133764838862        0.34125435732315       -0.10668992387674
C           -0.01532654402121       -0.49513735134626       -1.38169127131371
C           -0.00367142573784        0.35346234302226       -2.68074251841500
O            0.00073529142479        1.60253401726042       -2.57424611610063
O            0.00379684365794       -0.28947541813524       -3.74348911551663
H            0.81690903074645        0.84607167849657        2.42959217031487
H           -0.83048712666896        0.81028329133435        2.43911460762338
H           -0.86383206802900       -1.20400925902213        1.10799092143511
H            0.89743066361697       -1.18055434950938        1.09738126945157
H            0.84433824975124        0.99861685470509       -0.16085473402668
H           -0.91063625727363        0.96901870722891       -0.13334829861917
H           -0.89390552517540       -1.13732924560811       -1.45312260293608
H            0.86479956578400       -1.13689756636206       -1.44029033738045
H            0.03130316736902       -0.40598365181516        3.20442721923868
O           -0.58410418132298        2.09675184286847        5.25290126950849
H           -0.33832761385820        2.77343469924212        5.88989988431188
H           -1.47805895022882        2.35758890672473        4.96757524208735
O            2.01176863209975        3.11498751650679        1.10416638692027
H            2.45356550530117        2.27485793612733        0.81805883167620
H            1.04256068019538        2.87278268964476        1.08758161769936
O            0.39860827063965        0.91579111383274        8.45087283425372
H            1.02072398754972        0.21278296799490        8.24761962880747
H            0.46331355547203        1.53419084290154        7.71982311934487
O           -3.43128496794261       -0.88267182450504        3.42822236234457
H           -2.77765461891784       -1.50227545357164        3.09894690910963
H           -2.98702351285641       -0.04358332294997        3.57145400709207
O            2.29411746756938       -3.42795980614842        5.47665167755190
H            2.42907402659630       -2.68555481034728        4.88235534644279
H            1.70865374430037       -4.01473710511544        4.99332370971208
O            0.10259644786179       -2.03333227367868        4.47601102875945
H           -0.53243734580895       -2.62327299495141        4.88299473636445
H            0.32379021465023       -1.38174985352646        5.16707528053679
O            2.15583417601028        0.24184252536891        5.36487672246357
H            2.50595137773737        1.06566763862804        4.95384446071339
H            2.88839690681203       -0.39931965780556        5.17469412256643
37
 energy: -59.793542672109 gnorm: 0.115748118173 xtb: 6.7.1 (edcfbbe)
N            0.00766255106330        0.19849798376220        2.40427323520809
C            0.01067077093860       -0.56428005210123        1.13039696383016
C           -0.02280253286831        0.33774229745578       -0.09994444177337
C           -0.01612237213531       -0.49732245472138       -1.37428647681327
C           -0.00148505851252        0.35792321409610       -2.68121847350238
O           -0.00140060207611        1.60019756046910       -2.55266135999369
O            0.00539451899447       -0.28998286241946       -3.76311092431977
H            0.82626779622893        0.82112741449481        2.46126238032777
H           -0.83291196467694        0.78874779837736        2.46312261584776
H           -0.87078055618696       -1.21420737655401        1.10603184072680
H            0.90981876727233       -1.18911200869681        1.09546411585021
H            0.85082286102650        0.99481956584432       -0.15614325412416
H           -0.92445979052170        0.96029419979027       -0.12508806930214
H           -0.90308331225463       -1.13701912387501       -1.45874666526642
H            0.87333067176143       -1.13604320839935       -1.44277267260784
H            0.03137427658709       -0.45414297078987        3.21383852775958
O           -0.59704724192733        2.11096019511454        5.21113334009544
H           -0.32151700765365        2.77470382210421        5.86737373961118
H           -1.51250067860941        2.37366934626030        4.96704643224460
O            1.99261089970684        3.10280232058136        1.03022959838553
H            2.47781510435959        2.30160936754894        0.86235662574425
H            1.06968523594732        2.90392230045466        1.13651582864934
O            0.39955398092882        0.91004480862006        8.44955087275861
H            1.03891241267046        0.19575098392797        8.28123255641972
H            0.46277108410389        1.51131843717717        7.68847934041127
O           -3.43907385251393       -0.89132061139936        3.42787241493845
H           -2.77637664299018       -1.51127312630379        3.08792291122866
H           -2.99676854497730       -0.04402760003070        3.59966599530343
O            2.30786919648187       -3.43626596702906        5.46511394112528
H            2.41335760924116       -2.69271767375994        4.85096708274899
H            1.71940267887961       -4.06508871899324        5.01975580449233
O            0.03534333527556       -1.88471093079221        4.37272960099803
H           -0.51140054785357       -2.59210225578159        4.86525844214215
H            0.36902285986884       -1.33362972804670        5.21275672658356
O            2.24045868513743        0.26115426100236        5.41338692237613
H            2.45157016977796        1.05198462499226        4.94048883274729
H            2.83796223950272       -0.41761683237947        5.15682664915001
37
 energy: -59.804240688897 gnorm: 0.031744536826 xtb: 6.7.1 (edcfbbe)
N            0.00783008915526        0.19313907015668        2.40541765244269
C            0.01131956654155       -0.56828930109129        1.13144483489066
C           -0.02249210741998        0.33410329506905       -0.09854650098259
C           -0.01547503708335       -0.49896651384835       -1.37490684828609
C           -0.00154789115663        0.35887941360231       -2.67801242845639
O           -0.00054614566245        1.60158512775979       -2.55459324683416
O            0.00560780600202       -0.28711080334633       -3.75710296699619
H            0.82470449339027        0.81326838185022        2.46578279750765
H           -0.83009807459559        0.78204593733277        2.46739509167380
H           -0.86519643403826       -1.21866227624290        1.10768432290903
H            0.90669011870423       -1.19213653255470        1.09606536958442
H            0.84594406968926        0.99378678130566       -0.15006482223885
H           -0.91945461884359        0.95842252703791       -0.12009542382080
H           -0.89871252897837       -1.13944703959508       -1.45367153722065
H            0.86993515631978       -1.13882534732600       -1.43843685755095
H            0.02931195696118       -0.46231838038556        3.21258739453983
O           -0.62046223797481        2.10953522902612        5.22898844192013
H           -0.32509183944302        2.78600315904193        5.84726716227551
H           -1.50006279514165        2.38322828359660        4.94894177854481
O            2.00342622712056        3.10826496635133        1.05385497906837
H            2.47671584802845        2.30160118177573        0.85318890331230
H            1.06949248941639        2.90901963660736        1.12308988161895
O            0.40139887213311        0.90977164114167        8.44507476338226
H            1.03984731679522        0.19939202043933        8.28320027138276
H            0.46716468364063        1.50217610391965        7.68244343861984
O           -3.43926942559886       -0.89464388900077        3.42783150085458
H           -2.77732099430339       -1.50988035411728        3.08801240496709
H           -2.99619578070524       -0.05325310073828        3.60344328410171
O            2.33590160600093       -3.45349168424947        5.46659034125221
H            2.40445766552623       -2.70148818195163        4.85179487110085
H            1.72748702753807       -4.07222819951209        5.03333555672331
O            0.09149449111110       -1.92395785976118        4.43987010077188
H           -0.54376107283461       -2.53381681849111        4.84423375275197
H            0.32189060029150       -1.27853124787714        5.12608453501418
O            2.20853958201932        0.24852471831431        5.39806713690837
H            2.45509281078873        1.05504479449732        4.95155929533190
H            2.85538150660235       -0.41433773873596        5.16926176893718
37
 energy: -59.806225987863 gnorm: 0.075600583582 xtb: 6.7.1 (edcfbbe)
N            0.00770780620410        0.16682983471282        2.41624351480284
C            0.01208064292015       -0.58307664899175        1.13334551455559
C           -0.02434940194857        0.32425336983353       -0.09195877951253
C           -0.01768955209762       -0.50529881011733       -1.37126410896718
C           -0.00837827475600        0.36062611534337       -2.67369647372283
O           -0.00150401582502        1.60565675657233       -2.54051895507003
O            0.00545293769027       -0.27347040388706       -3.73248165684310
H            0.81976559976668        0.78263560752791        2.48704560263491
H           -0.82269270648338        0.75517395475724        2.48609356199924
H           -0.85634393323872       -1.23238395541602        1.10832544088414
H            0.90204513717557       -1.20211070564754        1.09469057629455
H            0.83527573514253        0.98717233453257       -0.14155279472526
H           -0.91508499547675        0.94789092151705       -0.11003179852831
H           -0.89496311540827       -1.14508696067840       -1.44942323635629
H            0.86189140302848       -1.14439990208504       -1.43620238944538
H            0.02513418960957       -0.50158521297344        3.21394642815212
O           -0.63453720940068        2.12164254744826        5.20381813486189
H           -0.31611111463718        2.79077020350759        5.80392535029943
H           -1.51941041701019        2.39603439312240        4.95541043459009
O            2.03976008379721        3.12900173580641        1.14398037567446
H            2.47331227801771        2.30584041100738        0.80709654462041
H            1.06504555530837        2.92773478831233        1.06466051485039
O            0.40851575965007        0.90283234615144        8.44099276010211
H            1.04500704094910        0.19874911213590        8.29937275786599
H            0.47237548809449        1.47088957113633        7.66979161774721
O           -3.43883495008228       -0.90376751022017        3.42607203611044
H           -2.78031219434474       -1.51138911723144        3.08888408341114
H           -2.99809141508789       -0.07462904907592        3.62133046483266
O            2.27588350584449       -3.43127766093833        5.46695487260103
H            2.39363394545290       -2.73233734184597        4.82864728254402
H            1.76075168587777       -4.10442397408374        5.02558209642910
O            0.09298438269077       -1.82531283655209        4.41302234735283
H           -0.52784198849750       -2.43331780037526        4.79285800845954
H            0.36386828699457       -1.23659702108712        5.13771450107785
O            2.13619788018393        0.21551004362239        5.35633079580232
H            2.46563633705158        1.06026523164812        4.98458043414362
H            2.89776660283927       -0.40263736748793        5.20349514047288
37
 energy: -59.810162325148 gnorm: 0.034734474553 xtb: 6.7.1 (edcfbbe)
N            0.00588711724343        0.14759607311241        2.42175199540610
C            0.01165120678953       -0.59314410438864        1.13555643331821
C           -0.02576026207737        0.31994517185008       -0.08574971339971
C           -0.01779522365490       -0.50523773397795       -1.36727139693285
C           -0.00460701669730        0.36598011400875       -2.66696595088745
O           -0.00348966822420        1.60761101121940       -2.52996569329996
O            0.00364321238502       -0.26895800272283       -3.73936083541844
H            0.82212272425885        0.76107332950226        2.50178131662395
H           -0.82570044723327        0.73829990145354        2.49629563708943
H           -0.85876173450264       -1.24547088071939        1.10636342295544
H            0.90571572451765       -1.21220773605889        1.09332525102582
H            0.83600159078881        0.98443134437476       -0.13079679214023
H           -0.92076611415087        0.94237861766967       -0.10045654148699
H           -0.89769641531948       -1.14525822215431       -1.44837406564452
H            0.86428382591747       -1.14472138350717       -1.43330686462146
H            0.01916905579950       -0.53410502146003        3.21548913596933
O           -0.63542901923936        2.13399520739305        5.16232178036649
H           -0.30135938134209        2.79141518235981        5.77915845210301
H           -1.55319219105040        2.40608504132426        4.96932048755323
O            2.03173699536322        3.12848253625032        1.11026802959362
H            2.48769120623659        2.32578702560955        0.82240111670813
H            1.08306760096087        2.94172266460114        1.09135346169636
O            0.41176536484570        0.89856156211744        8.44050860908761
H            1.05414615886108        0.18825695614598        8.32103393828169
H            0.47209873990385        1.44559601116856        7.64617258666987
O           -3.44439880033738       -0.91015937957992        3.42552426773327
H           -2.77983945368655       -1.51473158188902        3.08285663373219
H           -3.00067964771585       -0.08224568979381        3.64447546370502
O            2.29511184856476       -3.43714974289835        5.46738085050312
H            2.36752379707004       -2.74064543405405        4.80190455992796
H            1.78420022509719       -4.14787587624105        5.05789151511511
O            0.09890503316142       -1.76162035632306        4.39057721096757
H           -0.53199645155998       -2.37096517142481        4.77316098826028
H            0.37207559483501       -1.16530016932731        5.10174974835339
O            2.14401195901447        0.21371668149887        5.36767737297629
H            2.45997163095235        1.05698259688180        4.99616046726720
H            2.87463821421844       -0.41171354202025        5.20686812084407
37
 energy: -59.803439175161 gnorm: 0.121665635354 xtb: 6.7.1 (edcfbbe)
N            0.00285852766088        0.12564319712141        2.42694167119745
C            0.01211972782049       -0.60766183733783        1.14128495270736
C           -0.02678783806286        0.31038437503961       -0.07557407863833
C           -0.01680998931113       -0.50870818092545       -1.35956650785924
C           -0.00090157545273        0.37092753747731       -2.65396060879789
O           -0.00258774961701        1.60791609631975       -2.51084011262716
O            0.00550955469590       -0.26402292541403       -3.74453543831930
H            0.82538436385900        0.73268493723622        2.52083487671053
H           -0.82847979476901        0.72057919755656        2.50627196979024
H           -0.86010231103130       -1.26485906026244        1.10739235307022
H            0.91230897394961       -1.22552500680343        1.09629464418356
H            0.83755775044349        0.97733615019037       -0.11388110289213
H           -0.92760726405808        0.93093677442045       -0.08545113236735
H           -0.90001126438742       -1.14896436513200       -1.44412879607465
H            0.86886292852199       -1.14817383419261       -1.42737421196208
H            0.00744435140144       -0.57552977334768        3.21924972554642
O           -0.70349440303550        2.13371244659978        5.18647782134118
H           -0.30534877226185        2.83135385754170        5.72455744978410
H           -1.53877711332903        2.44612213072078        4.90287818221764
O            2.06706987172154        3.14531914790912        1.20652294739383
H            2.49417304015239        2.34372851407782        0.78351598187806
H            1.09074258435967        2.96111592443457        1.03784808863241
O            0.41753479849029        0.89866407793796        8.42862254836606
H            1.06461962929508        0.18013211168049        8.34237955690047
H            0.47791373339096        1.41269104782618        7.60453788398972
O           -3.44865302149521       -0.92717507365250        3.42702254669112
H           -2.77849763728948       -1.52748045609177        3.07276098919486
H           -2.99984392665004       -0.10470823668813        3.67636770556283
O            2.31889566010629       -3.45611121607786        5.46283382443615
H            2.32118912379187       -2.75690903294270        4.77039686804365
H            1.81258871814482       -4.20278241028642        5.09081841680789
O            0.10579230847491       -1.66846880622873        4.36188575098781
H           -0.53718063412928       -2.28119636408378        4.75125432745476
H            0.41757371289680       -1.08500235479016        5.07730025925776
O            2.23187557545477        0.24322507758364        5.43975416880855
H            2.39673585045699        1.02453409228401        4.97230156001262
H            2.79027950978145       -0.43732075969959        5.20408591857198
37
 energy: -59.811672182051 gnorm: 0.049230470483 xtb: 6.7.1 (edcfbbe)
N           -0.00132166988533        0.12406447226365        2.42180567969689
C            0.01034743663223       -0.61161194508021        1.13920707671273
C           -0.02780360216611        0.30713120499105       -0.07623418691619
C           -0.01692639405446       -0.50939570999965       -1.36221332152725
C           -0.00442314779864        0.37357258541063       -2.65158182317115
O            0.00040494045703        1.61109372952198       -2.50602816362919
O            0.00891418962770       -0.25271104244515       -3.73921338714059
H            0.82110328844962        0.72696574735344        2.51826856120340
H           -0.83014548614262        0.71871039423067        2.50011633892648
H           -0.85926665439741       -1.26902121736554        1.10503846926191
H            0.90942502178901       -1.22771545785983        1.09583316205303
H            0.83479439938745        0.97458811533776       -0.10938908373312
H           -0.92696752524474        0.92762637438770       -0.08325973895457
H           -0.89872364271234       -1.14926209812818       -1.44559341886071
H            0.86755844379023       -1.14838779576074       -1.42906493405014
H           -0.00106955786824       -0.57939330464437        3.21548588237735
O           -0.70790725297839        2.13510676319323        5.17856797116262
H           -0.30422029898796        2.83168316479781        5.70795965265743
H           -1.54211956329394        2.45541317110634        4.89918729500332
O            2.04723374598366        3.13483160924573        1.13275935708755
H            2.50963871357335        2.36007947632298        0.82683420106809
H            1.10770146781347        2.97007155858088        1.07745297282079
O            0.41974158353079        0.89007135935039        8.42601972137180
H            1.06654619102013        0.17775985547076        8.34094133368659
H            0.47998034529426        1.39987460165921        7.60573741513881
O           -3.45052220422669       -0.92779432780102        3.42742999934556
H           -2.78246684432015       -1.52603034075845        3.07221773881130
H           -3.00053422700904       -0.11156567454442        3.68086532578456
O            2.29937391055267       -3.46005576218798        5.46262402563326
H            2.32449431324155       -2.77504085017075        4.77554396283595
H            1.81909889045488       -4.20381002685891        5.07720597632987
O            0.11649309762703       -1.65108747576171        4.36774100449318
H           -0.53509619750919       -2.24777554453001        4.74877666744252
H            0.45060210403271       -1.08116229140681        5.09321180771707
O            2.14919610705928        0.21841827557432        5.39715832692387
H            2.41028293662575        1.03197755305374        4.98653572405970
H            2.84053014164274       -0.43081214654800        5.24913340837868
37
 energy: -59.804096084511 gnorm: 0.114932545089 xtb: 6.7.1 (edcfbbe)
N           -0.00792240525595        0.13174288158782        2.41120793084172
C            0.00543988157260       -0.61322305486834        1.13367441007740
C           -0.03268817989660        0.30406935255536       -0.08211214407541
C           -0.02010552775411       -0.50939319301712       -1.37074310073447