34
 energy: -56.592514967890 gnorm: 0.189536765559 xtb: 6.7.1 (edcfbbe)
C            0.00071700000000       -0.52255800000000        0.67804400000000
C            0.00015500000000        0.09392700000000        2.05036800000000
O           -0.00019500000000       -0.63013100000000        3.03226200000000
O           -0.00079700000000        1.43155900000000        2.21643300000000
C            0.00098900000000        0.52531100000000       -0.44326000000000
N           -0.00030100000000       -0.11659100000000       -1.75665200000000
H            0.90259300000000       -1.16292800000000        0.57888800000000
H           -0.90264000000000       -1.16023800000000        0.57901700000000
H           -0.90200200000000        1.16741300000000       -0.35103700000000
H            0.90366600000000        1.16894900000000       -0.35172000000000
H           -0.85706900000000       -0.70553200000000       -1.86752300000000
H            0.85322800000000       -0.71006900000000       -1.86779500000000
H            0.00165600000000        0.62088700000000       -2.49702600000000
O            0.28235700000000       -3.77766300000000        3.25190500000000
H           -0.42691800000000       -3.11177200000000        3.43664900000000
H            0.45406900000000       -3.69413500000000        2.28023000000000
O           -2.99764900000000       -3.23828300000000        1.19211200000000
H           -2.62896400000000       -2.33389700000000        1.35572400000000
H           -2.29158900000000       -3.85535700000000        1.51040400000000
O           -2.48299300000000       -2.78889900000000       -3.60342900000000
H           -1.64008200000000       -3.26166100000000       -3.81931600000000
H           -2.73909200000000       -2.34008400000000       -4.44817300000000
O           -0.80272200000000        3.65742400000000       -0.85025700000000
H           -0.79688000000000        4.38627300000000       -0.17991600000000
H           -1.66932100000000        3.19899100000000       -0.71076200000000
O           -1.74580700000000       -3.37120100000000       -0.59054900000000
H           -1.24358300000000       -4.18167200000000       -0.85798100000000
H           -2.01198200000000       -2.95053700000000       -1.44659000000000
O           -0.02040400000000        3.05014800000000       -4.21689900000000
H            0.17836300000000        4.01670700000000       -4.13404400000000
H            0.48956100000000        2.62796700000000       -3.48048100000000
O            1.49041200000000       -3.49615500000000       -3.07564600000000
H            0.51467800000000       -3.58001700000000       -2.92894800000000
H            1.81825700000000       -2.99806400000000       -2.28505500000000
34
 energy: -56.625807505756 gnorm: 0.096847381410 xtb: 6.7.1 (edcfbbe)
C            0.00136257538588       -0.50994112821874        0.66831421797273
C           -0.00012766372008        0.10122617870096        2.06185173817692
O           -0.01393445209864       -0.64983009693878        3.04676922923037
O           -0.00377244966772        1.38876506810913        2.17777312610843
C            0.00292897421524        0.53038840168259       -0.44482426246236
N           -0.00322774006948       -0.11681361210747       -1.76714126066204
H            0.89055749356932       -1.15074284363527        0.59696608269573
H           -0.88518919870913       -1.15477578794127        0.58630371763822
H           -0.88083951138980        1.16629513394900       -0.33916205086898
H            0.88445188285765        1.17232009115371       -0.34018726246792
H           -0.84689435295072       -0.70426340822371       -1.86997834267945
H            0.83773501576468       -0.70426872466545       -1.88037559429962
H           -0.00955183093113        0.60469561634811       -2.50520648569291
O            0.24927830507621       -3.80370443864494        3.23570467460920
H           -0.38651739427751       -3.09218807414059        3.43998238246385
H            0.45951415970538       -3.68230930034421        2.29317298559394
O           -3.05043846574161       -3.22664999793314        1.30943442435645
H           -2.64736210835148       -2.34194289565318        1.38132065170084
H           -2.32465236821354       -3.84118950092452        1.53105269609259
O           -2.43665114367568       -2.75362281759215       -3.59155534945567
H           -1.65349475333551       -3.27307196570619       -3.85041211942070
H           -2.74967348364307       -2.35418850248155       -4.42429134742782
O           -0.81646607101320        3.65905794389944       -0.85035856425047
H           -0.78698617626523        4.37065393287157       -0.19136282183589
H           -1.67113533480005        3.22131744120264       -0.70761246366952
O           -1.63780043006402       -3.33220281735855       -0.66413872154810
H           -1.24751331379973       -4.19560788070294       -0.90444741702649
H           -2.02764641316721       -2.99418616044309       -1.50126775598914
O           -0.01075705254020        3.04556927962972       -4.20336672072261
H            0.16327362588122        3.99909985365661       -4.14230756446936
H            0.50235428480420        2.65735560281313       -3.47566874775238
O            1.47685427186526       -3.46299973630187       -3.08215260192394
H            0.52742609069952       -3.58664327218654       -2.91007131446312
H            1.82460602860012       -3.02748958187266       -2.28378015755083
34
 energy: -56.638206090663 gnorm: 0.043307595543 xtb: 6.7.1 (edcfbbe)
C            0.00358558183360       -0.51187904159214        0.65623203714184
C           -0.01884943960385        0.11119150423016        2.06988269458018
O           -0.03418727873544       -0.68309537983722        3.03848821077213
O            0.00278418665607        1.34717795488564        2.15769118781818
C            0.00435510171276        0.53221390538207       -0.44182529398583
N           -0.00966420895743       -0.11627054565180       -1.77425525204712
H            0.89139842518282       -1.14399198011785        0.61221006265894
H           -0.86992420125899       -1.16193430432716        0.58223521609616
H           -0.87001414526451        1.16320381653788       -0.32943116715816
H            0.87557723632732        1.17188635069797       -0.33517203031136
H           -0.84179401857653       -0.70899426681504       -1.86314497848494
H            0.82360903507014       -0.69774801195017       -1.89332176943967
H           -0.03128333567410        0.59269619211988       -2.51310746576299
O            0.20691669700076       -3.83258598367002        3.22244341461759
H           -0.33132685272660       -3.04956415694550        3.45442823694089
H            0.47141946785239       -3.66871072951909        2.30795267571300
O           -3.06460310838350       -3.22636003149555        1.33640471514690
H           -2.67859593559575       -2.35716393663090        1.42308045842778
H           -2.36306102904097       -3.84058916823211        1.55695913466459
O           -2.38763893719207       -2.74104153206532       -3.58032613755930
H           -1.65183716860535       -3.28448341498255       -3.89375682792388
H           -2.76016599073910       -2.34792888043541       -4.37981837429511
O           -0.83086250588482        3.65578111912131       -0.85403009991395
H           -0.76150686729673        4.35826161085991       -0.20546289775567
H           -1.68828779106718        3.25161271104054       -0.70910148779767
O           -1.56153358595870       -3.28943968145603       -0.72663117012670
H           -1.26036674953444       -4.19074402021953       -0.93152333869417
H           -2.04123618883568       -3.01594542806518       -1.53978087346337
O            0.00559703528329        3.03201879306708       -4.18281913598417
H            0.13612769726233        3.98434666958372       -4.16332988400524
H            0.53415614624119        2.69574549499948       -3.45341124496827
O            1.45572913580323       -3.41712636499731       -3.09237521545487
H            0.53089727101110       -3.58734655189185       -2.87870779000084
H            1.84429732169440       -3.06508071162834       -2.27769860944494
34
 energy: -56.643348691567 gnorm: 0.070979231369 xtb: 6.7.1 (edcfbbe)
C            0.01044369122212       -0.52953690485266        0.64749500036205
C           -0.01263597244129        0.10747590520654        2.07544564855334
O           -0.07894576331128       -0.71825591483412        3.02563706192239
O           -0.01620171532521        1.33323421936950        2.15444304648391
C            0.00567307332212        0.52219668592415       -0.44046058016807
N           -0.02083246371809       -0.11940295334522       -1.78178307906336
H            0.90415027723714       -1.14939216698937        0.61771343056616
H           -0.85776643795686       -1.18272262578292        0.57465006368029
H           -0.86764080900423        1.15376996253516       -0.32042652576530
H            0.87720305902138        1.16190256877008       -0.33899843733378
H           -0.84532193445460       -0.72462803153857       -1.85216781345436
H            0.81364573255157       -0.69453742614675       -1.91329251917809
H           -0.06482576033030        0.58535003623843       -2.52330796748101
O            0.17275335564153       -3.83888280650365        3.21501190515402
H           -0.28300121289607       -3.00162706139534        3.46073680052088
H            0.49900174341556       -3.65040076250937        2.32240573600631
O           -3.09606847457504       -3.22835037357618        1.38745353876883
H           -2.69647404615946       -2.36056918288533        1.45001707403436
H           -2.38984001899878       -3.85328878376345        1.57000939525613
O           -2.30586041258432       -2.70588340639187       -3.55084061442901
H           -1.64353920006138       -3.31135955225357       -3.96334147297038
H           -2.79148726369142       -2.34314814634140       -4.32176628624048
O           -0.84870792333542        3.64406257932016       -0.86667256637698
H           -0.71076112266716        4.34491983894746       -0.22105088884196
H           -1.73182342535936        3.29721989080889       -0.70839925877878
O           -1.54578675755695       -3.27238516958580       -0.79752578609901
H           -1.26422712476368       -4.17501204225518       -0.95715683170636
H           -2.01621366952294       -3.00638021812117       -1.58874130949411
O            0.02884672238797        2.99966609680032       -4.15145146769256
H            0.08276999513666        3.96932425433651       -4.20849200958402
H            0.59380964800534        2.75749979984039       -3.39911475700123
O            1.42463503861677       -3.33950279054036       -3.11520186874230
H            0.52710084354667       -3.59809149912938       -2.81889830327998
H            1.87763932860796       -3.11515201935691       -2.26295135762769
34
 energy: -56.646746412080 gnorm: 0.083014798463 xtb: 6.7.1 (edcfbbe)
C            0.01657275030902       -0.55594987283300        0.63720593138849
C           -0.02580217624467        0.09990934882824        2.08668610561404
O           -0.12208613850774       -0.76740401456454        3.00829948519541
O           -0.02069730198591        1.32280964618408        2.15593480246220
C            0.00648079368605        0.50588197206679       -0.43863110312444
N           -0.03485420748581       -0.12370070040769       -1.79251153178898
H            0.92410588580541       -1.15258383410866        0.62882059028582
H           -0.84213908326873       -1.21656810709699        0.56180671292289
H           -0.86620882666221        1.14106581669970       -0.31005610283540
H            0.88100727971306        1.14570145566574       -0.34388517137253
H           -0.84866347450227       -0.74865911916872       -1.83858433100278
H            0.80312420284830       -0.69078618730432       -1.94147104621688
H           -0.10964775982507        0.57709463547984       -2.53772625520059
O            0.16732808460816       -3.79385369605470        3.21156131556595
H           -0.24873840719195       -2.97219184174321        3.45579732959319
H            0.52214233375591       -3.64468650920009        2.33657027810329
O           -3.13547537601712       -3.22867791937483        1.45759275964288
H           -2.72046397772423       -2.35815447008569        1.48707032951680
H           -2.42060101892666       -3.86717269317552        1.59082899153033
O           -2.29214693735731       -2.75254345754797       -3.56944526958373
H           -1.61439092039238       -3.27150977789989       -3.98506838565704
H           -2.78155821044046       -2.30160634738053       -4.26585878149740
O           -0.86495913479159        3.63017391296003       -0.87729490518682
H           -0.65088110016781        4.32986672000037       -0.23843036566225
H           -1.77982251090154        3.35315024106124       -0.70957875942129
O           -1.44722562569544       -3.20453507689496       -0.89126711116980
H           -1.29660305698032       -4.17488885403977       -0.97827744157174
H           -2.03519689069317       -3.03019577576180       -1.65374818143202
O            0.06167021372722        2.97245003241609       -4.11446607262899
H            0.04413472229899        3.94899462454630       -4.23947571159539
H            0.65201038932260        2.81730113532818       -3.34422923665477
O            1.40898188351337       -3.37496064557936       -3.05721741276903
H            0.51775262714378       -3.56440433052484       -2.79999235790346
H            1.88256196902869       -3.09125431049058       -2.29198209754643
34
 energy: -56.648177227646 gnorm: 0.079939420971 xtb: 6.7.1 (edcfbbe)
C            0.01492156897951       -0.56931442839201        0.63482403563822
C           -0.08230212663461        0.07916778300479        2.08763219872343
O           -0.11152629524586       -0.78041155149431        3.00316683318829
O           -0.00119392887637        1.31727015204011        2.16542677909273
C            0.00314231941474        0.49245843717889       -0.44305375066698
N           -0.04380807769298       -0.13055326553724       -1.79761291833010
H            0.93759614681987       -1.14842189570422        0.63450580762962
H           -0.83247397890917       -1.24525475489829        0.54632610328253
H           -0.87016589163268        1.13070744046484       -0.31034499574634
H            0.88164835473377        1.13191503572046       -0.35081635741755
H           -0.85228581155332       -0.76732814208407       -1.83550954126979
H            0.80092224309021       -0.69004908144758       -1.95921610048746
H           -0.13492721050468        0.57512318750711       -2.54028002978995
O            0.09685139729887       -3.83328210449843        3.19551727291200
H           -0.18028420398706       -2.88626635232300        3.46285548136209
H            0.55870041947701       -3.62915850489259        2.34675790358109
O           -3.15016196393809       -3.23549476424055        1.47900124937077
H           -2.74102893097040       -2.36259109175953        1.51728636389586
H           -2.44035535665890       -3.87238181343715        1.62237768620885
O           -2.28772554548063       -2.77599081186510       -3.58166398296650
H           -1.60100779306179       -3.25411644527330       -4.00981629749149
H           -2.77125043226162       -2.27293639073165       -4.23685485850452
O           -0.86403388714426        3.63112288251905       -0.88042888022507
H           -0.65195220234855        4.32555955057149       -0.24635582795781
H           -1.78274891430942        3.37000188424869       -0.72002217815338
O           -1.44874931303828       -3.20708479006162       -0.93683577844769
H           -1.24771662248781       -4.13387488434757       -0.99861159943083
H           -2.03963474395535       -3.02715111526224       -1.68787238699521
O            0.06570232452307        2.99401417899260       -4.10722061965101
H            0.08810883495852        3.93956470119501       -4.19403272036179
H            0.62572450155492        2.79786681873987       -3.35813924885446
O            1.37629907981955       -3.33478195289425       -3.06415671853500
H            0.50008464018981       -3.55430369195473       -2.74129050631379
H            1.91534239983002       -3.11591221908456       -2.29656541728915
34
 energy: -56.638701101052 gnorm: 0.149393418411 xtb: 6.7.1 (edcfbbe)
C            0.01814929794898       -0.57178095032556        0.63574214734890
C           -0.10910532367919        0.04640318792548        2.08310258345884
O           -0.10475193586959       -0.78043918095045        3.00411199731010
O           -0.00747619883280        1.29867709084599        2.18311269168039
C            0.00117553777998        0.48327358705232       -0.45126631398561
N           -0.05179510893280       -0.13877755208302       -1.79871025386354
H            0.94711770757482       -1.14513337964582        0.62926434772935
H           -0.82134423669125       -1.26200184671919        0.53755944581768
H           -0.87019376541495        1.12444745778249       -0.31201804113532
H            0.88348949924815        1.11954838821593       -0.36089148213204
H           -0.85567800803690       -0.78334079731519       -1.83417308623726
H            0.79987879129712       -0.68945326337912       -1.97318187385721
H           -0.15355793056035        0.57458311762992       -2.53478551280532
O            0.20633107275048       -3.69277960433478        3.22409058533156
H           -0.23782081878280       -2.92612193208210        3.44198696170452
H            0.53032803782907       -3.66463781357312        2.34126046461065
O           -3.14366746931169       -3.24027152239653        1.46570297906407
H           -2.75512035033262       -2.37133776227360        1.55384800073618
H           -2.45608524355089       -3.87083777351224        1.65788368502415
O           -2.23620575257436       -2.73808055908981       -3.55805135173102
H           -1.60532192024740       -3.28619193842596       -4.09193098865570
H           -2.79912876717655       -2.26858417260384       -4.20051037706303
O           -0.86264253624370        3.63800585106520       -0.88640073017107
H           -0.66993585630554        4.31845149439336       -0.25291166775369
H           -1.77034878242752        3.37700041408475       -0.72824601879771
O           -1.45730177938801       -3.20962571318515       -0.96629059190963
H           -1.22713907855859       -4.11428645123681       -1.00606697473734
H           -2.02555874303569       -3.01220375802526       -1.71737619076608
O            0.07250733370058        2.99576763610982       -4.09971394555401
H            0.09990344314350        3.92234258719223       -4.17747501168564
H            0.61439482297192        2.79991230502041       -3.35602897885697
O            1.33716975078019       -3.24136316341404       -3.10958656055343
H            0.48214123604398       -3.56545942784967       -2.66256851086472
H            1.95730407488218       -3.16759255489833       -2.28050442670049
34
 energy: -56.650845406027 gnorm: 0.075781902024 xtb: 6.7.1 (edcfbbe)
C            0.02449919945235       -0.56801094941943        0.63614317966429
C           -0.02244307273120        0.03953397635831        2.07725600805779
O           -0.14279998195376       -0.78196531416431        3.00576995333437
O           -0.06018310519842        1.27959653328019        2.18653067764526
C            0.00094509332636        0.48337353090646       -0.45359604027827
N           -0.05506789326507       -0.14375548388401       -1.79689114290267
H            0.94388329397006       -1.15024271319073        0.61924405624389
H           -0.81788114505685       -1.25714536057860        0.54371690974140
H           -0.86807305342786        1.12328875081117       -0.31130176957824
H            0.88256810883712        1.11676263291128       -0.36503175744333
H           -0.85616693034195       -0.78851519554507       -1.83401474124443
H            0.79647903630966       -0.69019083799548       -1.97474441189605
H           -0.15761035945134        0.56978917427858       -2.52995240647131
O            0.17993203366849       -3.72402568405041        3.21999436662256
H           -0.20984122770133       -2.87683585657058        3.44224251958157
H            0.53743508659846       -3.66962718110460        2.34131090371957
O           -3.13533779561706       -3.23867139913167        1.44468087529570
H           -2.75605068853176       -2.37239996916811        1.56474669368876
H           -2.45781253012415       -3.87055004756739        1.66492890753335
O           -2.22774179114747       -2.71103008186959       -3.54860135158103
H           -1.61011839142181       -3.29285593491701       -4.10792026452836
H           -2.81156458784581       -2.27685159213855       -4.21056389923635
O           -0.86608927743410        3.63661400686489       -0.89282217590283
H           -0.65875401237836        4.31584086560778       -0.25175493954520
H           -1.77520803513637        3.38171114438274       -0.72676700059382
O           -1.43151396384586       -3.17456095679101       -0.96464091016360
H           -1.26614839596963       -4.14211547797107       -0.98632188538202
H           -2.00993090876593       -3.01183715833128       -1.72981513700157
O            0.08792902960405        2.96153672477349       -4.09001464976807
H            0.05793063898232        3.92670078910473       -4.21856147148852
H            0.65207402032154        2.82586993441916       -3.31028138004989
O            1.36329885297715       -3.33032618495082       -3.04609551419920
H            0.48370858616643       -3.52781184278160       -2.70521388886563
H            1.91536516712971       -3.10318084157885       -2.29268131300867
34
 energy: -56.647906373506 gnorm: 0.125306501733 xtb: 6.7.1 (edcfbbe)
C            0.02484260725024       -0.57917609148381        0.62865833646122
C           -0.03459549372663        0.04365398702940        2.07959212792187
O           -0.16497672759420       -0.81723588458799        2.99663315535584
O           -0.04828307024437        1.26520454583458        2.17874212612414
C            0.00057268982931        0.47942975650725       -0.45102894005348
N           -0.06004351595691       -0.14862219041223       -1.80054847896948
H            0.95023705561808       -1.14942098754041        0.62443628226662
H           -0.80864292358553       -1.27224314723934        0.53128506222013
H           -0.86682807460537        1.11805850712982       -0.30909829532637
H            0.87936899147150        1.11387477057471       -0.36734509609078
H           -0.85306390184397       -0.80220397158771       -1.82995940362718
H            0.78917817359546       -0.68995134945906       -1.98399991290850
H           -0.17456625373018        0.55862983440093       -2.53503807086978
O            0.12355574773351       -3.75362992173713        3.22004745332706
H           -0.16924696688253       -2.80895649726258        3.42590049242355
H            0.57943336129759       -3.65607554963272        2.36038722790700
O           -3.16110039158730       -3.23950933291356        1.49054438421642
H           -2.76101051825503       -2.36965540549847        1.58533424552131
H           -2.46846118537110       -3.88430699753828        1.67929540642118
O           -2.34153188568572       -2.81491665872007       -3.64432407937879
H           -1.58105981893201       -3.17287690140777       -3.97772992432689
H           -2.73078689264140       -2.26502946072289       -4.27853902995145
O           -0.87502879764785        3.62742906810007       -0.90434949831267
H           -0.62035379493008        4.31035380147765       -0.25804482868703
H           -1.80204861357604        3.40207925158294       -0.73172158514874
O           -1.41005337435207       -3.17097777721366       -0.99214901141919
H           -1.24409043383694       -4.12182637904754       -1.00284466170201
H           -1.99177903744425       -3.00631165398092       -1.73314271675546
O            0.09608962487697        2.94757448262323       -4.07719531021546
H            0.05082974347036        3.92322911045267       -4.22986208834996
H            0.66809789334899        2.83246164577715       -3.28780605718214
O            1.33696588508473       -3.28703555444093       -3.04793892912516
H            0.48092211397294       -3.52112245835614       -2.67062087961559
H            1.91716878487703       -3.13278259070843       -2.28859250215069
34
 energy: -56.655283482543 gnorm: 0.055056606877 xtb: 6.7.1 (edcfbbe)
C            0.02807557882864       -0.59009507098399        0.62879784117667
C           -0.08645323644352        0.02573957760600        2.07843836029634
O           -0.15392920037186       -0.83034761045308        2.99374932157379
O           -0.03284753576046        1.25955952458341        2.18571141641404
C            0.00055952543500        0.47226442625340       -0.45008383061138
N           -0.06379076227961       -0.15419791669962       -1.79840784080553
H            0.96234926042416       -1.15134238365836        0.62439529044618
H           -0.79965521666764       -1.28960958452009        0.52201794694635
H           -0.86881594266041        1.11122437162823       -0.30597477802284
H            0.88050325615914        1.10906739601638       -0.37019060739271
H           -0.85334842290408       -0.81485422275305       -1.82246465031001
H            0.78953562293477       -0.69019457346948       -1.98959408017888
H           -0.18821654132001        0.55537059392435       -2.53156042021737
O            0.12819081817684       -3.73138702989381        3.22298936770739
H           -0.16448758354679       -2.79651396416946        3.41464036309016
H            0.59409261673225       -3.64603418725288        2.36588913026663
O           -3.15547755627595       -3.24299809816684        1.48589884132162
H           -2.76227046618856       -2.37223460613827        1.61357275917770
H           -2.47333701609196       -3.88972349194392        1.70268228252136
O           -2.33409214173893       -2.87616588633987       -3.64650078713760
H           -1.51852155710029       -3.13540930544810       -4.07315907513536
H           -2.79351878047139       -2.23201591929079       -4.22464495257383
O           -0.86983725352752        3.62668044615908       -0.90234901246837
H           -0.62803870057040        4.30821078104939       -0.26147744236205
H           -1.79779113570322        3.40601286143744       -0.73899220563940
O           -1.37728569415729       -3.14593504517187       -1.01483253718417
H           -1.23736378939697       -4.10102304268762       -1.01814723210790
H           -2.03077869633791       -3.01913767961912       -1.75211394280418
O            0.09151385112279        2.96204336978964       -4.06856136089858
H            0.08333333445476        3.91231715232896       -4.19762569794803
H            0.64882079745259        2.81615478597236       -3.29886844380488
O            1.32902769553795       -3.28075253125333       -3.02981917477189
H            0.47196849380035       -3.49967414153746       -2.65862001423062
H            1.91159737845262       -3.11688699529887       -2.28581783433324
34
 energy: -56.650814222978 gnorm: 0.115760323644 xtb: 6.7.1 (edcfbbe)
C            0.04157344681693       -0.59665732350873        0.62846721714320
C           -0.08249719662164       -0.00992460267643        2.07035933641588
O           -0.17250400221549       -0.83498186605731        2.99254942152631
O           -0.06621389949245        1.23709907207007        2.19685939253010
C            0.00304223348617        0.46175433458089       -0.45687875971273
N           -0.07050179345569       -0.16499088756504       -1.79819747515486
H            0.97543555205526       -1.15830061045142        0.61198340641741
H           -0.78330442366047       -1.30335730108035        0.51948951849572
H           -0.86532042572580        1.10136623600585       -0.30241193840047
H            0.88432181209831        1.09799795886727       -0.38123548913409
H           -0.85388741978746       -0.83438319595343       -1.81308848616078
H            0.78951268624627       -0.69093600709018       -2.00298474224620
H           -0.20952272818503        0.54938412825555       -2.52626450954551
O            0.19366605584656       -3.64560817132660        3.22923735680489
H           -0.17364228190370       -2.81132027052728        3.41339933986162
H            0.57117417212357       -3.64156576622942        2.36276289478473
O           -3.15276814981968       -3.24383889254995        1.47827549728075
H           -2.77288335821627       -2.38255465453748        1.65972550694729
H           -2.49744767005603       -3.88505549519247        1.74775573797865
O           -2.32035864760589       -2.82648474908733       -3.62915315334541
H           -1.50329699452025       -3.12092344297397       -4.10538696920965
H           -2.82134660239178       -2.27363583243273       -4.24315026522431
O           -0.86503089538959        3.63025781073224       -0.90816961579049
H           -0.64301648355597        4.29724206436509       -0.27342942203311
H           -1.78302083962360        3.41580610529659       -0.75054098038559
O           -1.43232496692975       -3.17344999214808       -1.05804906464220
H           -1.24023299046791       -4.09337230071065       -1.02531440835051
H           -1.92665688675342       -2.95694071993929       -1.79408340539636
O            0.11498460986120        2.93283345876093       -4.05078437176874
H            0.05695723998319        3.87850992498915       -4.22110211834945
H            0.67053464072357        2.85403688063224       -3.25926345299357
O            1.30892283762761       -3.28793850832936       -3.00064518848909
H            0.44473859594164       -3.46823134918944       -2.62627440280625
H            1.91062577356410       -3.09372403500024       -2.28547940704779
34