37
 energy: -59.735615457292 gnorm: 0.191964790744 xtb: 6.7.1 (edcfbbe)
N            0.06495200000000       -0.17036600000000        2.24069000000000
C           -0.42508700000000       -0.28387700000000        0.86827900000000
C            0.36773000000000        0.64114900000000       -0.07116600000000
C           -0.13442900000000        0.59759400000000       -1.52314500000000
C            0.09666800000000       -0.71348800000000       -2.23073300000000
O            0.72724600000000       -1.73996500000000       -1.62853300000000
O           -0.27063500000000       -0.83895900000000       -3.38700000000000
H            1.07233000000000       -0.44720500000000        2.28653100000000
H           -0.04872800000000        0.81071300000000        2.58374800000000
H           -1.50104700000000       -0.00273500000000        0.84068300000000
H           -0.33838800000000       -1.34087900000000        0.54567800000000
H            1.44982600000000        0.38979400000000       -0.04170700000000
H            0.24571000000000        1.68308900000000        0.29572000000000
H           -1.21792700000000        0.84024100000000       -1.53588800000000
H            0.40005500000000        1.38331800000000       -2.09874700000000
H           -0.48827700000000       -0.80842500000000        2.85559100000000
O            1.62930400000000       -3.80999500000000        4.10204100000000
H            1.84856500000000       -4.37866100000000        3.32155800000000
H            1.26929600000000       -2.97590400000000        3.70796000000000
O           -0.86457700000000       -3.25262100000000       -4.00326200000000
H            0.12017400000000       -3.34151700000000       -3.94873000000000
H           -1.18849200000000       -4.17476500000000       -4.16246000000000
O           -0.27924100000000       -3.78574800000000       -1.11874100000000
H           -1.20249900000000       -3.57869600000000       -1.41086400000000
H           -0.06416700000000       -4.64311400000000       -1.56514900000000
O            3.85999400000000       -3.28469200000000        0.77153400000000
H            3.44515900000000       -3.77653200000000        0.01879600000000
H            3.35518900000000       -3.58153600000000        1.57007600000000
O           -1.28072000000000       -4.53654100000000        0.69831300000000
H           -1.29676600000000       -4.98434600000000        1.58138900000000
H           -1.61273400000000       -3.62112100000000        0.87827400000000
O            1.35461300000000       -2.81922600000000        1.03845700000000
H            0.56581500000000       -3.31507600000000        1.37393000000000
H            1.38490200000000       -3.02671200000000        0.07065300000000
O            2.83167500000000       -3.84797600000000       -2.64810800000000
H            2.31218800000000       -3.59182800000000       -1.84490700000000
H            2.20662400000000       -3.70716700000000       -3.40315600000000
37
 energy: -59.770370568555 gnorm: 0.091911646919 xtb: 6.7.1 (edcfbbe)
N            0.06347628116935       -0.17188749843310        2.24545348281682
C           -0.43178942369051       -0.27961808255759        0.86344781379136
C            0.36331868900142        0.64885779628684       -0.05338070766567
C           -0.12891285140886        0.59940232356609       -1.49889152499733
C            0.11862304762067       -0.70636943008979       -2.23727694168356
O            0.77615601026606       -1.64719445864181       -1.64892293163427
O           -0.25679644025102       -0.80605245158593       -3.41367669892885
H            1.05893431482233       -0.44923243014738        2.27739787471919
H           -0.03453145682344        0.79795100121864        2.58727311314208
H           -1.49262929412217       -0.00171084510237        0.83081658250861
H           -0.32507717375491       -1.31446430497911        0.51669213813705
H            1.42722221053283        0.37809910386930       -0.04125576576564
H            0.25539972815303        1.68392335497711        0.29770869324639
H           -1.20410334891631        0.82447556804000       -1.54520166588311
H            0.38528612799730        1.37039190703389       -2.09125903811100
H           -0.47695327491273       -0.79860816990838        2.85982062438017
O            1.60571977434998       -3.81572900232039        4.09295471357373
H            1.85180045969144       -4.36875139965157        3.33358599202423
H            1.29827670226710       -2.98009357779927        3.70057671772307
O           -0.88565262229738       -3.29216263125655       -4.01337505929266
H            0.08355757842453       -3.32747297275451       -3.94118296914545
H           -1.17381969282023       -4.20614147981583       -4.18193003507938
O           -0.25836312048264       -3.80931925806026       -1.17983178835512
H           -1.16259618555095       -3.58476760300053       -1.44981968688722
H           -0.07399076869833       -4.67027592284577       -1.58253232243068
O            3.91153460268606       -3.32165495894591        0.77280092339190
H            3.47591905389475       -3.76472063339653        0.02484302904384
H            3.36613953141050       -3.55916458244839        1.54751848170228
O           -1.30686383708485       -4.55864865363461        0.78209002297540
H           -1.34538770883435       -4.99254902068165        1.64769045547526
H           -1.63564624015864       -3.65174205568149        0.90832534331968
O            1.32560068414365       -2.84569609373510        1.07386300897132
H            0.53961226364790       -3.34776447238686        1.34980858898270
H            1.33655921933427       -2.94450164127784        0.09972286711542
O            2.80964549693671       -3.88231191315404       -2.63236210549032
H            2.29302382748585       -3.54520341322242       -1.87520105636917
H            2.24160883597114       -3.69306709747533       -3.39868516932190
37
 energy: -59.785408614797 gnorm: 0.036788931475 xtb: 6.7.1 (edcfbbe)
N            0.06203415637723       -0.17808657316516        2.24723463632076
C           -0.43852255941160       -0.27117536053248        0.85542074027626
C            0.36235408107464        0.65857003434026       -0.04475927753999
C           -0.12227500382262        0.61422373333800       -1.48656405153134
C            0.20067614380897       -0.68738086630816       -2.25143486744925
O            0.79938860212978       -1.58866985321513       -1.65359781695928
O           -0.23980907976701       -0.76504626581193       -3.42246627562519
H            1.04829462174605       -0.46145651754072        2.26071731829331
H           -0.01619623317148        0.78522618905026        2.58861310217336
H           -1.49008738399035        0.00246618425042        0.82462549320914
H           -0.31398242964940       -1.28957514895052        0.49164727126472
H            1.41280687738691        0.36804009110178       -0.04042616816390
H            0.26734765657096        1.68723696205194        0.30109708249341
H           -1.19776716857000        0.80471635211167       -1.55917915979120
H            0.37346965305978        1.38758567167158       -2.07791957817592
H           -0.47054776442253       -0.79566020201351        2.86308360057265
O            1.58757147627906       -3.82129086471072        4.08396191709892
H            1.85437500370541       -4.37526270824474        3.34819123673126
H            1.32784212470567       -2.98382173415004        3.68627983628190
O           -0.92958682475781       -3.34371986259043       -4.01630495619715
H            0.03044325832909       -3.29977730108009       -3.93287752842593
H           -1.16141983431416       -4.25812313823996       -4.21904365941706
O           -0.24044750613241       -3.84688600897374       -1.20757492035797
H           -1.11532255134347       -3.58443753797199       -1.49682047553685
H           -0.07370179791270       -4.70788639348856       -1.58678211820769
O            3.95642610896191       -3.34304841952092        0.77195152618736
H            3.52858872293867       -3.75864303045339        0.01986215353331
H            3.37632818373073       -3.53534218915849        1.52347237859106
O           -1.30981503355384       -4.56246408086917        0.86157875663485
H           -1.39594361315904       -5.00644288743777        1.70595765410236
H           -1.67935272745998       -3.67830549716104        0.94295607873251
O            1.26741454058003       -2.84608805320575        1.10591556435480
H            0.51218490659195       -3.41241149308796        1.32134526552727
H            1.30535631281886       -2.87006233145975        0.13559163838826
O            2.78097374647165       -3.90072685673255       -2.60817779884338
H            2.25255977059486       -3.48738796728590       -1.90286883496976
H            2.28264256357525       -3.68266107455261       -3.40510076357713
37
 energy: -59.795285556657 gnorm: 0.061078628331 xtb: 6.7.1 (edcfbbe)
N            0.06168241845083       -0.18603288279956        2.24419123163170
C           -0.44643181318447       -0.25968560524367        0.84835510767951
C            0.35977382335042        0.67238736560423       -0.04252631820911
C           -0.12876299478293        0.63030740746376       -1.48302452544587
C            0.19033760473577       -0.69869092377832       -2.23406064461385
O            0.90469791875575       -1.53621290919906       -1.67080002727370
O           -0.17522184039906       -0.71872003831041       -3.43828068463342
H            1.04276567351736       -0.48370146974030        2.23971588379417
H            0.00456816115884        0.77622812942910        2.59008146447017
H           -1.49596966637107        0.01400042672087        0.82302734444315
H           -0.31570377976271       -1.27078091459579        0.47213196709876
H            1.40353224771382        0.35993766308518       -0.04212681445356
H            0.28371794266186        1.69952079372168        0.30897277293727
H           -1.20338577697295        0.80042453980246       -1.56483822068848
H            0.36261083123254        1.40462190544016       -2.07528926170315
H           -0.47063293931716       -0.79943379622975        2.86242786106042
O            1.56246519272849       -3.82777675528060        4.07953192421941
H            1.86370069116201       -4.39487522090728        3.36649036221195
H            1.36024936135103       -2.98175564744978        3.66040496918541
O           -0.99248759006384       -3.39813667239495       -4.01144920494500
H           -0.03379513833201       -3.25701002777059       -3.92050820332353
H           -1.14013060369072       -4.32534570051595       -4.27282709493496
O           -0.20367253811806       -3.88000617242415       -1.22967057711660
H           -1.05340924794388       -3.56669977588790       -1.55285268732371
H           -0.07041373656058       -4.76045041933980       -1.58375552418779
O            4.01363239327534       -3.37548420431341        0.77576173346141
H            3.58098847432399       -3.74450224602012       -0.00035698732108
H            3.36502216267619       -3.50106271960926        1.49782872437537
O           -1.27184455822748       -4.55622004368891        0.94816777881584
H           -1.46740247971892       -5.02236027813286        1.77625221609185
H           -1.74165833413467       -3.70549795910100        0.97614236366735
O            1.22098803052492       -2.86681545898510        1.15186734706301
H            0.47524615784603       -3.49068312525078        1.28196718604021
H            1.27948560602686       -2.77351674952964        0.17116459093642
O            2.74154357214499       -3.92640662350042       -2.57241241750382
H            2.19245448574048       -3.41667550819762       -1.92761980527625
H            2.33576128820187       -3.66666338306633       -3.42447883023201
37
 energy: -59.802331535498 gnorm: 0.060845486010 xtb: 6.7.1 (edcfbbe)
N            0.06274659910248       -0.19785324383956        2.23720370958317
C           -0.45392836753116       -0.24835526363130        0.84072315600887
C            0.35762930984693        0.68993319852342       -0.04054863677168
C           -0.12625876981825        0.64913529833149       -1.48439002123280
C            0.25679167195241       -0.67517628537942       -2.24697886807108
O            0.99778599235908       -1.49436755241156       -1.67373947008024
O           -0.13789195148496       -0.69962440711418       -3.43943900844138
H            1.03840409327745       -0.51687728584468        2.21610822568879
H            0.02997558621420        0.76425851484364        2.59179103934878
H           -1.50357278630846        0.02950661032302        0.82332396160149
H           -0.32685179039481       -1.25608185394433        0.45392977052085
H            1.39874325970938        0.36492001039592       -0.04380040921865
H            0.29516115653600        1.71580594003210        0.32098380702199
H           -1.20745253664907        0.77482408867898       -1.57082417529392
H            0.34328168549144        1.44181802586109       -2.07041390749846
H           -0.47363142127570       -0.80880949233341        2.85657553849511
O            1.59264933866394       -3.81516845102619        4.07300051676101
H            1.85662661556945       -4.43772438360814        3.39121330702094
H            1.35903413548913       -3.00485669230057        3.62248747186223
O           -1.06034882145852       -3.44407504968004       -3.99535888557893
H           -0.11113285291669       -3.22891875224558       -3.91969001009816
H           -1.13624332455275       -4.37017736268508       -4.32805819302601
O           -0.17321485849369       -3.91076684912335       -1.24955287523289
H           -0.99076737345627       -3.54967636828937       -1.62978659462924
H           -0.06886397473631       -4.81289849479456       -1.57412164984585
O            4.04750625623588       -3.37966697404147        0.77784353336658
H            3.64764789366942       -3.72626103721543       -0.02866285978245
H            3.36694346110022       -3.48938494053910        1.46614996324017
O           -1.24034314959774       -4.54695435802940        1.04464853585669
H           -1.52297108919891       -5.03861519052605        1.84818268715632
H           -1.79179553079854       -3.73295748375240        1.03358917158889
O            1.16370287793372       -2.85498906557984        1.17221055292487
H            0.45315869381470       -3.53459894931352        1.25864908394638
H            1.26276297539241       -2.76310671852900        0.21922186181002
O            2.71600816656835       -3.84576251320789       -2.55829000245233
H            2.13238483126791       -3.40370868264374       -1.94286230275683
H            2.34062499847643       -3.67656298535899       -3.42371302379404
37
 energy: -59.807810008644 gnorm: 0.065150642031 xtb: 6.7.1 (edcfbbe)
N            0.06285699804557       -0.20793055072325        2.22931201431897
C           -0.46238849856877       -0.23527114840003        0.83704109605348
C            0.35685477713782        0.70481595881178       -0.03971119238905
C           -0.11605613924385        0.66276231612649       -1.49030257902143
C            0.35737991771125       -0.63835500612555       -2.27214290540798
O            1.05443295089288       -1.47562468116218       -1.65435889726680
O           -0.10503774360715       -0.70910042867302       -3.42917174547980
H            1.03256934011223       -0.55598326584356        2.19535310759031
H            0.05671541311635        0.75582524140569        2.59337375173971
H           -1.51461860181055        0.05152500498486        0.82837573394501
H           -0.35097720010025       -1.24532795365389        0.44572216938637
H            1.39923287381576        0.37307563674751       -0.04277388469744
H            0.30515224915758        1.73186064935490        0.33188280950774
H           -1.20563701230992        0.73957114610860       -1.57909013613437
H            0.32955614282934        1.47917317919909       -2.06591199990796
H           -0.48305708566180       -0.81672900881554        2.84990538789100
O            1.56530649412754       -3.81067274197416        4.07200540539500
H            1.87055831706031       -4.47312532253309        3.42878972930227
H            1.39882866763308       -3.00108849697480        3.56131627943911
O           -1.09837420296948       -3.48157959733454       -3.99849217093482
H           -0.17512427305611       -3.24825938420806       -3.92840437684091
H           -1.15006299663535       -4.38594908735787       -4.34204652288321
O           -0.15930782672187       -3.94632640046298       -1.25335908598656
H           -0.93647727203514       -3.56022480842710       -1.71571374785977
H           -0.06212221177726       -4.86001851561111       -1.55632770650801
O            4.06230781926421       -3.38063016574332        0.77579796425165
H            3.70688603142981       -3.70890795028147       -0.06578294699409
H            3.35078854300495       -3.47191062578683        1.42432795747368
O           -1.29823358122751       -4.54685522254446        1.12456855589809
H           -1.52965819052386       -5.03253593390240        1.90894291318951
H           -1.79175956533054       -3.74032563318410        1.11041279010818
O            1.14141142700178       -2.89510814260677        1.20138422278909
H            0.42099098288195       -3.55627819189512        1.21924440323223
H            1.22830340064784       -2.71265340055505        0.25655756914984
O            2.66532918101090       -3.86685984448017       -2.50536029300078
H            2.04488711102320       -3.29317001394686       -1.98057081846459
H            2.42284476367379       -3.67558260952893       -3.44718785088667
37
 energy: -59.813234241129 gnorm: 0.055616876736 xtb: 6.7.1 (edcfbbe)
N            0.06469469506941       -0.21909831378473        2.22280065878902
C           -0.46805267036483       -0.22540926273989        0.83458743253300
C            0.35965692538960        0.70954105260499       -0.03847936476871
C           -0.10258661083858        0.66493047763566       -1.49079339285542
C            0.37007092003913       -0.63294278457715       -2.26667482275651
O            1.07246093376766       -1.45449537691900       -1.64549045836514
O           -0.04713554251599       -0.71007486453443       -3.43376742989491
H            1.02619474901567       -0.58896342242393        2.18309219139434
H            0.07911466622254        0.74115822208445        2.59513495517693
H           -1.51664342241892        0.07486105800473        0.83296217270789
H           -0.37736111886733       -1.23437945515289        0.43489801943082
H            1.40145360783869        0.37883770080010       -0.03669676077532
H            0.30768368244753        1.73619824771522        0.33143130176792
H           -1.18951080474856        0.72761904424095       -1.58729158581971
H            0.33118425412999        1.48804054564010       -2.06414621381885
H           -0.48934815630651       -0.82347405787601        2.83996722875597
O            1.58231265750712       -3.81157496017180        4.06745460582913
H            1.86936307301602       -4.50407983113524        3.45020209306978
H            1.40896399309878       -3.02715436658804        3.52041736990584
O           -1.14766201881192       -3.51324732617772       -3.98118624613980
H           -0.23053461291550       -3.22265102263329       -3.95181706166641
H           -1.15447268627911       -4.40659271677116       -4.35370298964422
O           -0.15005214530631       -3.94931374451902       -1.26937955603333
H           -0.91483951346146       -3.61601458348079       -1.74659131311617
H           -0.03180367949094       -4.86245725832701       -1.54676516226702
O            4.08038343670295       -3.39060352349781        0.76765118097275
H            3.75112976241806       -3.69741875664962       -0.09299166311937
H            3.31463294109052       -3.44236526867690        1.38045118295458
O           -1.24776341519608       -4.51991857050601        1.19968610357580
H           -1.54722758018938       -5.02747197025067        1.96087124309330
H           -1.85406861988957       -3.75569892061910        1.13956631120044
O            1.14114685721859       -2.94368104460630        1.23304247610770
H            0.39871229291474       -3.57793104077917        1.18837526293174
H            1.22468135052240       -2.65898356553191        0.27846490017102
O            2.64361279656386       -3.82077654039817       -2.51278340532276
H            2.04599808780248       -3.24265145672296       -1.99267080958605
H            2.38991191482455       -3.67553734267425       -3.42222345442117
37
 energy: -59.810263494905 gnorm: 0.121566072844 xtb: 6.7.1 (edcfbbe)
N            0.06646274010707       -0.22942524060307        2.21610996686544
C           -0.47094253614479       -0.21459554718598        0.83351313125139
C            0.36661093000939        0.70875786218153       -0.03695596032511
C           -0.08206959195152        0.65577493302340       -1.48835508262721
C            0.32820110927289       -0.65046921035465       -2.23445939805783
O            1.09834073289206       -1.42258894448043       -1.64048087128605
O            0.05142145084641       -0.71565510379622       -3.44724187740151
H            1.01478954692918       -0.62027130874404        2.17853000237563
H            0.10074604124448        0.72194888247801        2.59566824670864
H           -1.51145129175942        0.10370023560299        0.83675465111960
H           -0.40728227687330       -1.22067688380909        0.42105809087687
H            1.40667825985034        0.38467530268628       -0.02319891595377
H            0.30634481382786        1.73483146328261        0.32125965969038
H           -1.15837561955452        0.71645247575425       -1.59671797299641
H            0.33741050412482        1.47999271320129       -2.06499778118936
H           -0.49683227004233       -0.82594590705537        2.82716380859466
O            1.59224961432984       -3.81677721056190        4.05940395314209
H            1.87097886793201       -4.51002777371523        3.46534029525981
H            1.41925610788986       -3.06065385772196        3.48290457639053
O           -1.21031311651190       -3.56503285248469       -3.93734560869028
H           -0.29735045901726       -3.16806692881096       -3.97697628040436
H           -1.13842401847292       -4.43975210938009       -4.38505874219775
O           -0.14791469260640       -3.95690601040031       -1.27466737143924
H           -0.87205995104039       -3.66528172761712       -1.81308165619655
H           -0.00296373661728       -4.86247977605672       -1.52487563027114
O            4.05797093593674       -3.36318029242974        0.73950280974242
H            3.77988548113452       -3.69564116512209       -0.10912889855965
H            3.32026592997192       -3.43283969290038        1.33179436160516
O           -1.24125017872656       -4.49736629845040        1.27574903922796
H           -1.58265062631422       -5.03979102830673        2.00492487445068
H           -1.87873801270354       -3.76012581603774        1.18750237155023
O            1.06824337140459       -2.85614157099959        1.20288711664463
H            0.42569579334407       -3.56864193089934        1.20603010054790
H            1.24123280503722       -2.75111467379576        0.32102258466622
O            2.61803725387369       -3.78298088599144       -2.50118170775227
H            2.01793867572089       -3.18766369285631       -2.01964990513130
H            2.40415841265569       -3.65981542764307       -3.40514098023341
37
 energy: -59.818741244125 gnorm: 0.056007603396 xtb: 6.7.1 (edcfbbe)
N            0.06704460160450       -0.23592355450295        2.21133181894531
C           -0.47238812015278       -0.21209612542325        0.82997237842509
C            0.36746473172714        0.71066528783586       -0.04020237317867
C           -0.07885867749165        0.65581257696249       -1.49391885239733
C            0.37040410079683       -0.64095246414449       -2.24086134123689
O            1.11042596239929       -1.42987222490151       -1.62371199195699
O            0.06175335944851       -0.72823516098487       -3.44305153867085
H            1.01252553741437       -0.63609071417235        2.17218222592147
H            0.11055115460664        0.71462510609108        2.59529501896200
H           -1.51078950463922        0.11613393123485        0.83687833073194
H           -0.41760967901953       -1.21784441278881        0.41294560991907
H            1.40863319537297        0.38655053515007       -0.01943373416335
H            0.30435077687392        1.73805761378034        0.31651980624123
H           -1.15968889552102        0.70722402138949       -1.60198674269263
H            0.33798713665246        1.48582036168987       -2.06606193900957
H           -0.50114667935997       -0.83019123366814        2.82132881876841
O            1.59063895677970       -3.81882716284399        4.05750567798506
H            1.87809688317960       -4.52817496004408        3.47838811736563
H            1.41562398164331       -3.07782829512288        3.46355782434816
O           -1.21780339437435       -3.55560400516040       -3.95492708754510
H           -0.32121028682186       -3.18906889833538       -3.96399336114508
H           -1.17025127812204       -4.41959667874720       -4.37868700914307
O           -0.15598201352200       -3.96801697061712       -1.25798162400680
H           -0.85316577047126       -3.64932722678943       -1.88037421539024
H            0.00973023670121       -4.87992814690336       -1.49657391769204
O            4.08701452587869       -3.39278120326929        0.74625372651270
H            3.79489929394316       -3.67764093609270       -0.12776139891272
H            3.27212513150483       -3.40856507324120        1.30750972357851
O           -1.26436355671692       -4.50167769984889        1.29559923626753
H           -1.59223913057292       -5.04994467712551        2.02079982622259
H           -1.86603884631638       -3.76165348153227        1.21520043540703
O            1.05281344867725       -2.86106295857427        1.24697326737185
H            0.40830203983923       -3.62613527795632        1.16864405335526
H            1.29544868847914       -2.67287440566649        0.33878675888282
O            2.60608811915734       -3.75689111940553       -2.47430386107315
H            1.97689020250425       -3.16980615245838       -2.02370861907685
H            2.43702476791732       -3.65205321381359       -3.42052804792353
37
 energy: -59.810670209471 gnorm: 0.129741622917 xtb: 6.7.1 (edcfbbe)
N            0.06686421966644       -0.24431335314076        2.20532996611063
C           -0.47671915296720       -0.20856577071767        0.82634031815689
C            0.36590496677456        0.71462246186699       -0.04592382952721
C           -0.07959997349109        0.65621573735109       -1.50509422874663
C            0.47021815450220       -0.61535965325886       -2.26307831875474
O            1.12226397895778       -1.45500822060386       -1.58786509975345
O            0.04832304317749       -0.75813966830484       -3.42579472585360
H            1.00985479927158       -0.66135775098808        2.16062922175576
H            0.12574857181763        0.70796646941316        2.59569904835331
H           -1.51404188745187        0.13378138401067        0.84106313346808
H           -0.43303127730258       -1.21539453386041        0.40732180176028
H            1.41016923563892        0.38697582436879       -0.01617700984647
H            0.30239105891342        1.74620000263418        0.31078485869021
H           -1.17273490878432        0.68856113870225       -1.60719293171463
H            0.33661604671162        1.49630281129093       -2.06885958637870
H           -0.50927078108373       -0.83598080487214        2.81613368155655
O            1.56216410227277       -3.81476639606940        4.05608004752954
H            1.90539011106575       -4.55851092694817        3.51035801787845
H            1.42985909806759       -3.08118651634803        3.41378624287567
O           -1.23667324600457       -3.56440080194016       -3.91042776015481
H           -0.35205854003006       -3.17343248435532       -3.96808016295864
H           -1.16231568335659       -4.42085693431440       -4.41557850447459
O           -0.15534518149707       -3.96823702694186       -1.27514603793292
H           -0.86425406707898       -3.68325468531748       -1.87285466951568
H            0.01706471062040       -4.91215110841415       -1.47297776953856
O            4.03749003484882       -3.33964983242816        0.72100755752248
H            3.79439835974070       -3.67747018182355       -0.15137115102553
H            3.31706429874771       -3.45037042368521        1.29213427584060
O           -1.24250917568928       -4.49796022019933        1.32560474303384
H           -1.59011580338211       -5.03671241318089        2.05080348478824
H           -1.91199103664574       -3.77965843890144        1.20758246291319
O            1.13652823761219       -2.97433334494294        1.28073269143177
H            0.36682147150704       -3.52402816965364        1.18984423981354
H            1.24674756597522       -2.61211170757872        0.31557142532932
O            2.58628126758443       -3.77812117869005       -2.44706629209179
H            1.96676615690446       -3.08445053509929       -2.03632555564562
H            2.47003222438539       -3.63861774705878       -3.42938858489875
37
 energy: -59.820004156658 gnorm: 0.081277584626 xtb: 6.7.1 (edcfbbe)
N            0.06822790867316       -0.25022698654041        2.20201943673212
C           -0.47838427122261       -0.20515089924147        0.82566859993233
C            0.36748050774373        0.71436368733365       -0.04618216619940
C           -0.07124813277425        0.64889799500289       -1.50565643628092