
                                 *****************
                                 * O   R   C   A *
                                 *****************

                                            #,                                       
                                            ###                                      
                                            ####                                     
                                            #####                                    
                                            ######                                   
                                           ########,                                 
                                     ,,################,,,,,                         
                               ,,#################################,,                 
                          ,,##########################################,,             
                       ,#########################################, ''#####,          
                    ,#############################################,,   '####,        
                  ,##################################################,,,,####,       
                ,###########''''           ''''###############################       
              ,#####''   ,,,,##########,,,,          '''####'''          '####       
            ,##' ,,,,###########################,,,                        '##       
           ' ,,###''''                  '''############,,,                           
         ,,##''                                '''############,,,,        ,,,,,,###''
      ,#''                                            '''#######################'''  
     '                                                          ''''####''''         
             ,#######,   #######,   ,#######,      ##                                
            ,#'     '#,  ##    ##  ,#'     '#,    #''#        ,####,   ,####,        
            ##       ##  ##   ,#'  ##            #'  '#       #'       #'  '#        
            ##       ##  #######   ##           ,######,      #####,   #    #        
            '#,     ,#'  ##    ##  '#,     ,#' ,#      #,     #,   #   #,  ,#        
             '#######'   ##     ##  '#######'  #'      '#     '####' # '####'        



                #########################################################
                #                        -***-                          #
                #          Department of theory and spectroscopy        #
                #                                                       #
                #                      Frank Neese                      #
                #                                                       #
                #     Directorship, Architecture, Infrastructure        #
                #                    SHARK, DRIVERS                     #
                #        Core code/Algorithms in most modules           #
                #                                                       #
                #        Max Planck Institute fuer Kohlenforschung      #
                #                Kaiser Wilhelm Platz 1                 #
                #                 D-45470 Muelheim/Ruhr                 #
                #                      Germany                          #
                #                                                       #
                #                  All rights reserved                  #
                #                        -***-                          #
                #########################################################


                         Program Version 6.0.1  -  RELEASE   -


 With contributions from (in alphabetic order):
[Max-Planck-Institut fuer Kohlenforschung]                               
  Daniel Aravena         : Magnetic Suceptibility                        
  Michael Atanasov       : Ab Initio Ligand Field Theory (pilot matlab implementation)
  Alexander A. Auer      : GIAO ZORA, VPT2 properties, NMR spectrum      
  Ute Becker             : All parallelization in ORCA, NUMFREQ, NUMCALC 
  Giovanni Bistoni       : ED, misc. LED, open-shell LED, HFLD           
  Martin Brehm           : Molecular dynamics                            
  Dmytro Bykov           : pre 5.0 version of the SCF Hessian            
  Marcos Casanova-Páez   : Triplet and SCS-CIS(D). UHF-(DLPNO)-IP/EA/STEOM-CCSD. UHF-CVS-IP/STEOM-CCSD   
  Vijay G. Chilkuri      : MRCI spin determinant printing, contributions to CSF-ICE 
  Pauline Colinet        : FMM embedding                                 
  Dipayan Datta          : RHF DLPNO-CCSD density                        
  Achintya Kumar Dutta   : EOM-CC, STEOM-CC                              
  Nicolas Foglia         : Exact transition moments, OPA infrastructure, MCD improvements    
  Dmitry Ganyushin       : Spin-Orbit,Spin-Spin,Magnetic field MRCI      
  Miquel Garcia-Rates    : C-PCM and meta-GGA Hessian, CCSD/C-PCM, Gaussian charge scheme 
  Tiago L. C. Gouveia    : GS-ROHF, GS-ROCIS                             
  Yang Guo               : DLPNO-NEVPT2, F12-NEVPT2, CIM, IAO-localization        
  Andreas Hansen         : Spin unrestricted coupled pair/coupled cluster methods 
  Ingolf Harden          : AUTO-CI MPn and infrastructure                
  Benjamin Helmich-Paris : MC-RPA, TRAH-(SCF,CASSCF), AVAS, COSX integrals, SCF dyn. polar. 
  Lee Huntington         : MR-EOM, pCC                                   
  Robert Izsak           : Overlap fitted RIJCOSX, COSX-SCS-MP3, EOM     
  Riya Kayal             : Wick's Theorem for AUTO-CI, AUTO-CI UHF-CCSDT 
  Emily Kempfer          : AUTO-CI, RHF CISDT and CCSDT                  
  Christian Kollmar      : KDIIS, OOCD, Brueckner-CCSD(T), CCSD density, CASPT2, CASPT2-K, improved NEVPT2 
  Axel Koslowski         : Symmetry handling                             
  Simone Kossmann        : meta-GGA functionals, TD-DFT gradient, OOMP2, (MP2 Hessian; deprecated post 5.0) 
  Lucas Lang             : DCDCAS                                        
  Marvin Lechner         : AUTO-CI (C++ implementation), FIC-MRCC        
  Spencer Leger          : CASSCF response                               
  Dagmar Lenk            : GEPOL surface, SMD, ORCA-2-JSON               
  Dimitrios Liakos       : Extrapolation schemes; Compound Job, initial MDCI parallelization 
  Dimitrios Manganas     : Further ROCIS development; embedding schemes. LFT, Crystal Embedding 
  Dimitrios Pantazis     : SARC Basis sets                               
  Anastasios Papadopoulos: AUTO-CI, single reference methods and gradients 
  Taras Petrenko         : pre 6.0 DFT Hessian and TD-DFT gradient, (ASA, deprecated), ECA, 1-Electron XAS/XES, NRVS 
  Peter Pinski           : DLPNO-MP2, DLPNO-MP2 Gradient                 
  Christoph Reimann      : Effective Core Potentials                     
  Marius Retegan         : Local ZFS, SOC                                
  Christoph Riplinger    : Optimizer, TS searches, QM/MM, DLPNO-CCSD(T), (RO)-DLPNO pert. Triples 
  Michael Roemelt        : Original ROCIS implementation                 
  Masaaki Saitow         : Open-shell DLPNO-CCSD energy and density      
  Barbara Sandhoefer     : DKH picture change effects                    
  Kantharuban Sivalingam : CASSCF convergence/infrastructure, NEVPT2 and variants, FIC-MRCI 
  Bernardo de Souza      : ESD, SOC TD-DFT                               
  Georgi L. Stoychev     : AutoAux, RI-MP2 NMR, DLPNO-MP2 response, X2C  
  Van Anh Tran           : RI-MP2 g-tensors                              
  Willem Van den Heuvel  : Paramagnetic NMR                              
  Zikuan Wang            : NOTCH, Electric field optimization            
  Frank Wennmohs         : Technical directorship and infrastructure     
  Hang Xu                : AUTO-CI-Response properties                   
                                                                         
[FACCTs GmbH]                                                            
  Markus Bursch, Miquel Garcia-Rates, Christoph Riplinger, Bernardo de Souza, Georgi L. Stoychev 
                                                                 
  APM, Basis sets (HGBS, AHGBS, def-TZVP (Ac-Lr), def2-XVPD (La-Lu)), CI-OPT, improved COSX, DLPNO-Multilevel,           
  DOCKER, DRACO, updates on ESD, GOAT, IRC, LR-CPCM, MBIS, meta-GGA TD-DFT gradient, ML-optimized integration grids, 
  MM, NACMEs, nearIR, NEB, NEB-TS, NL-DFT gradient (VV10), 2- and 3-layer-ONIOM, interface openCOSMO-RS, QMMM,   
  Crystal-QMMM, SF, symmetry and pop. for TD-DFT, r2SCAN hybrids, SOLVATOR                                   
                                                                         
[Other institutions]                                                     
  V. Asgeirsson          : NEB                                           
  Christoph Bannwarth    : sTDA-DFT, sTD-DFT, PBEh-3c, B97-3c, D3        
  Sebastian Ehlert       : rSCAN, r2SCAN, r2SCAN-3c, D4, dhf basis sets  
  Marvin Friede          : D4 for Fr, Ra, Ac-Lr                          
  Lars Goerigk           : TD-DFT with DH, B97 family of functionals     
  Stefan Grimme          : VdW corrections, initial TS optimization, DFT functionals, gCP, sTDA/sTD-DF 
  Waldemar Hujo          : DFT-NL                                        
  H. Jonsson             : NEB                                           
  Holger Kruse           : gCP                                           
  Marcel Mueller         : wB97X-3c, vDZP basis set                      
  Hagen Neugebauer       : wr2SCAN                                       
  Tobias Risthaus        : range-separated hybrid DFT                    
  Lukas Wittmann         : regularized MP2, r2SCAN double-hybrids, wr2SCAN        
                                                                         
We gratefully acknowledge several colleagues who have allowed us to      
interface, adapt or use parts of their codes:                            
  Ed Valeev, F. Pavosevic, A. Kumar             : LibInt (2-el integral package), F12 methods 
  Garnet Chan, S. Sharma, J. Yang, R. Olivares  : DMRG                   
  Ulf Ekstrom                                   : XCFun DFT Library      
  Mihaly Kallay                                 : mrcc  (arbitrary order and MRCC methods)
  Frank Weinhold                                : gennbo (NPA and NBO analysis)           
  Simon Mueller                                 : openCOSMO-RS                            
  Christopher J. Cramer and Donald G. Truhlar   : smd solvation model                     
  S Lehtola, MJT Oliveira, MAL Marques          : LibXC Library                           
  Liviu Ungur et al                             : ANISO software                          


 Your calculation uses the libint2 library for the computation of 2-el integrals
 For citations please refer to: http://libint.valeyev.net

 Your ORCA version has been built with support for libXC version: 6.2.2
 For citations please refer to: https://libxc.gitlab.io

 This ORCA versions uses:
   CBLAS   interface :  Fast vector & matrix operations
   LAPACKE interface :  Fast linear algebra routines
   SCALAPACK package :  Parallel linear algebra routines
   Shared memory     :  Shared parallel matrices
   BLAS/LAPACK       :  OpenBLAS 0.3.27  USE64BITINT DYNAMIC_ARCH NO_AFFINITY SkylakeX SINGLE_THREADED
        Core in use  :  SkylakeX
   Copyright (c) 2011-2014, The OpenBLAS Project


NOTE: MaxCore=5000 MB was set to SCF,MP2,MDCI,CIPSI,MRCI and CIS
      => If you want to overwrite this, your respective input block should be placed after the MaxCore statement
Your calculation utilizes the atom-pairwise dispersion correction
based on EEQ partial charges (D4)


Warning: RI is on but no J-basis has been assigned. Assigning Def2/J (nothing to worry about!)
================================================================================

----- Orbital basis set information -----
Your calculation utilizes the basis: def2-TZVP
   F. Weigend and R. Ahlrichs, Phys. Chem. Chem. Phys. 7, 3297 (2005).

----- AuxJ basis set information -----
Your calculation utilizes the auxiliary basis: def2/J
   F. Weigend, Phys. Chem. Chem. Phys. 8, 1057 (2006).

================================================================================
                                        WARNINGS
                       Please study these warnings very carefully!
================================================================================

WARNING: Old DensityContainer found on disk!
         Will remove this file - 
         If you want to keep old densities, please start your calculation with a different basename. 


WARNING: Geometry Optimization
  ===> : Switching off AutoStart
         For restart on a previous wavefunction, please use MOREAD

================================================================================
                                       INPUT FILE
================================================================================
NAME = 02_Aminobutyric-acid_zwitterion.inp
|  1> ! Opt B3LYP D4 def2-TZVP TightSCF TightOpt CPCM(water)
|  2> 
|  3> %maxcore 5000
|  4> 
|  5> %pal
|  6> nprocs 10
|  7> end
|  8> 
|  9> %geom
| 10> 	MaxIter 1000	
| 11> end
| 12> 
| 13> * xyz 0 1
| 14>   N           1.24638391055614     -0.21088901874035      0.46713805411481
| 15>   C           2.01119355097207     -0.42035918156532     -0.79933340515278
| 16>   C           1.60615239346358      0.58286642363280     -1.86599110418143
| 17>   C           2.49305459022125      0.46732455834171     -3.10877188790275
| 18>   C           3.89551149195665      1.02208649249451     -2.90149186342157
| 19>   O           3.99572369606079      2.20071516117564     -2.46852329168956
| 20>   O           4.89304223088996      0.29441598717656     -3.18578201702422
| 21>   H           1.59642103739283      0.60441824161595      0.99553782731592
| 22>   H           0.23898038679925     -0.06947641518158      0.27964458359932
| 23>   H           1.81447533623832     -1.43896804274360     -1.13082511480129
| 24>   H           3.06690882512400     -0.34497790394611     -0.54660889153337
| 25>   H           1.66292831074369      1.59715939069559     -1.46566774361801
| 26>   H           0.56695290974343      0.40046690473305     -2.14704312737488
| 27>   H           2.54693792774618     -0.56525323223428     -3.45079305798837
| 28>   H           2.05024096597690      1.05606067481091     -3.91593933174453
| 29>   H           1.36680639536030     -1.01783916244733      1.09348377138231
| 30>   O           4.37048349519685      2.54077140488877      0.28859387761449
| 31>   H           5.52519221103877      3.18604251666272     -2.74892908291451
| 32>   O           6.42662001047159      3.52872932515754     -2.94211814149243
| 33>   H           3.56092557572985      2.43549087320533      0.81721868291304
| 34>   O           1.94824593543164      4.02950920239322     -2.98868268448999
| 35>   H           2.65873354117566      3.37706910638422     -2.80939797615590
| 36>   H           4.11368034092499      2.43975556255792     -0.64883414451832
| 37>   O           2.46116834215075      1.70450617140396      2.25910676075608
| 38>   H          -1.51093647822807      0.72606060263821      1.90817559234322
| 39>   H           6.97741731382494      2.87750245521607     -2.47443756527553
| 40>   H           1.90172934734689      2.08486732401643      2.94841195941137
| 41>   O          -1.38505824391166      0.84785919290440      2.86524094636286
| 42>   H           1.39003186875467      3.61080774874835     -3.65731406522249
| 43>   H          -0.69529030217888      1.51898372220551      2.93716130775338
| 44>   H           3.17074904899041      1.24532318138904      2.72780506604109
| 45>   O          -1.58086291576984      0.30333137483447      0.04378711859098
| 46>   H          -2.17651566849771     -0.41877498140354     -0.18505561324065
| 47>   H          -1.78879452138779      1.01894587065542     -0.57299789064429
| 48>   O           3.65272953259626      2.34460822334841     -6.41255338448306
| 49>   H           3.20471749337306      1.52382577654297     -6.19957799622092
| 50>   H           5.40918863283882      1.06713358190831      0.51896676875739
| 51>   H           4.54949071918010      2.24754535721918     -6.02828893835965
| 52>   H           0.23002055553652     -2.78111378974736      2.63756716038599
| 53>   O          -0.70462185610504     -3.02389589606172      2.79792240818994
| 54>   H           2.52935570693356     -1.95517185238714      3.03901133855304
| 55>   O           6.06111518902894      0.33317284416846      0.54324947846818
| 56>   H           4.07149193229819     -1.30934389557002     -5.81979779045633
| 57>   H          -0.96873511341911     -3.50282584940470      2.00021623358936
| 58>   O           2.01093444127552     -2.30403119969793      2.29728256578131
| 59>   O           6.18367372969658      1.92904083829703     -5.26222552794210
| 60>   H           6.36186042702790      2.61945543699577     -4.59139260137173
| 61>   H           5.64382518411666     -0.40633647532174      0.05934751866102
| 62>   H           7.05603698464374      0.87685129904013     -0.94366754575324
| 63>   O           4.67885029258854     -1.68135387318963     -5.16847506203767
| 64>   H           2.56089983244535     -2.98711480949200      1.87999922085155
| 65>   H           4.72521059078502     -1.00801049150155     -4.46032328224818
| 66>   H           5.89644986267919      1.17865441839571     -4.71431081060997
| 67>   O           7.34060149798141      1.07810349961201     -1.85955164826400
| 68>   H           6.57924408893248      0.77236396988708     -2.39391147959696
| 69>   O           5.31602879310012     -1.74934163435146     -1.24613301978553
| 70>   H           5.09261622674965     -1.17231344268070     -2.00235143315171
| 71>   H           4.56053239540713     -2.34059356768550     -1.14526972076835
| 72> *
| 73> 
| 74>                          ****END OF INPUT****
================================================================================

                       *****************************
                       * Geometry Optimization Run *
                       *****************************

Geometry optimization settings:
Update method            Update   .... BFGS
Choice of coordinates    CoordSys .... (2022) Redundant Internals
Initial Hessian          InHess   .... Almloef's Model
Max. no of cycles        MaxIter  .... 1000

Convergence Tolerances:
Energy Change            TolE     ....  1.0000e-06 Eh
Max. Gradient            TolMAXG  ....  1.0000e-04 Eh/bohr
RMS Gradient             TolRMSG  ....  3.0000e-05 Eh/bohr
Max. Displacement        TolMAXD  ....  1.0000e-03 bohr
RMS Displacement         TolRMSD  ....  6.0000e-04 bohr
Strict Convergence                .... False

------------------------------------------------------------------------------
                        ORCA OPTIMIZATION COORDINATE SETUP
------------------------------------------------------------------------------

The optimization will be done in redundant internal coordinates (2022)
Making redundant internal coordinates   ...  (2022 redundants) done
Evaluating the initial hessian          ...  (Almloef) done
Evaluating the coordinates              ...  done
Calculating the B-matrix                .... done
Calculating the G-matrix                .... done
Diagonalizing the G-matrix              .... done
Small eigenvalue found = 5.382e-03
Small eigenvalue found = 1.022e-02
Small eigenvalue found = 1.428e-02
Small eigenvalue found = 1.823e-02
Small eigenvalue found = 1.994e-02
The first mode is                       ....  361
The number of degrees of freedom        ....  168

    -----------------------------------------------------------------
                    Redundant Internal Coordinates


    -----------------------------------------------------------------
         Definition                    Initial Value    Approx d2E/dq
    -----------------------------------------------------------------
      1. B(C   1,N   0)                  1.4942         0.381560   
      2. B(C   2,C   1)                  1.5193         0.388549   
      3. B(C   3,C   2)                  1.5312         0.371987   
      4. B(C   4,C   3)                  1.5224         0.384194   
      5. B(O   5,C   4)                  1.2596         0.903381   
      6. B(O   6,C   4)                  1.2670         0.879121   
      7. B(H   7,N   0)                  1.0327         0.398095   
      8. B(H   8,N   0)                  1.0344         0.395588   
      9. B(H   9,C   1)                  1.0891         0.361286   
     10. B(H  10,C   1)                  1.0882         0.362546   
     11. B(H  11,C   2)                  1.0919         0.357579   
     12. B(H  12,C   2)                  1.0919         0.357626   
     13. B(H  13,C   3)                  1.0891         0.361317   
     14. B(H  14,C   3)                  1.0928         0.356414   
     15. B(H  15,N   0)                  1.0286         0.404157   
     16. B(H  17,O   5)                  1.8409         0.020446   
     17. B(O  18,H  17)                  0.9835         0.476901   
     18. B(H  19,O  16)                  0.9726         0.496473   
     19. B(H  21,O   5)                  1.8132         0.022636   
     20. B(H  21,O  20)                  0.9811         0.481124   
     21. B(H  22,O  16)                  0.9772         0.488115   
     22. B(H  22,O   5)                  1.8391         0.020578   
     23. B(O  23,H  19)                  1.9552         0.013433   
     24. B(O  23,H   7)                  1.8854         0.017362   
     25. B(H  25,O  18)                  0.9727         0.496204   
     26. B(H  26,O  23)                  0.9658         0.508977   
     27. B(O  27,H  24)                  0.9730         0.495778   
     28. B(H  28,O  20)                  0.9664         0.507823   
     29. B(H  29,O  27)                  0.9651         0.510361   
     30. B(H  30,H   7)                  2.4269         0.000508   
     31. B(H  30,O  23)                  0.9665         0.507775   
     32. B(H  30,H  19)                  2.2845         0.000856   
     33. B(O  31,H   8)                  1.8726         0.018199   
     34. B(O  31,H  24)                  1.9130         0.015687   
     35. B(H  32,O  31)                  0.9636         0.513043   
     36. B(H  32,H  24)                  2.4769         0.000422   
     37. B(H  33,O  31)                  0.9673         0.506107   
     38. B(H  35,O  34)                  0.9590         0.521794   
     39. B(H  36,H  19)                  2.3189         0.000755   
     40. B(H  36,H  22)                  2.2195         0.001087   
     41. B(H  36,O  16)                  1.8176         0.022272   
     42. B(H  37,O  34)                  0.9804         0.482344   
     43. B(O  39,H  38)                  0.9789         0.485109   
     44. B(O  41,H  36)                  0.9820         0.479612   
     45. B(H  43,O  39)                  0.9672         0.506394   
     46. B(O  44,H  38)                  1.8748         0.018046   
     47. B(O  44,H  15)                  1.8757         0.017989   
     48. B(O  44,H  40)                  0.9699         0.501463   
     49. B(O  45,H  37)                  1.8327         0.021067   
     50. B(H  46,H  17)                  2.1014         0.001678   
     51. B(H  46,O  18)                  1.8844         0.017422   
     52. B(H  46,O  45)                  0.9790         0.484903   
     53. B(H  46,H  37)                  2.3426         0.000692   
     54. B(H  46,H  25)                  2.2197         0.001087   
     55. B(H  47,O  41)                  0.9773         0.487893   
     56. B(H  48,H  36)                  2.2108         0.001123   
     57. B(H  48,H  47)                  2.1557         0.001375   
     58. B(H  48,O  41)                  1.8699         0.018380   
     59. B(O  49,H  42)                  0.9651         0.510229   
     60. B(H  50,H  15)                  2.4336         0.000495   
     61. B(H  50,O  44)                  0.9712         0.499034   
     62. B(H  51,O   6)                  1.8300         0.021278   
     63. B(H  51,O  49)                  0.9783         0.486197   
     64. B(H  52,O   6)                  2.0310         0.010167   
     65. B(H  52,O  45)                  0.9725         0.496590   
     66. B(H  52,H  37)                  2.1641         0.001333   
     67. B(O  53,H  25)                  1.9359         0.014419   
     68. B(O  53,H  48)                  0.9800         0.483193   
     69. B(H  54,H  25)                  2.1440         0.001435   
     70. B(H  54,O   6)                  1.9232         0.015108   
     71. B(H  54,O  53)                  0.9791         0.484682   
     72. B(O  55,H  47)                  1.9014         0.016368   
     73. B(H  56,O  55)                  0.9771         0.488283   
     74. B(H  56,H  47)                  2.2674         0.000912   
     75. B(H  56,O   6)                  1.8952         0.016749   
     76. B(H  57,O  55)                  0.9646         0.511171   
     77. B(H  57,H  40)                  4.6672         0.000000   
     78. A(H   7,N   0,H  15)          105.5524         0.296029   
     79. A(C   1,N   0,H   7)          111.7687         0.326092   
     80. A(C   1,N   0,H  15)          110.2560         0.326904   
     81. A(H   8,N   0,H  15)          109.3686         0.295733   
     82. A(C   1,N   0,H   8)          111.3467         0.325753   
     83. A(H   7,N   0,H   8)          108.3558         0.295027   
     84. A(C   2,C   1,H   9)          110.8385         0.326598   
     85. A(H   9,C   1,H  10)          108.1026         0.291299   
     86. A(N   0,C   1,C   2)          111.4711         0.364842   
     87. A(N   0,C   1,H  10)          106.8591         0.323862   
     88. A(N   0,C   1,H   9)          107.2556         0.323677   
     89. A(C   2,C   1,H  10)          112.0837         0.326785   
     90. A(C   1,C   2,H  11)          110.0062         0.326044   
     91. A(H  11,C   2,H  12)          107.3997         0.290204   
     92. A(C   1,C   2,H  12)          108.9136         0.326051   
     93. A(C   3,C   2,H  12)          109.2543         0.323725   
     94. A(C   3,C   2,H  11)          109.7279         0.323719   
     95. A(C   1,C   2,C   3)          111.4440         0.365536   
     96. A(C   2,C   3,C   4)          113.3034         0.364831   
     97. A(C   4,C   3,H  14)          106.1134         0.325266   
     98. A(H  13,C   3,H  14)          107.3901         0.290524   
     99. A(C   2,C   3,H  13)          110.7997         0.324272   
    100. A(C   2,C   3,H  14)          108.9138         0.323545   
    101. A(C   4,C   3,H  13)          110.0403         0.325997   
    102. A(C   3,C   4,O   6)          119.0418         0.421351   
    103. A(O   5,C   4,O   6)          123.4950         0.488993   
    104. A(C   3,C   4,O   5)          117.4558         0.423405   
    105. A(H  21,O   5,H  22)           98.5680         0.144146   
    106. A(C   4,O   5,H  22)          117.8279         0.236379   
    107. A(C   4,O   5,H  17)          120.9691         0.236164   
    108. A(C   4,O   5,H  21)          118.9327         0.239593   
    109. A(H  17,O   5,H  22)           91.5962         0.142890   
    110. A(H  17,O   5,H  21)          103.6946         0.144065   
    111. A(H  51,O   6,H  52)           80.2708         0.135358   
    112. A(C   4,O   6,H  52)          107.9255         0.213869   
    113. A(H  52,O   6,H  54)           76.6161         0.131901   
    114. A(C   4,O   6,H  56)          112.7850         0.228804   
    115. A(H  51,O   6,H  54)          122.9592         0.139705   
    116. A(H  51,O   6,H  56)           83.9010         0.140902   
    117. A(C   4,O   6,H  51)          119.5249         0.236586   
    118. A(C   4,O   6,H  54)          117.0751         0.225580   
    119. A(H  54,O   6,H  56)           80.9610         0.137032   
    120. A(H  52,O   6,H  56)          139.0139         0.132913   
    121. A(N   0,H   7,O  23)          163.5465         0.190541   
    122. A(O  23,H   7,H  30)           21.5675         0.107175   
    123. A(N   0,H   7,H  30)          142.5214         0.125930   
    124. L(N   0,H   8,O  31,H  24, 2) 176.6038         0.191482   
    125. L(N   0,H   8,O  31,H  24, 1) 176.0135         0.191482   
    126. A(O  44,H  15,H  50)           21.4430         0.107220   
    127. A(N   0,H  15,H  50)          152.7583         0.125851   
    128. A(N   0,H  15,O  44)          165.6885         0.191709   
    129. A(H  22,O  16,H  36)          100.8336         0.201501   
    130. A(H  19,O  16,H  22)          106.9460         0.316139   
    131. A(H  19,O  16,H  36)          108.6044         0.201934   
    132. A(O   5,H  17,O  18)          167.9332         0.198765   
    133. A(O   5,H  17,H  46)          108.6655         0.113724   
    134. A(O  18,H  17,H  46)           63.6919         0.139431   
    135. A(H  17,O  18,H  25)          101.0267         0.314919   
    136. A(H  25,O  18,H  46)           96.7314         0.195815   
    137. A(H  17,O  18,H  46)           88.4123         0.194860   
    138. A(O  16,H  19,H  36)           47.9741         0.131470   
    139. A(O  16,H  19,H  30)          130.7771         0.132703   
    140. A(O  23,H  19,H  30)           24.8262         0.108305   
    141. A(O  16,H  19,O  23)          155.4356         0.189722   
    142. A(O  23,H  19,H  36)          108.8172         0.107761   
    143. A(H  30,H  19,H  36)           86.3464         0.097140   
    144. A(H  21,O  20,H  28)          104.8682         0.316560   
    145. L(O   5,H  21,O  20,H  22, 2) 178.2773         0.201547   
    146. L(O   5,H  21,O  20,H  22, 1) 179.5159         0.201547   
    147. A(O   5,H  22,H  36)          118.5322         0.111443   
    148. A(O  16,H  22,H  36)           53.5443         0.134954   
    149. A(O   5,H  22,O  16)          168.3671         0.199505   
    150. A(H  19,O  23,H  30)           97.0248         0.190237   
    151. A(H   7,O  23,H  19)           88.9622         0.136154   
    152. A(H  19,O  23,H  26)          134.8217         0.190291   
    153. A(H   7,O  23,H  30)          112.6160         0.196291   
    154. A(H   7,O  23,H  26)          116.2598         0.196348   
    155. A(H  26,O  23,H  30)          105.4429         0.319472   
    156. A(O  27,H  24,O  31)          172.3340         0.193288   
    157. A(O  31,H  24,H  32)           20.6792         0.106039   
    158. A(O  27,H  24,H  32)          157.5034         0.126230   
    159. A(H  46,H  25,H  54)           82.5403         0.098936   
    160. A(H  46,H  25,O  53)          104.2935         0.109704   
    161. A(O  18,H  25,H  46)           57.4701         0.135118   
    162. A(O  53,H  25,H  54)           27.1611         0.111049   
    163. A(O  18,H  25,H  54)          124.7680         0.138115   
    164. A(O  18,H  25,O  53)          151.7882         0.191338   
    165. A(H  24,O  27,H  29)          104.6450         0.318369   
    166. A(H   7,H  30,H  19)           69.6003         0.096441   
    167. A(H   7,H  30,O  23)           45.8165         0.128021   
    168. A(H  19,H  30,O  23)           58.1490         0.132926   
    169. A(H  32,O  31,H  33)          105.6681         0.319715   
    170. A(H   8,O  31,H  33)          115.8802         0.197359   
    171. A(H   8,O  31,H  32)          118.7801         0.197693   
    172. A(H  24,O  31,H  33)          117.7613         0.193776   
    173. A(H   8,O  31,H  24)           83.4376         0.138361   
    174. A(H  24,O  31,H  32)          114.8111         0.194099   
    175. A(H  24,H  32,O  31)           44.5097         0.126519   
    176. A(H  35,O  34,H  37)          104.8040         0.318093   
    177. A(H  19,H  36,H  22)           40.3168         0.097592   
    178. A(O  16,H  36,H  19)           23.4215         0.110035   
    179. A(H  19,H  36,O  41)          165.2397         0.131140   
    180. A(O  16,H  36,H  22)           25.6220         0.111848   
    181. A(H  22,H  36,O  41)          149.6269         0.134771   
    182. A(O  16,H  36,O  41)          171.3099         0.201055   
    183. A(H  19,H  36,H  48)          136.8528         0.097655   
    184. A(H  22,H  36,H  48)           98.0439         0.098401   
    185. A(O  16,H  36,H  48)          114.3072         0.112014   
    186. A(O  41,H  36,H  48)           57.1455         0.135104   
    187. A(O  34,H  37,H  46)          158.7995         0.130372   
    188. A(O  45,H  37,H  52)           26.5412         0.112626   
    189. A(O  34,H  37,H  52)          148.8873         0.136991   
    190. A(H  46,H  37,H  52)           39.1454         0.097822   
    191. A(O  45,H  37,H  46)           23.2699         0.109368   
    192. L(O  39,H  38,O  44,H  15, 2) 180.6694         0.196120   
    193. L(O  39,H  38,O  44,H  15, 1) 178.9969         0.196120   
    194. A(H  38,O  39,H  43)          104.3849         0.316840   
    195. A(H  36,O  41,H  47)          105.6552         0.314346   
    196. A(H  47,O  41,H  48)           93.0647         0.196704   
    197. A(H  36,O  41,H  48)           96.6762         0.196288   
    198. A(H  15,O  44,H  38)           87.9812         0.139818   
    199. A(H  38,O  44,H  50)          115.9075         0.196808   
    200. A(H  38,O  44,H  40)          117.4178         0.196927   
    201. A(H  15,O  44,H  50)          113.6412         0.196730   
    202. A(H  15,O  44,H  40)          115.3237         0.196848   
    203. A(H  40,O  44,H  50)          106.1945         0.317796   
    204. A(H  37,O  45,H  52)           96.0988         0.200528   
    205. A(H  37,O  45,H  46)          109.0353         0.199928   
    206. A(H  46,O  45,H  52)          102.2306         0.315812   
    207. A(H  17,H  46,H  25)           40.7866         0.099295   
    208. A(O  18,H  46,H  25)           25.7985         0.110610   
    209. A(H  25,H  46,O  45)          141.8105         0.134878   
    210. A(H  17,H  46,O  18)           27.8958         0.112844   
    211. A(H  17,H  46,O  45)          135.9293         0.139622   
    212. A(O  18,H  46,O  45)          161.1299         0.195259   
    213. A(H  25,H  46,H  37)          144.8853         0.097424   
    214. A(H  17,H  46,H  37)          105.8178         0.098295   
    215. A(O  18,H  46,H  37)          129.7942         0.108511   
    216. A(H  37,H  46,O  45)           47.6948         0.130422   
    217. A(O  55,H  47,H  56)           25.2024         0.109478   
    218. A(H  48,H  47,H  56)           86.4036         0.098457   
    219. A(O  41,H  47,H  56)          144.0590         0.133155   
    220. A(H  48,H  47,O  55)          102.3522         0.111471   
    221. A(O  41,H  47,H  48)           60.0167         0.137453   
    222. A(O  41,H  47,O  55)          161.4418         0.193915   
    223. A(H  36,H  48,H  47)           41.8755         0.098913   
    224. A(H  36,H  48,O  41)           26.1783         0.111035   
    225. A(H  36,H  48,O  53)          144.7819         0.135182   
    226. A(O  41,H  48,H  47)           26.9186         0.112069   
    227. A(H  47,H  48,O  53)          138.3610         0.137347   
    228. A(O  41,H  48,O  53)          163.2213         0.196468   
    229. A(H  42,O  49,H  51)          104.6568         0.317345   
    230. A(H  15,H  50,O  44)           44.9158         0.127652   
    231. L(O   6,H  51,O  49,H  52, 2) 178.6776         0.200245   
    232. L(O   6,H  51,O  49,H  52, 1) 176.9104         0.200245   
    233. A(O   6,H  52,H  37)          111.3760         0.109034   
    234. A(H  37,H  52,O  45)           57.3600         0.137308   
    235. A(O   6,H  52,O  45)          154.9365         0.183573   
    236. A(H  48,O  53,H  54)          102.7173         0.314389   
    237. A(H  25,O  53,H  54)           88.3392         0.190795   
    238. A(H  25,O  53,H  48)          115.6745         0.190724   
    239. A(O   6,H  54,H  25)          113.0402         0.111283   
    240. A(H  25,H  54,O  53)           64.4997         0.137854   
    241. A(O   6,H  54,O  53)          169.7600         0.191876   
    242. A(H  56,O  55,H  57)          105.2963         0.317662   
    243. A(H  47,O  55,H  57)          119.7456         0.195027   
    244. A(H  47,O  55,H  56)           98.8399         0.193934   
    245. A(O   6,H  56,H  47)          109.3869         0.109584   
    246. A(H  47,H  56,O  55)           55.9577         0.133163   
    247. A(O   6,H  56,O  55)          164.6670         0.194481   
    248. D(C   2,C   1,N   0,H   8)     45.2324         0.013329   
    249. D(H   9,C   1,N   0,H  15)     45.3212         0.013329   
    250. D(C   2,C   1,N   0,H   7)    -76.1097         0.013329   
    251. D(H   9,C   1,N   0,H   7)    162.3933         0.013329   
    252. D(H  10,C   1,N   0,H   7)     46.6649         0.013329   
    253. D(C   2,C   1,N   0,H  15)    166.8182         0.013329   
    254. D(H   9,C   1,N   0,H   8)    -76.2646         0.013329   
    255. D(C   3,C   2,C   1,H  10)     54.1049         0.012006   
    256. D(H  11,C   2,C   1,H  10)    -67.8301         0.012006   
    257. D(H  11,C   2,C   1,H   9)    171.2912         0.012006   
    258. D(H  11,C   2,C   1,N   0)     51.8993         0.012006   
    259. D(C   3,C   2,C   1,N   0)    173.8343         0.012006   
    260. D(C   3,C   2,C   1,H   9)    -66.7738         0.012006   
    261. D(C   4,C   3,C   2,C   1)    -73.3319         0.011055   
    262. D(H  13,C   3,C   2,H  11)    173.0101         0.011055   
    263. D(C   4,C   3,C   2,H  11)     48.7639         0.011055   
    264. D(H  13,C   3,C   2,C   1)     50.9143         0.011055   
    265. D(H  13,C   3,C   2,H  12)    -69.4890         0.011055   
    266. D(C   4,C   3,C   2,H  12)    166.2648         0.011055   
    267. D(O   5,C   4,C   3,C   2)    -53.3999         0.011000   
    268. D(O   6,C   4,C   3,H  13)      2.8987         0.011000   
    269. D(O   6,C   4,C   3,C   2)    127.5571         0.011000   
    270. D(O   5,C   4,C   3,H  14)     66.0594         0.011000   
    271. D(O   5,C   4,C   3,H  13)   -178.0582         0.011000   
    272. D(H  22,O   5,C   4,C   3)     91.8940         0.078302   
    273. D(H  17,O   5,C   4,O   6)     21.5935         0.078302   
    274. D(H  17,O   5,C   4,C   3)   -157.4033         0.078302   
    275. D(H  22,O   5,C   4,O   6)    -89.1093         0.078302   
    276. D(H  21,O   5,C   4,C   3)    -27.0712         0.078302   
    277. D(H  21,O   5,C   4,O   6)    151.9255         0.078302   
    278. D(H  51,O   6,C   4,C   3)     26.9876         0.079287   
    279. D(H  54,O   6,C   4,O   5)     20.6147         0.079287   
    280. D(H  51,O   6,C   4,O   5)   -151.9942         0.079287   
    281. D(H  52,O   6,C   4,O   5)    -63.1928         0.079287   
    282. D(H  54,O   6,C   4,C   3)   -160.4036         0.079287   
    283. D(H  56,O   6,C   4,C   3)    -69.0660         0.079287   
    284. D(H  52,O   6,C   4,C   3)    115.7890         0.079287   
    285. D(H  30,H   7,N   0,H   8)    145.3554         0.212071   
    286. D(H  30,H   7,N   0,H  15)     28.2875         0.212071   
    287. D(H  30,H   7,N   0,C   1)    -91.5875         0.212071   
    288. D(O  23,H   7,N   0,H  15)     16.8237         0.212071   
    289. D(O  23,H   7,N   0,H   8)    133.8916         0.212071   
    290. D(O  23,H   7,N   0,C   1)   -103.0513         0.212071   
    291. D(H  50,H  15,N   0,H   7)    -98.9752         0.220253   
    292. D(H  50,H  15,N   0,C   1)     21.8914         0.220253   
    293. D(O  44,H  15,N   0,H   7)    -46.7355         0.220253   
    294. D(O  44,H  15,N   0,C   1)     74.1310         0.220253   
    295. D(O  44,H  15,N   0,H   8)   -163.1162         0.220253   
    296. D(H  50,H  15,N   0,H   8)    144.6442         0.220253   
    297. D(H  46,H  17,O   5,H  22)    156.4458         0.001768   
    298. D(H  46,H  17,O   5,H  21)   -104.3361         0.001768   
    299. D(O  18,H  17,O   5,H  21)   -153.2244         0.001768   
    300. D(H  46,H  17,O   5,C   4)     32.2957         0.001768   
    301. D(O  18,H  17,O   5,C   4)    -16.5925         0.001768   
    302. D(O  18,H  17,O   5,H  22)    107.5576         0.001768   
    303. D(H  25,O  18,H  17,H  46)    -96.5497         0.306977   
    304. D(H  25,O  18,H  17,O   5)    -43.7737         0.306977   
    305. D(H  46,O  18,H  17,O   5)     52.7759         0.306977   
    306. D(H  30,H  19,O  16,H  36)     27.0550         0.371492   
    307. D(H  30,H  19,O  16,H  22)    135.1078         0.371492   
    308. D(O  23,H  19,O  16,H  36)     21.9991         0.371492   
    309. D(O  23,H  19,O  16,H  22)    130.0519         0.371492   
    310. D(H  36,H  19,O  16,H  22)    108.0528         0.371492   
    311. D(H  28,O  20,O   5,H  17)    125.5192         0.001501   
    312. D(H  28,O  20,O   5,H  22)   -140.8191         0.001501   
    313. D(H  28,O  20,O   5,C   4)    -12.1789         0.001501   
    314. D(O   5,H  22,O  16,H  36)    -49.9568         0.325830   
    315. D(O   5,H  22,O  16,H  19)   -163.4023         0.325830   
    316. D(H  36,H  22,O   5,H  17)    -84.3083         0.001772   
    317. D(H  36,H  22,O   5,H  21)    171.5861         0.001772   
    318. D(H  36,H  22,O   5,C   4)     42.3329         0.001772   
    319. D(O  16,H  22,O   5,H  21)   -143.9166         0.001772   
    320. D(O  16,H  22,O   5,C   4)     86.8302         0.001772   
    321. D(H  36,H  22,O  16,H  19)   -113.4454         0.325830   
    322. D(O  16,H  22,O   5,H  17)    -39.8110         0.001772   
    323. D(H  30,O  23,H  19,H  36)     26.2418         0.001623   
    324. D(H   7,O  23,H  19,O  16)   -103.5162         0.001623   
    325. D(H  30,O  23,H  19,O  16)      9.1457         0.001623   
    326. D(H  26,O  23,H  19,H  30)    120.0467         0.001623   
    327. D(H  26,O  23,H  19,H  36)    146.2885         0.001623   
    328. D(H  26,O  23,H  19,O  16)    129.1924         0.001623   
    329. D(H  19,O  23,H   7,H  30)     97.1786         0.001692   
    330. D(H  19,O  23,H   7,N   0)    116.3855         0.001692   
    331. D(H  30,O  23,H   7,N   0)     19.2069         0.001692   
    332. D(H  26,O  23,H   7,H  30)   -121.8152         0.001692   
    333. D(H  26,O  23,H   7,N   0)   -102.6083         0.001692   
    334. D(H  54,H  25,O  18,H  17)     38.7551         0.370973   
    335. D(O  53,H  25,O  18,H  46)    -55.2868         0.370973   
    336. D(O  53,H  25,O  18,H  17)     34.4024         0.370973   
    337. D(H  46,H  25,O  18,H  17)     89.6892         0.370973   
    338. D(H  54,H  25,O  18,H  46)    -50.9342         0.370973   
    339. D(H  29,O  27,H  24,O  31)     90.8246         0.305816   
    340. D(H  29,O  27,H  24,H  32)    157.8445         0.305816   
    341. D(H  19,H  30,O  23,H   7)     91.8088         0.393694   
    342. D(H   7,H  30,O  23,H  26)    127.7584         0.393694   
    343. D(H  19,H  30,O  23,H  26)   -140.4327         0.393694   
    344. D(H   7,H  30,H  19,O  23)     49.8815         0.001508   
    345. D(H   7,H  30,H  19,H  36)   -105.3230         0.001508   
    346. D(H   7,H  30,H  19,O  16)   -125.1126         0.001508   
    347. D(O  23,H  30,H  19,H  36)   -155.2046         0.001508   
    348. D(O  23,H  30,H  19,O  16)   -174.9942         0.001508   
    349. D(H   7,H  30,O  23,H  19)    -91.8088         0.393694   
    350. D(H  19,H  30,H   7,O  23)    -64.9324         0.001503   
    351. D(O  23,H  30,H   7,N   0)   -171.1912         0.001503   
    352. D(H  19,H  30,H   7,N   0)    123.8764         0.001503   
    353. D(H  33,O  31,H  24,H  32)    125.4204         0.001656   
    354. D(H  33,O  31,H  24,O  27)   -148.6067         0.001656   
    355. D(H   8,O  31,H  24,O  27)    -32.7599         0.001656   
    356. D(H  32,O  31,H  24,O  27)     85.9729         0.001656   
    357. D(H  24,O  31,N   0,H   7)    -47.2024         0.001500   
    358. D(H  24,O  31,N   0,C   1)   -169.8275         0.001500   
    359. D(H  33,O  31,N   0,H  15)   -176.8589         0.001500   
    360. D(H  33,O  31,N   0,H   7)     69.8368         0.001500   
    361. D(H  33,O  31,N   0,C   1)    -52.7882         0.001500   
    362. D(H  32,O  31,N   0,H  15)    -48.0352         0.001500   
    363. D(H   8,O  31,H  24,H  32)   -118.7327         0.001656   
    364. D(H  32,O  31,N   0,C   1)     76.0354         0.001500   
    365. D(H  32,O  31,N   0,H   7)   -161.3395         0.001500   
    366. D(H  24,H  32,O  31,H   8)     96.3321         0.370453   
    367. D(H  24,H  32,O  31,H  33)   -131.5005         0.370453   
    368. D(O  31,H  32,H  24,O  27)   -159.6486         0.001502   
    369. D(H  48,H  36,O  16,H  22)     54.0763         0.001846   
    370. D(H  48,H  36,O  16,H  19)    166.2577         0.001846   
    371. D(H  19,H  36,O  16,H  22)   -112.1815         0.001846   
    372. D(H  22,H  36,O  16,H  19)    112.1815         0.001846   
    373. D(O  41,H  36,O  16,H  19)    176.2572         0.001846   
    374. D(O  41,H  36,O  16,H  22)     64.0757         0.001846   
    375. D(H  48,H  36,H  22,O  16)   -131.8113         0.001514   
    376. D(H  19,H  36,H  22,O  16)     34.6724         0.001514   
    377. D(O  16,H  36,H  22,O   5)    169.8802         0.001514   
    378. D(O  41,H  36,H  22,O   5)      5.4698         0.001514   
    379. D(O  41,H  36,H  22,O  16)   -164.4103         0.001514   
    380. D(H  22,H  36,H  19,O  23)    151.2341         0.001507   
    381. D(H  22,H  36,H  19,O  16)    -38.2351         0.001507   
    382. D(O  16,H  36,H  19,H  30)   -159.8099         0.001507   
    383. D(O  16,H  36,H  19,O  23)   -170.5308         0.001507   
    384. D(O  41,H  36,H  19,H  30)     22.4087         0.001507   
    385. D(H  19,H  36,H  22,O   5)   -155.4474         0.001514   
    386. D(O  41,H  36,H  19,O  23)     11.6877         0.001507   
    387. D(O  41,H  36,H  19,O  16)   -177.7814         0.001507   
    388. D(H  46,H  37,O  34,H  35)   -110.5720         0.316035   
    389. D(H  52,H  37,O  34,H  35)    -13.6062         0.316035   
    390. D(H  48,O  41,H  36,H  22)     39.4221         0.366698   
    391. D(H  48,O  41,H  36,O  16)    -10.8580         0.366698   
    392. D(H  47,O  41,H  36,H  48)    -95.0892         0.366698   
    393. D(H  47,O  41,H  36,H  19)     68.2074         0.366698   
    394. D(H  47,O  41,H  36,H  22)    -55.6671         0.366698   
    395. D(H  47,O  41,H  36,O  16)   -105.9472         0.366698   
    396. D(H  15,O  44,O  39,H  43)     73.6123         0.001500   
    397. D(H  50,O  44,O  39,H  43)    -41.6104         0.001500   
    398. D(H  40,O  44,O  39,H  43)   -168.8752         0.001500   
    399. D(H  38,O  44,H  15,H  50)   -117.5042         0.001706   
    400. D(H  38,O  44,H  15,N   0)    160.6465         0.001706   
    401. D(H  50,O  44,H  15,N   0)    -81.8494         0.001706   
    402. D(H  40,O  44,H  15,H  50)    122.9536         0.001706   
    403. D(H  40,O  44,H  15,N   0)     41.1042         0.001706   
    404. D(H  52,O  45,H  37,H  46)    105.2031         0.001786   
    405. D(H  46,O  45,H  37,H  52)   -105.2031         0.001786   
    406. D(H  52,O  45,O  34,H  35)    -15.7535         0.001501   
    407. D(H  46,O  45,O  34,H  35)   -120.4986         0.001501   
    408. D(H  37,H  46,O  45,H  52)   -100.9404         0.377169   
    409. D(H  25,H  46,O  45,H  37)    129.1977         0.377169   
    410. D(H  17,H  46,O  45,H  37)     65.7816         0.377169   
    411. D(H  17,H  46,O  45,H  52)    -35.1588         0.377169   
    412. D(O  18,H  46,O  45,H  37)     90.7491         0.377169   
    413. D(H  17,H  46,H  37,O  45)   -138.7539         0.001506   
    414. D(H  17,H  46,H  37,O  34)     29.9899         0.001506   
    415. D(O  18,H  46,H  37,H  52)   -112.0263         0.001506   
    416. D(O  18,H  46,H  37,O  34)     13.6351         0.001506   
    417. D(O  45,H  46,H  37,H  52)     43.0824         0.001506   
    418. D(O  45,H  46,H  37,O  34)    168.7438         0.001506   
    419. D(H  17,H  46,H  25,O  53)    111.6703         0.001515   
    420. D(H  17,H  46,H  25,O  18)    -44.6887         0.001515   
    421. D(O  18,H  46,H  25,H  54)    139.9654         0.001515   
    422. D(O  18,H  46,H  25,O  53)    156.3589         0.001515   
    423. D(O  45,H  46,H  25,H  54)    -12.5119         0.001515   
    424. D(O  45,H  46,H  25,O  53)      3.8817         0.001515   
    425. D(O  45,H  46,H  25,O  18)   -152.4773         0.001515   
    426. D(H  37,H  46,O  18,H  25)    136.3020         0.001709   
    427. D(H  37,H  46,O  18,H  17)     35.3844         0.001709   
    428. D(H  25,H  46,O  18,H  17)   -100.9176         0.001709   
    429. D(O  18,H  46,H  37,O  45)   -155.1087         0.001506   
    430. D(H  17,H  46,O  18,H  25)    100.9176         0.001709   
    431. D(O  45,H  46,O  18,H  25)     62.0505         0.001709   
    432. D(O  45,H  46,O  18,H  17)    -38.8671         0.001709   
    433. D(O  18,H  46,O  45,H  52)    -10.1913         0.377169   
    434. D(H  37,H  46,H  17,O  18)   -152.4560         0.001533   
    435. D(H  25,H  46,H  17,O   5)   -129.0239         0.001533   
    436. D(H  25,H  46,H  17,O  18)     40.8564         0.001533   
    437. D(H  25,H  46,O  45,H  52)     28.2573         0.377169   
    438. D(O  18,H  46,H  17,O   5)   -169.8804         0.001533   
    439. D(O  45,H  46,H  17,O   5)     -6.8456         0.001533   
    440. D(O  45,H  46,H  17,O  18)    163.0348         0.001533   
    441. D(H  56,H  47,O  41,H  48)    -23.1871         0.355200   
    442. D(H  56,H  47,O  41,H  36)     74.6244         0.355200   
    443. D(O  55,H  47,O  41,H  48)     19.5130         0.355200   
    444. D(O  55,H  47,O  41,H  36)    117.3245         0.355200   
    445. D(H  48,H  47,O  41,H  36)     97.8115         0.355200   
    446. D(O  41,H  48,H  47,H  56)    166.6111         0.001522   
    447. D(O  41,H  48,H  47,O  55)   -173.7523         0.001522   
    448. D(O  53,H  48,H  47,H  56)      1.2392         0.001522   
    449. D(O  53,H  48,H  47,O  55)     20.8758         0.001522   
    450. D(O  53,H  48,H  47,O  41)   -165.3719         0.001522   
    451. D(H  36,H  48,O  41,H  47)    106.1615         0.001716   
    452. D(H  47,H  48,O  41,H  36)   -106.1615         0.001716   
    453. D(O  53,H  48,O  41,H  47)     35.5401         0.001716   
    454. D(O  53,H  48,O  41,H  36)    -70.6214         0.001716   
    455. D(O  41,H  48,H  36,H  19)   -173.8532         0.001516   
    456. D(O  41,H  48,H  36,H  22)   -161.0781         0.001516   
    457. D(O  41,H  48,H  36,O  16)    178.2104         0.001516   
    458. D(O  53,H  48,H  36,H  19)    -22.0312         0.001516   
    459. D(O  53,H  48,H  36,H  22)     -9.2562         0.001516   
    460. D(O  53,H  48,H  36,O  16)    -29.9677         0.001516   
    461. D(H  36,H  48,H  47,O  41)    -39.4044         0.001522   
    462. D(O  53,H  48,H  36,O  41)    151.8220         0.001516   
    463. D(H  42,O  49,O   6,H  56)    147.2884         0.001501   
    464. D(H  42,O  49,O   6,H  52)    -70.4926         0.001501   
    465. D(H  42,O  49,O   6,H  54)   -137.0081         0.001501   
    466. D(H  42,O  49,O   6,C   4)     34.0740         0.001501   
    467. D(H  15,H  50,O  44,H  38)     99.7807         0.344908   
    468. D(H  15,H  50,O  44,H  40)   -127.8316         0.344908   
    469. D(O  44,H  50,H  15,N   0)    147.6852         0.001502   
    470. D(H  37,H  52,O  45,H  46)    111.0257         0.340575   
    471. D(O   6,H  52,O  45,H  37)    -69.6443         0.340575   
    472. D(O   6,H  52,H  37,H  46)    117.6041         0.001519   
    473. D(O   6,H  52,H  37,O  45)    154.7539         0.001519   
    474. D(O   6,H  52,H  37,O  34)    -27.7419         0.001519   
    475. D(O  45,H  52,H  37,H  46)    -37.1498         0.001519   
    476. D(O  45,H  52,H  37,O  34)    177.5042         0.001519   
    477. D(H  37,H  52,O   6,H  54)   -146.7174         0.001570   
    478. D(H  37,H  52,O   6,H  51)     85.8240         0.001570   
    479. D(H  37,H  52,O   6,C   4)    -32.2128         0.001570   
    480. D(O  45,H  52,O   6,H  56)   -147.4057         0.001570   
    481. D(O   6,H  52,O  45,H  46)     41.3814         0.340575   
    482. D(O  45,H  52,O   6,H  54)    -88.7430         0.001570   
    483. D(O  45,H  52,O   6,H  51)    143.7985         0.001570   
    484. D(O  45,H  52,O   6,C   4)     25.7617         0.001570   
    485. D(H  25,O  53,H  48,O  41)     91.8042         0.346481   
    486. D(H  54,O  53,H  48,H  36)    -48.7183         0.346481   
    487. D(H  54,O  53,H  48,H  47)     20.8051         0.346481   
    488. D(H  54,O  53,H  48,O  41)     -2.5270         0.346481   
    489. D(H  54,O  53,H  25,H  46)    -37.8089         0.001632   
    490. D(H  54,O  53,H  25,O  18)      7.8497         0.001632   
    491. D(H  48,O  53,H  25,H  46)   -141.1308         0.001632   
    492. D(H  48,O  53,H  25,H  54)   -103.3218         0.001632   
    493. D(H  25,O  53,H  48,H  47)    115.1363         0.346481   
    494. D(H  48,O  53,H  25,O  18)    -95.4722         0.001632   
    495. D(H  25,H  54,O   6,H  52)     59.3117         0.001656   
    496. D(H  25,H  54,O   6,H  51)    128.1311         0.001656   
    497. D(H  25,H  54,O   6,C   4)    -44.2023         0.001656   
    498. D(O  53,H  54,O   6,H  56)    -81.3486         0.001656   
    499. D(O  53,H  54,O   6,H  52)    133.2095         0.001656   
    500. D(O  53,H  54,O   6,H  51)   -157.9711         0.001656   
    501. D(O  53,H  54,H  25,O  18)   -175.4922         0.001522   
    502. D(O  53,H  54,O   6,C   4)     29.6955         0.001656   
    503. D(H  25,H  54,O  53,H  48)    115.9634         0.319979   
    504. D(O   6,H  54,O  53,H  25)    -78.3938         0.319979   
    505. D(O   6,H  54,O  53,H  48)     37.5696         0.319979   
    506. D(O   6,H  54,H  25,H  46)    -47.7152         0.001522   
    507. D(O   6,H  54,H  25,O  53)    169.0920         0.001522   
    508. D(O   6,H  54,H  25,O  18)     -6.4002         0.001522   
    509. D(O  53,H  54,H  25,H  46)    143.1928         0.001522   
    510. D(H  57,O  55,H  47,H  56)   -113.3515         0.001670   
    511. D(H  57,O  55,H  47,H  48)   -165.3175         0.001670   
    512. D(H  57,O  55,H  47,O  41)    177.4545         0.001670   
    513. D(H  56,O  55,H  47,H  48)    -51.9660         0.001670   
    514. D(H  56,O  55,H  47,O  41)    -69.1940         0.001670   
    515. D(H  47,H  56,O  55,H  57)    124.2698         0.326117   
    516. D(O   6,H  56,O  55,H  47)     18.3808         0.326117   
    517. D(O   6,H  56,O  55,H  57)    142.6506         0.326117   
    518. D(O   6,H  56,H  47,H  48)    -45.3662         0.001509   
    519. D(O   6,H  56,H  47,O  41)    -25.3848         0.001509   
    520. D(O  55,H  56,H  47,H  48)    129.5625         0.001509   
    521. D(O  55,H  56,H  47,O  41)    149.5439         0.001509   
    522. D(H  47,H  56,O   6,H  54)     48.3320         0.001693   
    523. D(H  47,H  56,O   6,H  51)    173.1532         0.001693   
    524. D(H  47,H  56,O   6,C   4)    -67.3304         0.001693   
    525. D(O   6,H  56,H  47,O  55)   -174.9287         0.001509   
    526. D(O  55,H  56,O   6,H  52)     89.5362         0.001693   
    527. D(O  55,H  56,O   6,H  54)     32.2509         0.001693   
    528. D(O  55,H  56,O   6,H  51)    157.0721         0.001693   
    529. D(O  55,H  56,O   6,C   4)    -83.4115         0.001693   
    -----------------------------------------------------------------

Number of atoms                         .... 58
Number of degrees of freedom            .... 529


         *************************************************************
         *                GEOMETRY OPTIMIZATION CYCLE   1            *
         *************************************************************
---------------------------------
CARTESIAN COORDINATES (ANGSTROEM)
---------------------------------
  N      1.246384   -0.210889    0.467138
  C      2.011194   -0.420359   -0.799333
  C      1.606152    0.582866   -1.865991
  C      2.493055    0.467325   -3.108772
  C      3.895511    1.022086   -2.901492
  O      3.995724    2.200715   -2.468523
  O      4.893042    0.294416   -3.185782
  H      1.596421    0.604418    0.995538
  H      0.238980   -0.069476    0.279645
  H      1.814475   -1.438968   -1.130825
  H      3.066909   -0.344978   -0.546609
  H      1.662928    1.597159   -1.465668
  H      0.566953    0.400467   -2.147043
  H      2.546938   -0.565253   -3.450793
  H      2.050241    1.056061   -3.915939
  H      1.366806   -1.017839    1.093484
  O      4.370483    2.540771    0.288594
  H      5.525192    3.186043   -2.748929
  O      6.426620    3.528729   -2.942118
  H      3.560926    2.435491    0.817219
  O      1.948246    4.029509   -2.988683
  H      2.658734    3.377069   -2.809398
  H      4.113680    2.439756   -0.648834
  O      2.461168    1.704506    2.259107
  H     -1.510936    0.726061    1.908176
  H      6.977417    2.877502   -2.474438
  H      1.901729    2.084867    2.948412
  O     -1.385058    0.847859    2.865241
  H      1.390032    3.610808   -3.657314
  H     -0.695290    1.518984    2.937161
  H      3.170749    1.245323    2.727805
  O     -1.580863    0.303331    0.043787
  H     -2.176516   -0.418775   -0.185056
  H     -1.788795    1.018946   -0.572998
  O      3.652730    2.344608   -6.412553
  H      3.204717    1.523826   -6.199578
  H      5.409189    1.067134    0.518967
  H      4.549491    2.247545   -6.028289
  H      0.230021   -2.781114    2.637567
  O     -0.704622   -3.023896    2.797922
  H      2.529356   -1.955172    3.039011
  O      6.061115    0.333173    0.543249
  H      4.071492   -1.309344   -5.819798
  H     -0.968735   -3.502826    2.000216
  O      2.010934   -2.304031    2.297283
  O      6.183674    1.929041   -5.262226
  H      6.361860    2.619455   -4.591393
  H      5.643825   -0.406336    0.059348
  H      7.056037    0.876851   -0.943668
  O      4.678850   -1.681354   -5.168475
  H      2.560900   -2.987115    1.879999
  H      4.725211   -1.008010   -4.460323
  H      5.896450    1.178654   -4.714311
  O      7.340601    1.078103   -1.859552
  H      6.579244    0.772364   -2.393911
  O      5.316029   -1.749342   -1.246133
  H      5.092616   -1.172313   -2.002351
  H      4.560532   -2.340594   -1.145270

----------------------------
CARTESIAN COORDINATES (A.U.)
----------------------------
  NO LB      ZA    FRAG     MASS         X           Y           Z
   0 N     7.0000    0    14.007    2.355324   -0.398522    0.882763
   1 C     6.0000    0    12.011    3.800605   -0.794364   -1.510521
   2 C     6.0000    0    12.011    3.035188    1.101458   -3.526212
   3 C     6.0000    0    12.011    4.711190    0.883115   -5.874727
   4 C     6.0000    0    12.011    7.361450    1.931464   -5.483025
   5 O     8.0000    0    15.999    7.550823    4.158749   -4.664833
   6 O     8.0000    0    15.999    9.246510    0.556366   -6.020256
   7 H     1.0000    0     1.008    3.016799    1.142185    1.881294
   8 H     1.0000    0     1.008    0.451607   -0.131291    0.528452
   9 H     1.0000    0     1.008    3.428861   -2.719256   -2.136950
  10 H     1.0000    0     1.008    5.795618   -0.651914   -1.032941
  11 H     1.0000    0     1.008    3.142479    3.018194   -2.769711
  12 H     1.0000    0     1.008    1.071386    0.756773   -4.057324
  13 H     1.0000    0     1.008    4.813015   -1.068174   -6.521054
  14 H     1.0000    0     1.008    3.874394    1.995665   -7.400053
  15 H     1.0000    0     1.008    2.582890   -1.923437    2.066385
  16 O     8.0000    0    15.999    8.259017    4.801362    0.545363
  17 H     1.0000    0     1.008   10.441100    6.020748   -5.194723
  18 O     8.0000    0    15.999   12.144552    6.668332   -5.559798
  19 H     1.0000    0     1.008    6.729174    4.602411    1.544320
  20 O     8.0000    0    15.999    3.681651    7.614669   -5.647792
  21 H     1.0000    0     1.008    5.024278    6.381736   -5.308993
  22 H     1.0000    0     1.008    7.773729    4.610470   -1.226119
  23 O     8.0000    0    15.999    4.650934    3.221050    4.269093
  24 H     1.0000    0     1.008   -2.855256    1.372056    3.605929
  25 H     1.0000    0     1.008   13.185408    5.437692   -4.676009
  26 H     1.0000    0     1.008    3.593748    3.939828    5.571691
  27 O     8.0000    0    15.999   -2.617381    1.602222    5.414521
  28 H     1.0000    0     1.008    2.626780    6.823438   -6.911322
  29 H     1.0000    0     1.008   -1.313908    2.870463    5.550430
  30 H     1.0000    0     1.008    5.991847    2.353320    5.154805
  31 O     8.0000    0    15.999   -2.987398    0.573213    0.082746
  32 H     1.0000    0     1.008   -4.113019   -0.791370   -0.349704
  33 H     1.0000    0     1.008   -3.380332    1.925529   -1.082809
  34 O     8.0000    0    15.999    6.902658    4.430667  -12.117970
  35 H     1.0000    0     1.008    6.056038    2.879613  -11.715505
  36 H     1.0000    0     1.008   10.221885    2.016590    0.980705
  37 H     1.0000    0     1.008    8.597292    4.247245  -11.391815
  38 H     1.0000    0     1.008    0.434676   -5.255543    4.984280
  39 O     8.0000    0    15.999   -1.331542   -5.714335    5.287307
  40 H     1.0000    0     1.008    4.779790   -3.694739    5.742899
  41 O     8.0000    0    15.999   11.453848    0.629605    1.026593
  42 H     1.0000    0     1.008    7.694005   -2.474301  -10.997824
  43 H     1.0000    0     1.008   -1.830644   -6.619382    3.779861
  44 O     8.0000    0    15.999    3.800115   -4.353988    4.341235
  45 O     8.0000    0    15.999   11.685450    3.645359   -9.944165
  46 H     1.0000    0     1.008   12.022174    4.950053   -8.676475
  47 H     1.0000    0     1.008   10.665284   -0.767865    0.112151
  48 H     1.0000    0     1.008   13.333977    1.657009   -1.783273
  49 O     8.0000    0    15.999    8.841746   -3.177298   -9.767002
  50 H     1.0000    0     1.008    4.839399   -5.644829    3.552684
  51 H     1.0000    0     1.008    8.929354   -1.904864   -8.428789
  52 H     1.0000    0     1.008   11.142675    2.227334   -8.908756
  53 O     8.0000    0    15.999   13.871726    2.037320   -3.514043
  54 H     1.0000    0     1.008   12.432969    1.459556   -4.523837
  55 O     8.0000    0    15.999   10.045839   -3.305777   -2.354850
  56 H     1.0000    0     1.008    9.623650   -2.215351   -3.783896
  57 H     1.0000    0     1.008    8.618157   -4.423081   -2.164246

--------------------------------
INTERNAL COORDINATES (ANGSTROEM)
--------------------------------
 N      0   0   0     0.000000000000     0.00000000     0.00000000
 C      1   0   0     1.494242782257     0.00000000     0.00000000
 C      2   1   0     1.519302011154   111.47106019     0.00000000
 C      3   2   1     1.531159529780   111.44404256   173.83432511
 C      4   3   2     1.522370248448   113.30339777   286.66805534
 O      5   4   3     1.259630822343   117.45577794   306.60011596
 O      5   4   3     1.267040974421   119.04179413   127.55706139
 H      1   2   3     1.032694649581   111.76871464   283.89028718
 H      1   2   3     1.034414416764   111.34669050    45.23239422
 H      2   1   3     1.089104596283   107.25564626   238.50304193
 H      2   1   3     1.088157505547   106.85909644   122.77464936
 H      3   2   1     1.091912322867   110.00616127    51.89930348
 H      3   2   1     1.091877003696   108.91362974   294.43763043
 H      4   3   2     1.089081626160   110.79967652    50.91428346
 H      4   3   2     1.092800715158   108.91377587   168.82641170
 H      1   2   3     1.028581093942   110.25604583   166.81819828
 O      6   5   4     2.803172888212   117.53079933    96.43355621
 H      6   5   4     1.840861576418   120.96905155   202.59670110
 O     18   6   5     0.983528514412   167.93324876   343.40750033
 H     17   6   5     0.972580176695   114.21640690   282.15484924
 O      6   5   4     2.794140050066   119.34949991   332.79069878
 H     21   6   5     0.981128800637     0.80193993    16.16858714
 H     17   6   5     0.977201799592     7.60208120   264.72053693
 O      8   1   2     1.885361451793   163.54651127   256.94869023
 H      9   1   2     2.519365282699   127.04575880   191.54582128
 H     19  18   6     0.972727724950   101.02674576   316.22626014
 H     24   8   1     0.965809635600   116.25976755   257.39165435
 O     25   9   1     0.972961622229   125.83904349   351.49526822
 H     21   6   5     0.966427325162   105.57431320   347.82105656
 H     28  25   9     0.965070197268   104.64503470    61.29471111
 H     24   8   1     0.966453257646   112.61598119    19.20686795
 O      9   1   2     1.872550142987   175.22070750   223.98066877
 H     32   9   1     0.963643496042   118.78013271   210.66968374
 H     32   9   1     0.967348648038   115.88018148    83.15497741
 O     15   4   3     3.234409701834   125.73257957   154.67663066
 H     35  15   4     0.959039690669    41.94234278    89.85030411
 H     17   6   5     1.817577636652    95.89529553    35.61529197
 H     35  15   4     0.980439182356    96.38428445   344.77121258
 H     16   1   2     2.604920914174   147.23630326   227.99742968
 O     39  16   1     0.978883749116   132.97370586     9.37591682
 H     16   1   2     2.452588630017   146.96865111    99.66863820
 O     37  17   6     0.981985870163   171.30993947    58.23193558
 H     14   4   3     2.913780920130   121.55636527   178.77529868
 H     40  39  16     0.967194320648   104.38490405    73.28149591
 O     41  16   1     0.969858250081    43.73306402   197.34563093
 O     38  35  15     1.832717214743   175.27368628    41.92980658
 H     46  38  35     0.978999301620   109.03534020   238.94898188
 H     42  37  17     0.977325988868   105.65517954   254.05277223
 H     42  37  48     1.869860390136    96.67621250    95.08918569
 O     43  14   4     0.965140869416    83.05121636   107.04659052
 H     45  41  16     0.971179972719   106.19453730   126.82686306
 H     50  43  14     0.978273750098   104.65678259   317.57558394
 H     46  38  35     0.972516255096    96.09880512   344.15208649
 O     49  42  37     0.979960764377   163.22133464   289.37860411
 H     54  49  42     0.979123175955   102.71730408   357.47300881
 O     48  42  37     1.901418619717   161.44180619   117.32454550
 H     56  48  42     0.977108488091    98.83992189   290.80597784
 H     56  48  42     0.964638305629   119.74558591   177.45447176

---------------------------
INTERNAL COORDINATES (A.U.)
---------------------------
 N      0   0   0     0.000000000000     0.00000000     0.00000000
 C      1   0   0     2.823709636054     0.00000000     0.00000000
 C      2   1   0     2.871064715798   111.47106019     0.00000000
 C      3   2   1     2.893472178627   111.44404256   173.83432511
 C      4   3   2     2.876862843996   113.30339777   286.66805534
 O      5   4   3     2.380357284074   117.45577794   306.60011596
 O      5   4   3     2.394360442113   119.04179413   127.55706139
 H      1   2   3     1.951510067673   111.76871464   283.89028718
 H      1   2   3     1.954759956664   111.34669050    45.23239422
 H      2   1   3     2.058109418170   107.25564626   238.50304193
 H      2   1   3     2.056319676054   106.85909644   122.77464936
 H      3   2   1     2.063415252472   110.00616127    51.89930348
 H      3   2   1     2.063348508912   108.91362974   294.43763043
 H      4   3   2     2.058066010929   110.79967652    50.91428346
 H      4   3   2     2.065094070602   108.91377587   168.82641170
 H      1   2   3     1.943736574079   110.25604583   166.81819828
 O      6   5   4     5.297229064754   117.53079933    96.43355621
 H      6   5   4     3.478724229889   120.96905155   202.59670110
 O     18   6   5     1.858599537141   167.93324876   343.40750033
 H     17   6   5     1.837910177234   114.21640690   282.15484924
 O      6   5   4     5.280159474446   119.34949991   332.79069878
 H     21   6   5     1.854064735306     0.80193993    16.16858714
 H     17   6   5     1.846643778804     7.60208120   264.72053693
 O      8   1   2     3.562816807341   163.54651127   256.94869023
 H      9   1   2     4.760910415610   127.04575880   191.54582128
 H     19  18   6     1.838189003027   101.02674576   316.22626014
 H     24   8   1     1.825115708786   116.25976755   257.39165435
 O     25   9   1     1.838631004828   125.83904349   351.49526822
 H     21   6   5     1.826282972895   105.57431320   347.82105656
 H     28  25   9     1.823718372845   104.64503470    61.29471111
 H     24   8   1     1.826331978188   112.61598119    19.20686795
 O      9   1   2     3.538606942281   175.22070750   223.98066877
 H     32   9   1     1.821022298254   118.78013271   210.66968374
 H     32   9   1     1.828024020811   115.88018148    83.15497741
 O     15   4   3     6.112148541365   125.73257957   154.67663066
 H     35  15   4     1.812322366925    41.94234278    89.85030411
 H     17   6   5     3.434723960411    95.89529553    35.61529197
 H     35  15   4     1.852761545619    96.38428445   344.77121258
 H     16   1   2     4.922587128313   147.23630326   227.99742968
 O     39  16   1     1.849822202776   132.97370586     9.37591682
 H     16   1   2     4.634720829902   146.96865111    99.66863820
 O     37  17   6     1.855684361989   171.30993947    58.23193558
 H     14   4   3     5.506247953291   121.55636527   178.77529868
 H     40  39  16     1.827732384309   104.38490405    73.28149591
 O     41  16   1     1.832766481377    43.73306402   197.34563093
 O     38  35  15     3.463333616787   175.27368628    41.92980658
 H     46  38  35     1.850040565363   109.03534020   238.94898188
 H     42  37  17     1.846878462525   105.65517954   254.05277223
 H     42  37  48     3.533524046025    96.67621250    95.08918569
 O     43  14   4     1.823851923852    83.05121636   107.04659052
 H     45  41  16     1.835264175187   106.19453730   126.82686306
 H     50  43  14     1.848669471690   104.65678259   317.57558394
 H     46  38  35     1.837789382918    96.09880512   344.15208649
 O     49  42  37     1.851857466660   163.22133464   289.37860411
 H     54  49  42     1.850274653930   102.71730408   357.47300881
 O     48  42  37     3.593160457204   161.44180619   117.32454550
 H     56  48  42     1.846467445623    98.83992189   290.80597784
 H     56  48  42     1.822902215929   119.74558591   177.45447176

---------------------
BASIS SET INFORMATION
---------------------
There are 4 groups of distinct atoms

 Group   1 Type N   : 11s6p2d1f contracted to 5s3p2d1f pattern {62111/411/11/1}
 Group   2 Type C   : 11s6p2d1f contracted to 5s3p2d1f pattern {62111/411/11/1}
 Group   3 Type O   : 11s6p2d1f contracted to 5s3p2d1f pattern {62111/411/11/1}
 Group   4 Type H   : 5s1p contracted to 3s1p pattern {311/1}

Atom   0N    basis set group =>   1
Atom   1C    basis set group =>   2
Atom   2C    basis set group =>   2
Atom   3C    basis set group =>   2
Atom   4C    basis set group =>   2
Atom   5O    basis set group =>   3
Atom   6O    basis set group =>   3
Atom   7H    basis set group =>   4
Atom   8H    basis set group =>   4
Atom   9H    basis set group =>   4
Atom  10H    basis set group =>   4
Atom  11H    basis set group =>   4
Atom  12H    basis set group =>   4
Atom  13H    basis set group =>   4
Atom  14H    basis set group =>   4
Atom  15H    basis set group =>   4
Atom  16O    basis set group =>   3
Atom  17H    basis set group =>   4
Atom  18O    basis set group =>   3
Atom  19H    basis set group =>   4
Atom  20O    basis set group =>   3
Atom  21H    basis set group =>   4
Atom  22H    basis set group =>   4
Atom  23O    basis set group =>   3
Atom  24H    basis set group =>   4
Atom  25H    basis set group =>   4
Atom  26H    basis set group =>   4
Atom  27O    basis set group =>   3
Atom  28H    basis set group =>   4
Atom  29H    basis set group =>   4
Atom  30H    basis set group =>   4
Atom  31O    basis set group =>   3
Atom  32H    basis set group =>   4
Atom  33H    basis set group =>   4
Atom  34O    basis set group =>   3
Atom  35H    basis set group =>   4
Atom  36H    basis set group =>   4
Atom  37H    basis set group =>   4
Atom  38H    basis set group =>   4
Atom  39O    basis set group =>   3
Atom  40H    basis set group =>   4
Atom  41O    basis set group =>   3
Atom  42H    basis set group =>   4
Atom  43H    basis set group =>   4
Atom  44O    basis set group =>   3
Atom  45O    basis set group =>   3
Atom  46H    basis set group =>   4
Atom  47H    basis set group =>   4
Atom  48H    basis set group =>   4
Atom  49O    basis set group =>   3
Atom  50H    basis set group =>   4
Atom  51H    basis set group =>   4
Atom  52H    basis set group =>   4
Atom  53O    basis set group =>   3
Atom  54H    basis set group =>   4
Atom  55O    basis set group =>   3
Atom  56H    basis set group =>   4
Atom  57H    basis set group =>   4
---------------------------------
AUXILIARY/J BASIS SET INFORMATION
---------------------------------
There are 4 groups of distinct atoms

 Group   1 Type N   : 12s5p4d2f1g contracted to 6s4p3d1f1g pattern {711111/2111/211/2/1}
 Group   2 Type C   : 12s5p4d2f1g contracted to 6s4p3d1f1g pattern {711111/2111/211/2/1}
 Group   3 Type O   : 12s5p4d2f1g contracted to 6s4p3d1f1g pattern {711111/2111/211/2/1}
 Group   4 Type H   : 5s2p1d contracted to 3s1p1d pattern {311/2/1}

Atom   0N    basis set group =>   1
Atom   1C    basis set group =>   2
Atom   2C    basis set group =>   2
Atom   3C    basis set group =>   2
Atom   4C    basis set group =>   2
Atom   5O    basis set group =>   3
Atom   6O    basis set group =>   3
Atom   7H    basis set group =>   4
Atom   8H    basis set group =>   4
Atom   9H    basis set group =>   4
Atom  10H    basis set group =>   4
Atom  11H    basis set group =>   4
Atom  12H    basis set group =>   4
Atom  13H    basis set group =>   4
Atom  14H    basis set group =>   4
Atom  15H    basis set group =>   4
Atom  16O    basis set group =>   3
Atom  17H    basis set group =>   4
Atom  18O    basis set group =>   3
Atom  19H    basis set group =>   4
Atom  20O    basis set group =>   3
Atom  21H    basis set group =>   4
Atom  22H    basis set group =>   4
Atom  23O    basis set group =>   3
Atom  24H    basis set group =>   4
Atom  25H    basis set group =>   4
Atom  26H    basis set group =>   4
Atom  27O    basis set group =>   3
Atom  28H    basis set group =>   4
Atom  29H    basis set group =>   4
Atom  30H    basis set group =>   4
Atom  31O    basis set group =>   3
Atom  32H    basis set group =>   4
Atom  33H    basis set group =>   4
Atom  34O    basis set group =>   3
Atom  35H    basis set group =>   4
Atom  36H    basis set group =>   4
Atom  37H    basis set group =>   4
Atom  38H    basis set group =>   4
Atom  39O    basis set group =>   3
Atom  40H    basis set group =>   4
Atom  41O    basis set group =>   3
Atom  42H    basis set group =>   4
Atom  43H    basis set group =>   4
Atom  44O    basis set group =>   3
Atom  45O    basis set group =>   3
Atom  46H    basis set group =>   4
Atom  47H    basis set group =>   4
Atom  48H    basis set group =>   4
Atom  49O    basis set group =>   3
Atom  50H    basis set group =>   4
Atom  51H    basis set group =>   4
Atom  52H    basis set group =>   4
Atom  53O    basis set group =>   3
Atom  54H    basis set group =>   4
Atom  55O    basis set group =>   3
Atom  56H    basis set group =>   4
Atom  57H    basis set group =>   4
--------------------------------------------------------------------------
WARNING: There was an error initializing an OpenFabrics device.

  Local host:   ga03
  Local device: mlx5_0
--------------------------------------------------------------------------


           ************************************************************
           *        Program running with 10 parallel MPI-processes    *
           *              working on a common directory               *
           ************************************************************
------------------------------------------------------------------------------
                             ORCA STARTUP CALCULATIONS
                           -- RI-GTO INTEGRALS CHOSEN --
------------------------------------------------------------------------------
------------------------------------------------------------------------------
                   ___                                                        
                  /   \      - P O W E R E D   B Y -                         
                 /     \                                                     
                 |  |  |   _    _      __       _____    __    __             
                 |  |  |  | |  | |    /  \     |  _  \  |  |  /  |          
                  \  \/   | |  | |   /    \    | | | |  |  | /  /          
                 / \  \   | |__| |  /  /\  \   | |_| |  |  |/  /          
                |  |  |   |  __  | /  /__\  \  |    /   |      \           
                |  |  |   | |  | | |   __   |  |    \   |  |\   \          
                \     /   | |  | | |  |  |  |  | |\  \  |  | \   \       
                 \___/    |_|  |_| |__|  |__|  |_| \__\ |__|  \__/        
                                                                              
                      - O R C A' S   B I G   F R I E N D -                    
                                      &                                       
                       - I N T E G R A L  F E E D E R -                       
                                                                              
 v1 FN, 2020, v2 2021, v3 2022-2024                                           
------------------------------------------------------------------------------


----------------------
SHARK INTEGRAL PACKAGE
----------------------

Number of atoms                             ...     58
Number of basis functions                   ...    873
Number of shells                            ...    379
Maximum angular momentum                    ...      3
Integral batch strategy                     ... SHARK/LIBINT Hybrid
RI-J (if used) integral strategy            ... SPLIT-RIJ (Revised 2003 algorithm where possible)
Printlevel                                  ...      1
Contraction scheme used                     ... SEGMENTED contraction
Prescreening option                         ... SCHWARTZ
   Thresh                                   ... 2.500e-11
   Tcut                                     ... 2.500e-12
   Tpresel                                  ... 2.500e-12 
Coulomb Range Separation                    ... NOT USED
Exchange Range Separation                   ... NOT USED
Multipole approximations                    ... NOT USED
Finite Nucleus Model                        ... NOT USED
CABS basis                                  ... NOT available
Auxiliary Coulomb fitting basis             ... AVAILABLE
   # of basis functions in Aux-J            ...   1436
   # of shells in Aux-J                     ...    500
   Maximum angular momentum in Aux-J        ...      4
Auxiliary J/K fitting basis                 ... NOT available
[...]
 H      1   2   3     1.034372655553   110.89609949   174.29597964
 O      6   5   4     2.818366478332   117.13638154    94.91032730
 H      6   5   4     1.846341717303   122.03928916   200.81748360
 O     18   6   5     0.978806108135   165.93610614   346.25206631
 H     17   6   5     0.974255064224   111.36664707   277.56625653
 O      6   5   4     2.770757063819   124.28171959   332.34840976
 H     21   6   5     0.980234706180     2.74704988    39.47211331
 H     17   6   5     0.975709689126     6.34559706   263.81617990
 O      8   1   2     1.859478560200   170.65931951   267.85783702
 H      9   1   2     2.490985053445   109.21868821   170.08650166
 H     19  18   6     0.980190751258   101.33901809   316.20789630
 H     24   8   1     0.970064865135   124.13953560   216.49667601
 O     25   9   1     0.975702461042   126.54567447     2.59425502
 H     21   6   5     0.963216114287   106.15929806   339.24474466
 H     28  25   9     0.966310794388   104.68524399    65.85764487
 H     24   8   1     0.970523270840   100.94222588   332.95104925
 O      9   1   2     1.824791390665   157.62301099   156.43452868
 H     32   9   1     0.970980722704   112.44075368   263.72433274
 H     32   9   1     0.967508532444   119.90869422   137.49493453
 O     15   4   3     3.295692877458   126.00853081   149.34578850
 H     35  15   4     0.966886959468    32.57425378   107.00430677
 H     17   6   5     1.819064515369    96.15985510    37.72793937
 H     35  15   4     0.981326487588    94.40924503   354.99043976
 H     16   1   2     2.469207827777   122.13265448   268.62407036
 O     39  16   1     0.982313387382   115.42204621   359.72304959
 H     16   1   2     2.367345505223   157.40066959   170.56359081
 O     37  17   6     0.983750720211   171.42342152    57.42366690
 H     14   4   3     2.967290465246   121.28877876   181.61349473
 H     40  39  16     0.973675100682   104.17884103    66.54915168
 O     41  16   1     0.973575820213    47.52376460   163.74312029
 O     38  35  15     1.828323882921   177.54650724   328.03606391
 H     46  38  35     0.982884122017   106.80609635   307.80566154
 H     42  37  17     0.978081882453   105.87907758   255.55623123
 H     42  37  48     1.879356610820    98.16599936    91.79525718
 O     43  14   4     0.964285230722    77.82416945   109.99068087
 H     45  41  16     0.971249871519   106.41383493   132.64389450
 H     50  43  14     0.979430634239   104.67759867   314.59345516
 H     46  38  35     0.971300436949    97.28774896    53.15596976
 O     49  42  37     0.981054430573   163.16707125   291.98353414
 H     54  49  42     0.975149484763   103.26268191   357.75469916
 O     48  42  37     1.894229829512   163.12863285   115.82895403
 H     56  48  42     0.975814392247   100.21151643   291.12788542
 H     56  48  42     0.964758812058   119.19904648   177.34610522

---------------------------
INTERNAL COORDINATES (A.U.)
---------------------------
 N      0   0   0     0.000000000000     0.00000000     0.00000000
 C      1   0   0     2.820081095391     0.00000000     0.00000000
 C      2   1   0     2.874751261606   111.16318727     0.00000000
 C      3   2   1     2.899130018714   112.02129888   177.08149494
 C      4   3   2     2.877116185936   113.11759552   291.08717949
 O      5   4   3     2.385757082117   117.18469894   304.77410744
 O      5   4   3     2.396350424735   119.39113669   125.71638121
 H      1   2   3     1.947871169800   111.04363568   292.95754035
 H      1   2   3     1.946939082195   112.01782709    54.74898666
 H      2   1   3     2.059240064165   107.40086109   238.36981649
 H      2   1   3     2.059005057107   106.65851337   122.69769279
 H      3   2   1     2.061297359874   110.14541174    55.46294770
 H      3   2   1     2.064024102488   108.71850765   297.43785626
 H      4   3   2     2.060155668117   110.69322693    55.84763144
 H      4   3   2     2.067471638749   108.63815177   173.75668932
 H      1   2   3     1.954681039412   110.89609949   174.29597964
 O      6   5   4     5.325940789072   117.13638154    94.91032730
 H      6   5   4     3.489080195337   122.03928916   200.81748360
 O     18   6   5     1.849675482584   165.93610614   346.25206631
 H     17   6   5     1.841075255969   111.36664707   277.56625653
 O      6   5   4     5.235972034246   124.28171959   332.34840976
 H     21   6   5     1.852375141645     2.74704988    39.47211331
 H     17   6   5     1.843824098661     6.34559706   263.81617990
 O      8   1   2     3.513905230677   170.65931951   267.85783702
 H      9   1   2     4.707279554702   109.21868821   170.08650166
 H     19  18   6     1.852292078881   101.33901809   316.20789630
 H     24   8   1     1.833156927244   124.13953560   216.49667601
 O     25   9   1     1.843810439562   126.54567447     2.59425502
 H     21   6   5     1.820214663783   106.15929806   339.24474466
 H     28  25   9     1.826062761646   104.68524399    65.85764487
 H     24   8   1     1.834023188486   100.94222588   332.95104925
 O      9   1   2     3.448355979893   157.62301099   156.43452868
 H     32   9   1     1.834887647228   112.44075368   263.72433274
 H     32   9   1     1.828326158550   119.90869422   137.49493453
 O     15   4   3     6.227956959910   126.00853081   149.34578850
 H     35  15   4     1.827151555854    32.57425378   107.00430677
 H     17   6   5     3.437533753982    96.15985510    37.72793937
 H     35  15   4     1.854438309504    94.40924503   354.99043976
 H     16   1   2     4.666126562233   122.13265448   268.62407036
 O     39  16   1     1.856303279837   115.42204621   359.72304959
 H     16   1   2     4.473634669241   157.40066959   170.56359081
 O     37  17   6     1.859019445247   171.42342152    57.42366690
 H     14   4   3     5.607366339110   121.28877876   181.61349473
 H     40  39  16     1.839979283708   104.17884103    66.54915168
 O     41  16   1     1.839791670811    47.52376460   163.74312029
 O     38  35  15     3.455031422829   177.54650724   328.03606391
 H     46  38  35     1.857381811991   106.80609635   307.80566154
 H     42  37  17     1.848306894387   105.87907758   255.55623123
 H     42  37  48     3.551469302424    98.16599936    91.79525718
 O     43  14   4     1.822235001049    77.82416945   109.99068087
 H     45  41  16     1.835396264778   106.41383493   132.64389450
 H     50  43  14     1.850855665885   104.67759867   314.59345516
 H     46  38  35     1.835491819592    97.28774896    53.15596976
 O     49  42  37     1.853924196253   163.16707125   291.98353414
 H     54  49  42     1.842765465836   103.26268191   357.75469916
 O     48  42  37     3.579575612481   163.12863285   115.82895403
 H     56  48  42     1.844021958886   100.21151643   291.12788542
 H     56  48  42     1.823129940077   119.19904648   177.34610522

--------------------------------------------------------------------------
WARNING: There was an error initializing an OpenFabrics device.

  Local host:   ga03
  Local device: mlx5_0
--------------------------------------------------------------------------


           ************************************************************
           *        Program running with 10 parallel MPI-processes    *
           *              working on a common directory               *
           ************************************************************
------------------------------------------------------------------------------
                   ___                                                        
                  /   \      - P O W E R E D   B Y -                         
                 /     \                                                     
                 |  |  |   _    _      __       _____    __    __             
                 |  |  |  | |  | |    /  \     |  _  \  |  |  /  |          
                  \  \/   | |  | |   /    \    | | | |  |  | /  /          
                 / \  \   | |__| |  /  /\  \   | |_| |  |  |/  /          
                |  |  |   |  __  | /  /__\  \  |    /   |      \           
                |  |  |   | |  | | |   __   |  |    \   |  |\   \          
                \     /   | |  | | |  |  |  |  | |\  \  |  | \   \       
                 \___/    |_|  |_| |__|  |__|  |_| \__\ |__|  \__/        
                                                                              
                      - O R C A' S   B I G   F R I E N D -                    
                                      &                                       
                       - I N T E G R A L  F E E D E R -                       
                                                                              
 v1 FN, 2020, v2 2021, v3 2022-2024                                           
------------------------------------------------------------------------------


----------------------
SHARK INTEGRAL PACKAGE
----------------------

Number of atoms                             ...     58
Number of basis functions                   ...    873
Number of shells                            ...    379
Maximum angular momentum                    ...      3
Integral batch strategy                     ... SHARK/LIBINT Hybrid
RI-J (if used) integral strategy            ... SPLIT-RIJ (Revised 2003 algorithm where possible)
Printlevel                                  ...      1
Contraction scheme used                     ... SEGMENTED contraction
Prescreening option                         ... SCHWARTZ
   Thresh                                   ... 2.500e-11
   Tcut                                     ... 2.500e-12
   Tpresel                                  ... 2.500e-12 
Coulomb Range Separation                    ... NOT USED
Exchange Range Separation                   ... NOT USED
Multipole approximations                    ... NOT USED
Finite Nucleus Model                        ... NOT USED
CABS basis                                  ... NOT available
Auxiliary Coulomb fitting basis             ... AVAILABLE
   # of basis functions in Aux-J            ...   1436
   # of shells in Aux-J                     ...    500
   Maximum angular momentum in Aux-J        ...      4
Auxiliary J/K fitting basis                 ... NOT available
Auxiliary Correlation fitting basis         ... NOT available
Auxiliary 'external' fitting basis          ... NOT available

Checking pre-screening integrals            ... done (  0.0 sec) Dimension = 379
Check shell pair data                       ... done (  0.0 sec)
Shell pair information
Shell pair cut-off parameter TPreSel        ...   2.5e-12
Total number of shell pairs                 ...     72010
Shell pairs after pre-screening             ...     42808
Total number of primitive shell pairs       ...    206976
Primitive shell pairs kept                  ...     78827
          la=0 lb=0:  14714 shell pairs
          la=1 lb=0:  13332 shell pairs
          la=1 lb=1:   3132 shell pairs
          la=2 lb=0:   4986 shell pairs
          la=2 lb=1:   2299 shell pairs
          la=2 lb=2:    425 shell pairs
          la=3 lb=0:   2340 shell pairs
          la=3 lb=1:   1099 shell pairs
          la=3 lb=2:    387 shell pairs
          la=3 lb=3:     94 shell pairs

Calculating one electron integrals          ... done (  0.1 sec)
Calculating RI/J V-Matrix + Cholesky decomp.... done (  0.2 sec)
Calculating Nuclear repulsion               ... done (  0.0 sec) ENN=   2270.961325043288 Eh

Diagonalization of the overlap matrix:
Smallest eigenvalue                        ... 1.108e-04
Time for diagonalization                   ...    0.121 sec
Threshold for overlap eigenvalues          ... 1.000e-07
Number of eigenvalues below threshold      ... 0
Time for construction of square roots      ...    0.059 sec
Total time needed                          ...    0.187 sec

-------------------
DFT GRID GENERATION
-------------------

General Integration Accuracy     IntAcc      ... 4.388
Radial Grid Type                 RadialGrid  ... OptM3 with GC (2021)
Angular Grid (max. ang.)         AngularGrid ... 4 (Lebedev-302)
Angular grid pruning method      GridPruning ... 4 (adaptive)
Weight generation scheme         WeightScheme... mBecke (2022)
Basis function cutoff            BFCut       ... 1.0000e-11
Integration weight cutoff        WCut        ... 1.0000e-14
Partially contracted basis set               ... off
Rotationally invariant grid construction     ... off
Angular grids for H and He will be reduced by one unit

Total number of grid points                  ...   244516
Total number of batches                      ...     3850
Average number of points per batch           ...       63
Average number of grid points per atom       ...     4216

--------------------
COSX GRID GENERATION
--------------------

GRIDX 1
-------
General Integration Accuracy     IntAcc      ... 3.816
Radial Grid Type                 RadialGrid  ... OptM3 with GC (2021)
Angular Grid (max. ang.)         AngularGrid ... 1 (Lebedev-50)
Angular grid pruning method      GridPruning ... 4 (adaptive)
Weight generation scheme         WeightScheme... mBecke (2022)
Basis function cutoff            BFCut       ... 1.0000e-11
Integration weight cutoff        WCut        ... 1.0000e-14
Partially contracted basis set               ... on
Rotationally invariant grid construction     ... off
Angular grids for H and He will be reduced by one unit

Total number of grid points                  ...    31124
Total number of batches                      ...      267
Average number of points per batch           ...      116
Average number of grid points per atom       ...      537
UseSFitting                                  ... on

GRIDX 2
-------
General Integration Accuracy     IntAcc      ... 4.020
Radial Grid Type                 RadialGrid  ... OptM3 with GC (2021)
Angular Grid (max. ang.)         AngularGrid ... 2 (Lebedev-110)
Angular grid pruning method      GridPruning ... 4 (adaptive)
Weight generation scheme         WeightScheme... mBecke (2022)
Basis function cutoff            BFCut       ... 1.0000e-11
Integration weight cutoff        WCut        ... 1.0000e-14
Partially contracted basis set               ... on
Rotationally invariant grid construction     ... off
Angular grids for H and He will be reduced by one unit

Total number of grid points                  ...    64428
Total number of batches                      ...      534
Average number of points per batch           ...      120
Average number of grid points per atom       ...     1111
UseSFitting                                  ... on

GRIDX 3
-------
General Integration Accuracy     IntAcc      ... 4.338
Radial Grid Type                 RadialGrid  ... OptM3 with GC (2021)
Angular Grid (max. ang.)         AngularGrid ... 3 (Lebedev-194)
Angular grid pruning method      GridPruning ... 4 (adaptive)
Weight generation scheme         WeightScheme... mBecke (2022)
Basis function cutoff            BFCut       ... 1.0000e-11
Integration weight cutoff        WCut        ... 1.0000e-14
Partially contracted basis set               ... on
Rotationally invariant grid construction     ... off
Angular grids for H and He will be reduced by one unit

Total number of grid points                  ...   139421
Total number of batches                      ...     1119
Average number of points per batch           ...      124
Average number of grid points per atom       ...     2404
UseSFitting                                  ... on
Initializing property integral containers    ... done (  0.0 sec)

SHARK setup successfully completed in   3.4 seconds

Maximum memory used throughout the entire STARTUP-calculation: 104.8 MB
[ga03:3371808] 9 more processes have sent help message help-mpi-btl-openib.txt / error in device init
[ga03:3371808] Set MCA parameter "orte_base_help_aggregate" to 0 to see all help / error messages
--------------------------------------------------------------------------
WARNING: There was an error initializing an OpenFabrics device.

  Local host:   ga03
  Local device: mlx5_0
--------------------------------------------------------------------------


           ************************************************************
           *        Program running with 10 parallel MPI-processes    *
           *              working on a common directory               *
           ************************************************************
Occupation numbers will be reassigned to an Aufbau configuration
             **** ENERGY FILE WAS UPDATED (02_Aminobutyric-acid_zwitterion.en.tmp) ****
Finished Guess after   0.9 sec
Maximum memory used throughout the entire GUESS-calculation: 89.0 MB
[ga03:3371852] 9 more processes have sent help message help-mpi-btl-openib.txt / error in device init
[ga03:3371852] Set MCA parameter "orte_base_help_aggregate" to 0 to see all help / error messages
--------------------------------------------------------------------------
WARNING: There was an error initializing an OpenFabrics device.

  Local host:   ga03
  Local device: mlx5_0
--------------------------------------------------------------------------


           ************************************************************
           *        Program running with 10 parallel MPI-processes    *
           *              working on a common directory               *
           ************************************************************
--------------------
CPCM SOLVATION MODEL
--------------------
CPCM parameters:
  Epsilon                                         ...      80.1510
  Refrac                                          ...       1.3328
  Rsolv                                           ...       1.3000
  Surface type                                    ... GAUSSIAN VDW
  Discretization scheme                           ... Constant charge density
    Threshold for H atoms                         ...       5.0000 (charges/Ang^2)
    Threshold for non-H atoms                     ...       5.0000 (charges/Ang^2)
  Epsilon function type                           ...         CPCM
Solvent:                                          ... WATER
Radii:
  Scheme                                          ... Element-dependent radii
  Radius for N  used is    3.5149 Bohr (=   1.8600 Ang.)
  Radius for C  used is    3.8550 Bohr (=   2.0400 Ang.)
  Radius for O  used is    3.4469 Bohr (=   1.8240 Ang.)
  Radius for H  used is    2.4944 Bohr (=   1.3200 Ang.)
Calculating surface                               ...        done! (  0.0s)
Cavity surface points                             ...         4766
Cavity Volume                                     ...    3164.3519
Cavity Surface-area                               ...    1889.6870
Calculating surface distance matrix               ...        done! (  0.1s)
Performing Cholesky decomposition & store         ...        done! (  0.6s)
Overall time for CPCM initialization              ...                 0.7s

----------------------------------------D-I-I-S--------------------------------------------
Iteration    Energy (Eh)           Delta-E    RMSDP     MaxDP     DIISErr   Damp  Time(sec)
-------------------------------------------------------------------------------------------
               ***  Starting incremental Fock matrix formation  ***
[ga03:3371896] 9 more processes have sent help message help-mpi-btl-openib.txt / error in device init
[ga03:3371896] Set MCA parameter "orte_base_help_aggregate" to 0 to see all help / error messages
    1    -1433.2370865402990603     0.00e+00  4.21e-05  4.22e-03  2.56e-02  0.700   8.6
    2    -1433.2382115267878362    -1.12e-03  4.02e-05  4.07e-03  1.95e-02  0.700   4.1
                               ***Turning on AO-DIIS***
    3    -1433.2390747537097013    -8.63e-04  3.34e-05  3.28e-03  1.42e-02  0.700   3.8
    4    -1433.2397041606723178    -6.29e-04  8.47e-05  8.35e-03  1.02e-02  0.000   3.7
