37
 energy: -59.761867544171 gnorm: 0.188537929424 xtb: 6.7.1 (edcfbbe)
N            0.05814800000000       -0.92758300000000        1.46960700000000
C            0.21195900000000        0.51002000000000        1.25738900000000
C           -0.42029600000000        1.02660100000000       -0.05399500000000
C            0.23290900000000        0.51099500000000       -1.35178600000000
C           -0.12525300000000       -0.89643600000000       -1.75561800000000
O            0.43258500000000       -1.42088200000000       -2.86197900000000
O           -0.94795900000000       -1.55110300000000       -1.13717200000000
H            0.42854800000000       -1.16686800000000        2.41684100000000
H           -0.95187600000000       -1.19383100000000        1.43153800000000
H           -0.27873900000000        1.04478500000000        2.10014800000000
H            1.29199600000000        0.77262900000000        1.27882300000000
H           -0.26331200000000        2.12751800000000       -0.03828000000000
H           -1.51695700000000        0.85134800000000       -0.07337000000000
H            1.33463900000000        0.61768200000000       -1.26361400000000
H           -0.10456000000000        1.15854300000000       -2.18948000000000
H            0.61816600000000       -1.46341800000000        0.77094700000000
O            2.87860500000000       -2.47750400000000        4.03002900000000
H            3.19698100000000       -1.78589700000000        4.66321800000000
H            1.89618700000000       -2.35603500000000        4.00331800000000
O            3.11708600000000        2.62675600000000        1.06251600000000
H            3.79749100000000        2.40124300000000        0.37928500000000
H            2.88218600000000        3.57062200000000        0.87663600000000
O            2.43863400000000        2.53389500000000       -4.44418900000000
H            1.81850200000000        3.29794400000000       -4.33338700000000
H            3.18538600000000        2.72843800000000       -3.82360300000000
O            3.52339600000000        1.52878700000000        3.15922500000000
H            3.13305100000000        0.92311200000000        2.47996100000000
H            2.92209100000000        1.44462200000000        3.94150500000000
O            3.82661900000000       -0.52857000000000        0.37547100000000
H            3.84999400000000       -0.80784600000000        1.32524400000000
H            3.24695600000000        0.27425900000000        0.36713000000000
O            2.89764900000000       -3.21049900000000        1.48849200000000
H            2.99724700000000       -3.83651500000000        0.72770600000000
H            2.89971800000000       -3.79190100000000        2.29010300000000
O            2.96245300000000       -1.78899200000000       -3.85770500000000
H            2.55765700000000       -2.40623500000000       -4.51782700000000
H            3.07042800000000       -0.93612600000000       -4.34920700000000
37
 energy: -59.789023599300 gnorm: 0.093573074572 xtb: 6.7.1 (edcfbbe)
N            0.06415039123489       -0.92696531909074        1.46810273577569
C            0.21060935281243        0.52079649230310        1.25470749996348
C           -0.40899340599287        1.03213666951975       -0.04997229536908
C            0.23476964153575        0.51307529948598       -1.34502934247463
C           -0.14818242194132       -0.90004631376922       -1.76193670345625
O            0.39425327473559       -1.37265475416717       -2.83237524471885
O           -0.95484290714330       -1.56396721285757       -1.09105812400393
H            0.42620871534280       -1.18128577493944        2.39956457386901
H           -0.92965891402543       -1.20066982108563        1.40504168817804
H           -0.27807831503165        1.04601728103765        2.08534274394307
H            1.27600839723158        0.78196055332128        1.26583491418518
H           -0.27834878493962        2.12149866587036       -0.04168149909726
H           -1.48727984584580        0.83039153727198       -0.07233932245277
H            1.32728766790479        0.59613112852392       -1.28758157016723
H           -0.08861290764122        1.14915777656334       -2.18051092886609
H            0.60065573965326       -1.45905324799935        0.76591495334179
O            2.86845605909187       -2.46248363209749        4.04997345922107
H            3.19529319193137       -1.79526220893150        4.67374300549093
H            1.90285837985438       -2.35920226238710        4.03913747419032
O            3.05807564408693        2.62268364113437        0.97030394974856
H            3.82063665804195        2.43154020237368        0.38797352253458
H            2.90192256388425        3.58022308182269        0.86710559724975
O            2.43558355725227        2.54045786635842       -4.42963904851352
H            1.83156409082072        3.29605966412557       -4.33816488536326
H            3.18440228226865        2.74108313331199       -3.84379363909159
O            3.55031797116178        1.46686526149173        3.22136520569136
H            3.13895704140485        0.93331879248543        2.51619582540209
H            2.90917955973073        1.45163066904498        3.95382136196439
O            3.81809269418341       -0.51524779911286        0.37547980573578
H            3.85591753977919       -0.82184633606067        1.29968354824622
H            3.25579647210656        0.27854127160387        0.38611963637093
O            2.84677102267987       -3.22392593726271        1.46610460997711
H            3.00777408937954       -3.83230797778268        0.72726554751059
H            2.92338663674013       -3.77347383500748        2.26934628656354
O            3.03778137041804       -1.80715171832548       -3.88915538159824
H            2.54416374806464       -2.39052383226745       -4.49684179561107
H            3.05143874922883       -0.94394300450518       -4.34412816436984
37
 energy: -59.798891161650 gnorm: 0.032179470700 xtb: 6.7.1 (edcfbbe)
N            0.07507965905280       -0.92190919541159        1.45599862183004
C            0.21734887901247        0.53686759548185        1.25004943091870
C           -0.40634732508163        1.03603746412589       -0.04692535297919
C            0.23734203667547        0.51204613615577       -1.33368493776595
C           -0.14691376574755       -0.92252118628968       -1.75383073107500
O            0.32059257116017       -1.32710644482981       -2.82364709625578
O           -0.95451461976877       -1.56462296836314       -1.03166997542367
H            0.42860671474380       -1.19641329855101        2.37383919403871
H           -0.90650122637788       -1.20287663317738        1.35677523751552
H           -0.27723827421231        1.04493940204580        2.07474235062503
H            1.27335829232496        0.79446631106986        1.25263389855431
H           -0.30066973681495        2.11850686655042       -0.04428816525546
H           -1.46982847549030        0.79879229154378       -0.07591534569317
H            1.32417792111758        0.56298250629012       -1.29622602811749
H           -0.07467082352507        1.13562384053033       -2.17306596370675
H            0.58886185283496       -1.44692138813955        0.74196208140496
O            2.85658099484523       -2.44627138204251        4.07574640394449
H            3.20424284996865       -1.80397709937072        4.69338739254034
H            1.90136818966392       -2.37013378176628        4.09820912164069
O            3.05111872318555        2.62025931925213        0.92776031540346
H            3.81515047144520        2.43700834158050        0.38212010920309
H            2.88345034588822        3.55709578224133        0.85316477608244
O            2.43512085354233        2.54894719681260       -4.41905950737215
H            1.84057554450828        3.29725263876026       -4.34769862229520
H            3.19462307842092        2.75622703055415       -3.87083710524989
O            3.57702378356623        1.42360514214604        3.28173667078693
H            3.15538930605092        0.96016163213537        2.54542215582050
H            2.90537232431233        1.46496370891799        3.97211606367345
O            3.81035189808623       -0.49662915245924        0.37234076059793
H            3.86116785673887       -0.84382745250848        1.26995791136769
H            3.26912917065729        0.29614029365073        0.40640186546514
O            2.80772663109735       -3.22934583327025        1.43973708702576
H            2.99599027602520       -3.82392476430281        0.71617648095862
H            2.93247009069675       -3.74116883394744        2.24931344632524
O            3.06203143308095       -1.81223090525223       -3.90764514287832
H            2.55307374905799       -2.38997617067277       -4.47894752550751
H            3.05767374925710       -0.95850900948936       -4.34222987614793
37
 energy: -59.800847640635 gnorm: 0.095207089716 xtb: 6.7.1 (edcfbbe)
N            0.08779200811645       -0.91871420620143        1.43720028111458
C            0.22519190795475        0.54596420207177        1.24928871639765
C           -0.40915377996622        1.03563175959340       -0.04382137657436
C            0.23365746235033        0.50892486700620       -1.32550122606868
C           -0.17879312551880       -0.92830719300220       -1.76326950347761
O            0.26650542717719       -1.32102060925162       -2.83798994142620
O           -0.93757520348007       -1.57390160145454       -0.97668589002496
H            0.43575838081428       -1.21245788266653        2.35054654413953
H           -0.89094134691136       -1.20392980932082        1.30798796126101
H           -0.27625329807602        1.04100795999447        2.07773214538344
H            1.28008381498451        0.80602424756273        1.24716946199626
H           -0.32531096774596        2.12062536351664       -0.04643289780513
H           -1.46692724885216        0.77059782570188       -0.07411360790991
H            1.32321769850362        0.52972864190417       -1.29468350985035
H           -0.06994295612015        1.13382746026013       -2.16641881555234
H            0.59593198076327       -1.43126238753118        0.70894879733134
O            2.84681800803672       -2.42340236850337        4.08031300074759
H            3.22470137271001       -1.81783397234555        4.72225224644603
H            1.88568170814210       -2.39142234475367        4.18747712336905
O            2.96365669417247        2.56594494266365        0.83148330054807
H            3.87735609090798        2.45942306408325        0.41924692533979
H            2.89668534082323        3.55012674318723        0.88264838421165
O            2.42351942406613        2.54263787658672       -4.39441021721113
H            1.84799829601262        3.31213474684259       -4.36704188680553
H            3.22365554855495        2.78705949705989       -3.90924808405515
O            3.61046786203638        1.37912596178024        3.33564956603399
H            3.16294163307442        0.98712325384934        2.56387576398590
H            2.89425931772948        1.49493487170646        3.98907907837779
O            3.80050709616973       -0.47732727976029        0.35601815930788
H            3.86789800141592       -0.88078620694383        1.23315345334510
H            3.28135112135430        0.33010110721179        0.44059547698739
O            2.70164703405135       -3.22675305482820        1.40545680421555
H            3.01463740096298       -3.81802360539226        0.69800183464256
H            2.96425908661665       -3.69624619068977        2.23684856390979
O            3.18056023761469       -1.84321526680059       -3.94390816052661
H            2.51367352433003       -2.38600146892749       -4.44310150527934
H            3.02279944722334       -0.94678094420757       -4.33042696652544
37
 energy: -59.806020686905 gnorm: 0.052134009362 xtb: 6.7.1 (edcfbbe)
N            0.09942999001645       -0.91716558162267        1.42463112837655
C            0.22949578494743        0.54933049339251        1.25058051216310
C           -0.41103145544446        1.03354745892787       -0.04168702062087
C            0.23176145513183        0.50411130416608       -1.31998726539691
C           -0.20488959284983       -0.92963939842365       -1.76478713449675
O            0.22271605655721       -1.32094372149679       -2.86346398104122
O           -0.93408629088692       -1.58109057561402       -0.95428143127770
H            0.44445860149161       -1.22326653269403        2.33704985351858
H           -0.87879889856131       -1.20524733011068        1.27868889493267
H           -0.27412793200166        1.03872752911349        2.08364716714045
H            1.28440216864005        0.81691995297239        1.24452663504125
H           -0.34295934292035        2.12218956389736       -0.05006128737872
H           -1.46663194591133        0.75399824361256       -0.06826887626561
H            1.32352560431149        0.51083985990792       -1.28678637338299
H           -0.06297553882450        1.13254818317730       -2.16304837073871
H            0.61084979648261       -1.41906459193749        0.68844094424153
O            2.83963056579188       -2.40887825314277        4.08381403030534
H            3.24064600529425       -1.83018389051869        4.74637264460325
H            1.87548399863137       -2.40130032393768        4.25362279115574
O            3.02087851043096        2.58290280964501        0.85627031359954
H            3.83159030519771        2.43801307090609        0.37079100663691
H            2.86505191283515        3.52953192802147        0.85586516709318
O            2.41858136408522        2.53427015456614       -4.38100490868416
H            1.85620042583958        3.32150725781616       -4.38569717971650
H            3.24451525705859        2.80632289528404       -3.93699282723627
O            3.62913593068768        1.35744515254744        3.38549705652357
H            3.17774313239236        1.00810604516659        2.58750869299955
H            2.89445082768914        1.49851510796438        4.01776651758144
O            3.79209982145973       -0.46437770988048        0.34296109603759
H            3.86910118209226       -0.90178353264134        1.20835777230033
H            3.29170524365854        0.35795863206977        0.46692876948464
O            2.71499710316983       -3.21485404037840        1.39036348650568
H            2.99059516513507       -3.80819080572675        0.68379360753840
H            2.92521447545438       -3.66949907152180        2.22071479069705
O            3.13900387960370       -1.83305555180295       -3.93613613285929
H            2.55297645408248       -2.40310433418619       -4.44594037745277
H            3.05757497923007       -0.96158239751636       -4.33612971192924
37
 energy: -59.804874278118 gnorm: 0.074753680522 xtb: 6.7.1 (edcfbbe)
N            0.11982630281269       -0.91659817565462        1.41166324978541
C            0.23241558203557        0.55051536931064        1.24924987217399
C           -0.41931329462578        1.02464800551125       -0.04332550152854
C            0.23236163413865        0.49117848520162       -1.31505119309235
C           -0.20468557957554       -0.94752582969688       -1.74612286994392
O            0.16156052833146       -1.31479766734988       -2.89462981931609
O           -0.96728767886327       -1.57402757494395       -0.97716018032808
H            0.46309632926880       -1.23296089121517        2.32219058564252
H           -0.85533186966591       -1.21234932931249        1.24811515257806
H           -0.27144867198773        1.03243477313908        2.08849161436119
H            1.28581156659630        0.83099938533504        1.24013761094348
H           -0.36728590363427        2.11561491583538       -0.05913036975432
H           -1.47257538728345        0.73397288583439       -0.06135699359829
H            1.32232541165455        0.48603724207041       -1.25941184752338
H           -0.03778132449562        1.12207885963615       -2.16772605154897
H            0.64064803805853       -1.40386541699186        0.66999867083629
O            2.82123586800254       -2.43772618234664        4.14589804911285
H            3.25140307288263       -1.83850300306224        4.76579255819809
H            1.87807701186183       -2.37893961022868        4.28429509420257
O            3.00463701751609        2.55929525141276        0.81554041331904
H            3.84979639536039        2.44237415277961        0.36771976652901
H            2.84122907798915        3.50488954990869        0.84581177572138
O            2.45384302181734        2.56996016244866       -4.42156575274274
H            1.85980181521869        3.32349678829153       -4.39474742683719
H            3.23792881790197        2.80553573049382       -3.93255394878144
O            3.57025245719064        1.43573381525428        3.39687244403869
H            3.23315349223018        0.98549073357056        2.64778586679116
H            2.94587843063229        1.45461116119632        4.07800843717029
O            3.78680184275570       -0.45322169356330        0.33483783684512
H            3.85378210798673       -0.90275549990512        1.18890808806687
H            3.30704977286723        0.37851829294273        0.47744400207032
O            2.72718677689174       -3.19445005104763        1.37156007127938
H            2.95151891391799       -3.79160849839081        0.66934080497133
H            2.87897030538564       -3.62678628579007        2.20257845706400
O            3.14907321272314       -1.83691198877736       -3.94198857856693
H            2.56556405072903       -2.41258846433780       -4.43203913187569
H            3.06879585537082       -0.96821139755671       -4.33151075626514
37
 energy: -59.810889065350 gnorm: 0.032149318491 xtb: 6.7.1 (edcfbbe)
N            0.13749850082738       -0.91816046124548        1.39996732537634
C            0.23530539706815        0.55030388778586        1.24458120290587
C           -0.42581803096378        1.01800398488087       -0.04647813048706
C            0.22599816788579        0.48549141456500       -1.31908023570527
C           -0.23791227656458       -0.94348633202285       -1.75998959719292
O            0.14902659548982       -1.32608411226081       -2.87936076066899
O           -0.98329264114718       -1.57417271882860       -0.98045932621572
H            0.47880794783345       -1.23923027210926        2.30861790207416
H           -0.83354162709558       -1.22205810044049        1.22509885391022
H           -0.26989618665631        1.02441536044075        2.08720877212182
H            1.28561936183552        0.84186883442751        1.23486453756892
H           -0.38055036697999        2.10818196230233       -0.06434454411352
H           -1.47732878752660        0.72268708414060       -0.05765815430623
H            1.31566173829877        0.46042226844354       -1.24856968056972
H           -0.02254298482638        1.12596484159199       -2.17125705565498
H            0.66713424664552       -1.39442862739927        0.65779323030712
O            2.81077980626449       -2.43082091816379        4.15009155024905
H            3.26427499274683       -1.85759112507377        4.78088919099502
H            1.86920163674643       -2.38645435646738        4.34595206653646
O            3.02203012845196        2.53513823632185        0.81549624409904
H            3.85452357592851        2.43603870925018        0.35885332928434
H            2.82265796769851        3.47022633403601        0.85387652533217
O            2.45583145876389        2.57639657753715       -4.42041509727668
H            1.86607192932887        3.33356269613880       -4.40791845992520
H            3.25200952587098        2.82631972944241       -3.95420918651536
O            3.61573964255710        1.39609560232356        3.45285103189393
H            3.24472063727959        1.03108841767192        2.64444540276438
H            2.91062434399516        1.48573113057302        4.08812249406161
O            3.78410036563740       -0.44067400430061        0.32913750904749
H            3.83851130085100       -0.90741167254012        1.17253563257331
H            3.31585769794152        0.39282344883145        0.48494323888677
O            2.65350745667434       -3.17784003466967        1.34561807254226
H            2.95349488018324       -3.78959467408027        0.66508510950638
H            2.89248935771303       -3.57338728486528        2.20274747595685
O            3.20176368323798       -1.85294699125289       -3.95716678431249
H            2.54904872078744       -2.41553576511849       -4.41138379556740
H            3.05690683721444       -0.96732506986339       -4.32656588948429
37
 energy: -59.795947625589 gnorm: 0.154779659555 xtb: 6.7.1 (edcfbbe)
N            0.16709390610752       -0.92153577403309        1.38033599259775
C            0.24034952877668        0.54926598085600        1.23660664276984
C           -0.43337475094207        1.00964271058958       -0.05060251793801
C            0.21774263875177        0.47591141636565       -1.32442334221414
C           -0.29337888819814       -0.93552624429926       -1.78212530784074
O            0.09946292352737       -1.33053656887724       -2.87593367165131
O           -0.98781837572274       -1.58357321302819       -0.95752772440583
H            0.50248647069547       -1.24935337928524        2.28648616712122
H           -0.79549581712783       -1.23945889443250        1.18514789875349
H           -0.26918527643233        1.00971747813485        2.08288851212523
H            1.28438458674210        0.85948219434000        1.22698311779280
H           -0.40145856256568        2.09795186199296       -0.07178233323700
H           -1.48100382923231        0.70307004071230       -0.05227514505258
H            1.30637073153708        0.41943167316809       -1.23863487951302
H           -0.00244345296788        1.12952254229765       -2.17176961092435
H            0.71590989029475       -1.38155800652197        0.64390832212691
O            2.79580068565543       -2.41214053317599        4.14460378742751
H            3.28133059772309       -1.88771438592840        4.79825925443804
H            1.85565076991459       -2.41026047532625        4.45006850815640
O            2.96252434951990        2.44835555071899        0.74427729584456
H            3.94071863598560        2.46465586133306        0.40332194976657
H            2.81993503247756        3.42179684814345        0.90977418390224
O            2.43502993039806        2.55827654609682       -4.38325279738510
H            1.88285647623077        3.35462384755780       -4.43875612350790
H            3.29636519424163        2.87466602229015       -4.01527574906082
O            3.71106746908538        1.29598206140749        3.54209073910051
H            3.23409209789058        1.11779731581902        2.63145097807602
H            2.84376846829715        1.57132732885935        4.08352251844430
O            3.77724117151841       -0.41651482733553        0.31850763098077
H            3.81536373312146       -0.91874891153493        1.14199176212594
H            3.32814315586832        0.41756786188107        0.50401601645617
O            2.63326000070462       -3.14307491527485        1.33164712086422
H            2.92548889852796       -3.75655919155352        0.65761849891362
H            2.84575079708249       -3.51693457084924        2.19041246172819
O            3.15633838000223       -1.84910615992688       -3.95195976337610
H            2.59317469253679       -2.43426887519776       -4.41341034249117
H            3.09477273997148       -0.98862221597948       -4.32227005091734
37
 energy: -59.814603331357 gnorm: 0.037472193619 xtb: 6.7.1 (edcfbbe)
N            0.17298781373243       -0.92265731682683        1.37632201436700
C            0.24097871192976        0.54858072327132        1.23547013072278
C           -0.43447233206082        1.00904882021084       -0.05074087381473
C            0.21661425042463        0.47298615919828       -1.32303405901163
C           -0.28804150941696       -0.94179109639387       -1.77171295321982
O            0.08390047735043       -1.33015687862898       -2.89031999957564
O           -0.99407222265170       -1.58279457648875       -0.95649230944614
H            0.50734087383177       -1.25079051190416        2.28377094454444
H           -0.78880871313705       -1.24408278644693        1.17843082109982
H           -0.27059223565571        1.00681148925908        2.08260073452304
H            1.28459481983748        0.86264162090628        1.22478878195475
H           -0.40500653374506        2.09840399115162       -0.07336883309049
H           -1.48199287289314        0.69935741170295       -0.05181603180584
H            1.30516141174066        0.41505884782229       -1.23782410472473
H           -0.00133846237830        1.12628816259991       -2.17220059425927
H            0.72649922105416       -1.37961837675309        0.64061078218677
O            2.79120063253760       -2.42142677892466        4.15891686819348
H            3.28150761060726       -1.88848000007326        4.80014799668145
H            1.85683236468805       -2.40858394365954        4.45178360614492
O            3.01799261523258        2.47457226984918        0.78616449181656
H            3.89535646237171        2.43817622192977        0.37539222835385
H            2.80800238343376        3.41156177013816        0.88505844500481
O            2.44393295634486        2.56923630370044       -4.39354522095061
H            1.88377238867233        3.35647938931742       -4.43994875602060
H            3.29168310252321        2.87410774508986       -4.01291246622776
O            3.64251860549545        1.38034932375394        3.50866568221234
H            3.26171005899468        1.08206806945355        2.66730039083088
H            2.89490061360139        1.52745100650478        4.10994761175739
O            3.77590763822162       -0.41379975899725        0.31503046948048
H            3.81063447976888       -0.92293309892617        1.13736258202420
H            3.32906649439688        0.42360753583460        0.50643779940147
O            2.60458432174350       -3.13648473710247        1.32581066830925
H            2.93003176893806       -3.75354067365612        0.65827667272754
H            2.85286989830383       -3.50195687667600        2.19100879251271
O            3.21257249572685       -1.86378530322663       -3.96298911790319
H            2.56576199179668       -2.43185970316814       -4.39986838400644
H            3.07372341863472       -0.97848644383763       -4.31860481079619
37
 energy: -59.809976545926 gnorm: 0.111138809646 xtb: 6.7.1 (edcfbbe)
N            0.20390615569419       -0.92586711457387        1.36045492073797
C            0.24482495947038        0.54739581164827        1.23047194620492
C           -0.44092174287587        1.00034811340143       -0.05390377823599
C            0.21357915349075        0.45750982316684       -1.32211904299102
C           -0.29387192687787       -0.95703572474716       -1.75995096128995
O            0.02324919330021       -1.32661035339425       -2.91880917834969
O           -1.01781310687513       -1.58342974972582       -0.96294985619908
H            0.52969733322592       -1.25616981329234        2.27077561991565
H           -0.75036242179320       -1.26451923738791        1.14168414743688
H           -0.27466681732682        0.99226113827706        2.08115908936196
H            1.28369939042257        0.88045394218331        1.21921822361594
H           -0.42270014646386        2.09064151017828       -0.08240760527000
H           -1.48616040347177        0.68050230351577       -0.04922681228913
H            1.29972469588655        0.38802677265996       -1.22579472235070
H            0.01346228638052        1.11165768976752       -2.17571757463798
H            0.78147670144088       -1.36732561180580        0.63214887495203
O            2.77229425728196       -2.47894672795883        4.24616686307750
H            3.27435989219248       -1.89274233387999        4.81221613491806
H            1.86858886323201       -2.38554330726759        4.43425505365273
O            3.06347224186171        2.45094500610080        0.81209336430409
H            3.88554704872890        2.41497868318113        0.36577790409169
H            2.79517891549862        3.36444498492439        0.89741621121990
O            2.50916150919437        2.64145448613134       -4.48173895222274
H            1.88381804798596        3.35728320889612       -4.44222904178691
H            3.25582901826081        2.84706536480979       -3.97153791174505
O            3.67582262132145        1.35369169507349        3.55739444945953
H            3.25089471364435        1.15505739178420        2.66801547934827
H            2.89208087532209        1.55466126761024        4.12359103467178
O            3.76247158668858       -0.40811126573653        0.30608680207390
H            3.78479251960016       -0.92185012054721        1.11997522344064
H            3.33858708822144        0.43932512504709        0.50811761853727
O            2.59143396861942       -3.09815508729059        1.31999206343037
H            2.88550419062469       -3.71689993013337        0.65722097521993
H            2.82453255677762       -3.44791646957871        2.18485153610946
O            3.28284758078769       -1.88898217138393       -3.98254271464723
H            2.53956103457568       -2.42771392781628       -4.37592466777086
H            3.05441316594848       -0.97632737183305       -4.30031071599753
37
 energy: -59.815500634306 gnorm: 0.066198830572 xtb: 6.7.1 (edcfbbe)
N            0.22038629698310       -0.92837080293199        1.35141124768474
C            0.24706999953675        0.54550873484842        1.22690573891088
C           -0.44308712472384        0.99645715045825       -0.05593880165157
C            0.20842055292840        0.45252674164189       -1.32616079390916