58
 energy: -95.442008498823 gnorm: 0.189904529986 xtb: 6.7.1 (edcfbbe)
N            0.99013659270000        0.17008263780000       -0.41077661870000
C            2.37331837840000       -0.14770410010000       -0.02947450470000
C            3.31401581730000        0.79242501600000       -0.77833671680000
C            4.71570660170000        0.84356307610000       -0.16578067440000
C            5.51121910300000        1.90907001260000       -0.91179922240000
O            5.37580188300000        3.10640278220000       -0.55023088560000
O            6.22319498840000        1.55974190690000       -1.88382083920000
H            0.77633482110000        1.14925852360000       -0.14202966730000
H            0.87851139820000        0.08296184750000       -1.43990478390000
H            2.59908327110000       -1.18251974750000       -0.28302377710000
H            2.49902344000000       -0.02181424630000        1.04651549390000
H            2.90255958600000        1.80117438440000       -0.75156095470000
H            3.40030135700000        0.48775559050000       -1.82200544000000
H            5.21704222240000       -0.11926756170000       -0.26325633990000
H            4.65906261910000        1.12332348540000        0.88696440510000
H            0.26817862130000       -0.44742128880000        0.03997674760000
O            0.52467317720000        2.85136480810000        0.34609863710000
H            0.71370260600000        3.00901580040000        1.27572768850000
H            1.16755246660000        3.38502888090000       -0.14893911790000
O            2.73225722360000        4.16508176480000       -0.84065350810000
H            3.61881604300000        3.84219860100000       -0.61515292900000
H            2.87556217820000        4.81349827660000       -1.53773482580000
H           -1.40295934840000       -1.51100055280000       -0.52456803400000
O           -1.24198635420000       -1.13748174690000        0.36321273880000
H           -1.72846262910000       -0.29617006610000        0.38625904880000
O            6.78791957380000        3.26882398350000       -3.96454150030000
H            7.74486990600000        3.29153413150000       -4.06052005400000
H            6.60843488050000        2.65286919800000       -3.22381745150000
H            1.56873743390000       -0.39145408390000       -3.55811195400000
O            0.71156920100000       -0.12549882500000       -3.18093938670000
H            0.42866851550000        0.65223031240000       -3.67059257050000
H            5.68540053370000        4.71970758990000       -3.22374388580000
O            5.23684052670000        5.13420778380000       -2.47016904020000
H            5.40822064430000        4.52155353110000       -1.73178577320000
H           -1.26088543820000        2.12266742170000        0.14971505460000
O           -2.04289634910000        1.55604826830000        0.06455730000000
H           -2.60427963040000        1.95906389330000       -0.60219494400000
H            6.45159411390000       -1.26395152050000       -3.30876701580000
O            5.63606062430000       -0.88847154140000       -2.96482231290000
H            5.87440774680000       -0.02132759140000       -2.57784263330000
H            2.98381061290000        0.15308143470000        4.05932897020000
O            2.82235555970000       -0.40305566040000        3.29227647870000
H            2.51736161080000       -1.25460771740000        3.62060075170000
H            3.50579486370000       -0.14763660040000       -5.09126318310000
O            3.20958066860000       -0.57732569230000       -4.28410437720000
H            4.01557223600000       -0.79435717600000       -3.78335432900000
H           -0.55726015850000       -1.36651758260000       -2.67317582970000
O           -1.18102126530000       -2.00024250650000       -2.27439596160000
H           -0.84037278110000       -2.87535780440000       -2.47610390110000
H            5.37847836050000        3.47883518640000        1.22478641440000
O            5.32582896440000        3.63230036760000        2.18481780510000
H            5.39141780270000        4.58479855050000        2.30399272120000
O            8.77635336570000        1.63231361780000       -0.12470313340000
H            9.37763541370000        2.28772577720000       -0.49141158720000
H            7.90735329670000        1.80295620160000       -0.54411884450000
O            8.12828812840000        2.92635695800000        1.13798322800000
H            8.72948812840000        3.58175695800000        0.77128322800000
H            7.25928812840000        3.09705695800000        0.71858322800000
58
 energy: -95.493588362105 gnorm: 0.043945251470 xtb: 6.7.1 (edcfbbe)
N            0.99016508216446        0.17017112322082       -0.41085833682589
C            2.37333579158409       -0.14764288011527       -0.02949049785108
C            3.31307972600497        0.79265993256864       -0.77882575933293
C            4.71435399922261        0.84359760843563       -0.16606487468400
C            5.50491114393832        1.90816386915178       -0.91380075343892
O            5.38611670845199        3.10612517138671       -0.54422672422579
O            6.22830090154159        1.56150440358895       -1.87850820279881
H            0.77615370949388        1.14923073632008       -0.14192687378289
H            0.87838069422299        0.08282109563726       -1.43992858283093
H            2.59937214740722       -1.18240955700404       -0.28290750479585
H            2.49932890934622       -0.02186526169347        1.04647917249940
H            2.90139454852524        1.80133351878981       -0.75162632718194
H            3.39967013833867        0.48740029133034       -1.82233773513370
H            5.21744684245561       -0.11820334301300       -0.26330886940167
H            4.65974213845742        1.12328906982565        0.88677347174465
H            0.26837753461867       -0.44741557395741        0.03997723343006
O            0.52481040583401        2.85133119489762        0.34606386098985
H            0.71363762925773        3.00886264913831        1.27574529067943
H            1.16750359352255        3.38523515290238       -0.14885603759400
O            2.73251938416147        4.16497233567067       -0.84108019875822
H            3.61871455876983        3.84257978926620       -0.61468698602922
H            2.87543861705715        4.81380034644491       -1.53783194686818
H           -1.40301701553037       -1.51105757403748       -0.52450914522511
O           -1.24179900924018       -1.13736175151361        0.36316082838979
H           -1.72853131907973       -0.29619579801886        0.38635645922629
O            6.78770825195790        3.27227790158402       -3.96178307902186
H            7.74400436603695        3.29052448260199       -4.06428825777624
H            6.60838245914556        2.65014499061429       -3.22656034770539
H            1.56863672837233       -0.39170851462781       -3.55830946637274
O            0.71179397107149       -0.12525181516031       -3.18074117855465
H            0.42850832460412        0.65207366423387       -3.67081722368888
H            5.68483650138518        4.71958648713353       -3.22441601215785
O            5.23870859412020        5.13523294065017       -2.46996566860627
H            5.40529185052929        4.52087187108695       -1.73240148272935
H           -1.26091068743811        2.12272420031893        0.14978648790331
O           -2.04282429895694        1.55601614716809        0.06449839965294
H           -2.60435777164399        1.95905295986132       -0.60211823025169
H            6.45163198881994       -1.26458689046925       -3.30760171092661
O            5.63557444900056       -0.88750031695720       -2.96681129205910
H            5.87494494548437       -0.02245860636039       -2.57756211428839
H            2.98410905246642        0.15297461727338        4.05931818023062
O            2.82090029908680       -0.40256170074008        3.29232896689437
H            2.51718685000536       -1.25449301972508        3.62086947559595
H            3.50585526862160       -0.14805070111162       -5.09160375169433
O            3.20960411009155       -0.57630803035607       -4.28368318124537
H            4.01563259094941       -0.79494101056784       -3.78355710198191
H           -0.55719023148017       -1.36659182781417       -2.67317903372639
O           -1.18106502848389       -2.00019078147124       -2.27440331036814
H           -0.84050197536548       -2.87537736031448       -2.47598444470351
H            5.36439263145443        3.48075734872611        1.22684798704065
O            5.32148221044142        3.63386145824064        2.18627527202931
H            5.39098260320852        4.58579367945056        2.30631929422607
O            8.83726085904352        1.49454886365277       -0.27139718281560
H            9.40341656059272        2.24347105293230       -0.52916858012105
H            7.94256223024280        1.75573157368582       -0.57770879090613
O            8.06559879831909        3.05700952095807        1.26833210443121
H            8.70566003152077        3.62932691217891        0.81448160313942
H            7.24003788826974        3.14176525980115        0.75437414155733
58
 energy: -95.500547190476 gnorm: 0.027191452707 xtb: 6.7.1 (edcfbbe)
N            0.98957473353623        0.17015748562092       -0.41101195645394
C            2.37314916649139       -0.14656963865229       -0.03043392804411
C            3.31158856053373        0.79486638179230       -0.78020011728575
C            4.71270610169485        0.84584281552177       -0.16660662379558
C            5.51703406220682        1.90718986546048       -0.90094747123220
O            5.40689976701306        3.10606816857375       -0.52839125419573
O            6.24033793395138        1.56371112246504       -1.86692383870893
H            0.77497586004207        1.14898448191109       -0.14176778209714
H            0.87734516370735        0.08258640864363       -1.43999762260754
H            2.60010929600793       -1.18120446883952       -0.28364315726295
H            2.49972895956540       -0.02100929418538        1.04552897724378
H            2.89829018774514        1.80286783236071       -0.75256411830666
H            3.39802134922070        0.48888016107759       -1.82355649403914
H            5.21508728897714       -0.11615380475199       -0.26455619785674
H            4.65740490449086        1.12218178271979        0.88701177675979
H            0.26848707125342       -0.44789932482308        0.04015543770989
O            0.52522906189301        2.85125209042757        0.34595397542568
H            0.71306551516365        3.00828997657933        1.27591719379200
H            1.16765252680325        3.38619133317100       -0.14814337643888
O            2.73514947297061        4.16163560812804       -0.84364940214079
H            3.62223591958775        3.84525713826516       -0.61283696012361
H            2.87639910642095        4.81468843212775       -1.53687538335204
H           -1.40320476614870       -1.51118782159232       -0.52427592166727
O           -1.24160255677061       -1.13736408370405        0.36326995419870
H           -1.72862834335018       -0.29637671540729        0.38674041711125
O            6.78457660221209        3.28186069949480       -3.95489547354794
H            7.73879368367082        3.28398941000713       -4.08127261736053
H            6.61023555931990        2.64124397681175       -3.23415054547765
H            1.56810354235217       -0.39200824879477       -3.55883807081090
O            0.71187445371933       -0.12481925215766       -3.18044685818206
H            0.42761245369513        0.65140544187225       -3.67169677236751
H            5.68354977044314        4.72087767347227       -3.22354384376198
O            5.24033690811693        5.13697284045745       -2.46753364120988
H            5.39856432042114        4.51755754474141       -1.73256668304074
H           -1.26108651033572        2.12305709631453        0.14998935454638
O           -2.04255614371418        1.55581426851005        0.06428089211206
H           -2.60468961981762        1.95907265199166       -0.60169459246832
H            6.45244888875954       -1.26811502096491       -3.30137381839508
O            5.63504108064355       -0.88248257643691       -2.97316506230002
H            5.87878302304809       -0.02320289385851       -2.57476698044327
H            2.98577329681038        0.15267991185601        4.05932346110579
O            2.81331755435091       -0.40028232481212        3.29246728549087
H            2.51599305208529       -1.25410280707556        3.62204110022073
H            3.50555445273676       -0.15022271806063       -5.09394516192306
O            3.20929877266771       -0.57190147317630       -4.28254833042406
H            4.01572516671329       -0.79619598301311       -3.78557573064005
H           -0.55681827396525       -1.36694373348825       -2.67314742738396
O           -1.18122816400865       -1.99999859446322       -2.27435334983520
H           -0.84116114244764       -2.87548369889446       -2.47548941431843
H            5.29104853050647        3.49225179568397        1.23788283626834
O            5.26812342910355        3.64232479411274        2.19835469175375
H            5.39225436822512        4.58967597775028        2.32316551950640
O            8.86486896438297        1.46559949661987       -0.29984280485260
H            9.45135917956270        2.16377289261127       -0.59166075766553
H            8.00539944497996        1.66274623386054       -0.67250014176052
O            8.06481726412130        3.08926324871959        1.27189138042079
H            8.68300184401228        3.70619330642043        0.87998012376120
H            7.23130918662039        3.20116603669796        0.81058673755125
58
 energy: -95.505418212997 gnorm: 0.021557054108 xtb: 6.7.1 (edcfbbe)
N            0.98952228250925        0.17052404813879       -0.41185411610145
C            2.37383740801546       -0.14418997104355       -0.03232446328467
C            3.31148664901834        0.79839285035034       -0.78245673767247
C            4.71107881848964        0.84910795368382       -0.16489286136500
C            5.52988924081426        1.90847637739053       -0.88303313134138
O            5.42841786519575        3.10739325482654       -0.50603654688670
O            6.26845424168490        1.56727829179336       -1.83995398206190
H            0.77382195295752        1.14894045484543       -0.14216060525705
H            0.87662303841060        0.08269628737334       -1.44074264573201
H            2.60176491765275       -1.17873917814437       -0.28513905828008
H            2.50043845008125       -0.01887994606901        1.04373430891583
H            2.89589857906048        1.80539549876693       -0.75512483536295
H            3.39850165369300        0.49181731487352       -1.82554883744567
H            5.21296699349251       -0.11342996398637       -0.26213930607223
H            4.65119900811715        1.12126935310101        0.88967593230890
H            0.26930724753754       -0.44826040007622        0.03981139405366
O            0.52437333030154        2.85148545897959        0.34561260400043
H            0.71063227997698        3.00708961286539        1.27609919399752
H            1.16770941613803        3.38652175722694       -0.14697337508502
O            2.73833123385910        4.16013000997454       -0.84479402735021
H            3.62539223335382        3.84892359205522       -0.61008720089231
H            2.87752107198410        4.81553059777349       -1.53629512721531
H           -1.40341535224987       -1.51122126213877       -0.52419061541703
O           -1.24124935971200       -1.13753927126841        0.36330464485078
H           -1.72838583413144       -0.29664918320224        0.38730205589479
O            6.77516703948541        3.27806191059695       -3.95689031116553
H            7.72594206848151        3.27823608789277       -4.11020547273950
H            6.61837207771225        2.64750451614954       -3.22515620201560
H            1.56789166303077       -0.39143705332548       -3.55852942763886
O            0.71118928143326       -0.12496943384065       -3.18082131677270
H            0.42639027743563        0.65074935620665       -3.67251726444518
H            5.68857162675592        4.72404219890928       -3.21854189249349
O            5.23304264845113        5.12998874332597       -2.46401951822545
H            5.40155070382718        4.51484303752741       -1.72885306240845
H           -1.26157546487453        2.12324180862871        0.15004566880957
O           -2.04269596948673        1.55562015415064        0.06413287029007
H           -2.60537663200985        1.95900629158124       -0.60129276842748
H            6.45346823865281       -1.27280378830099       -3.29030176739429
O            5.63552587633674       -0.87371837229256       -2.97833305360123
H            5.88513702152180       -0.01902612289674       -2.57527618244482
H            2.98911700748212        0.15194541174333        4.05918142366023
O            2.80280645482990       -0.39712476673526        3.29262303032669
H            2.51401420033021       -1.25341893523802        3.62364388450379
H            3.50432390063669       -0.15312924299104       -5.09765283253593
O            3.20838096253277       -0.56870856557343       -4.28299727295592
H            4.01506957733026       -0.79417949054486       -3.78722366457882
H           -0.55665218979193       -1.36744387510294       -2.67303337647536
O           -1.18167816414370       -2.00003557258861       -2.27445471902199
H           -0.84181962260913       -2.87579687735019       -2.47474109924708
H            5.20983281986141        3.50098049160418        1.25421389758277
O            5.18174934610581        3.65696041153350        2.21303328713805
H            5.38463909538116        4.59652503571345        2.33879179004801
O            8.89958090664079        1.40760896468544       -0.35661936391094
H            9.49979349838344        2.10768801743234       -0.62346090002849
H            8.04930181739421        1.59555913212063       -0.75211041477250
O            8.07304304448062        3.12667218618790        1.28662913765959
H            8.67838047990709        3.77436883568074        0.92307768914002
H            7.24066032424203        3.21477787271953        0.81901797414324
58
 energy: -95.509105422160 gnorm: 0.012730118590 xtb: 6.7.1 (edcfbbe)
N            0.99079404561277        0.17227206175362       -0.41422460505753
C            2.37610739533680       -0.13955094547228       -0.03569655074598
C            3.31471196556626        0.80436000437188       -0.78459876658287
C            4.71141686608686        0.85249247353392       -0.15981835255857
C            5.55065757637095        1.91056797105852       -0.85574558269384
O            5.44676416357138        3.10875080507744       -0.47901747692901
O            6.30759529058967        1.57161489980777       -1.80143749511263
H            0.77328439928914        1.15003549614949       -0.14388951208139
H            0.87696737024110        0.08417592774354       -1.44298389841842
H            2.60503695977911       -1.17401300659462       -0.28828067725780
H            2.50163405017576       -0.01462765616110        1.04060547955955
H            2.89773117759201        1.81071948943579       -0.75826267966950
H            3.40402720106548        0.49763008127746       -1.82731150972936
H            5.21107558418952       -0.11167333457729       -0.25616793637282
H            4.64152769769959        1.11902366597529        0.89603018684137
H            0.27170748930614       -0.44759432327589        0.03803238983697
O            0.52196846118071        2.85211908223606        0.34457711970294
H            0.70431758874503        3.00625598931245        1.27601440535664
H            1.16753901010504        3.38699952458400       -0.14497133286915
O            2.74121288962808        4.15956142900897       -0.84479995772552
H            3.62774761862647        3.85463374578122       -0.60401554967448
H            2.87920794896993        4.81447250790492       -1.53702742378204
H           -1.40317137159089       -1.51101865604085       -0.52421036494402
O           -1.23983804606569       -1.13746581565086        0.36312125560735
H           -1.72737582862560       -0.29687027043530        0.38800937246890
O            6.76251201529123        3.27686137520525       -3.95407939913136
H            7.70730260374104        3.26793617007066       -4.14760368366883
H            6.62761576313367        2.64692551998268       -3.21833601550253
H            1.56733579141787       -0.39036086186938       -3.55879173713414
O            0.70981956168397       -0.12553020654213       -3.18184368088761
H            0.42450019687780        0.65022137756826       -3.67314284403350
H            5.67808078532784        4.71859027335365       -3.21192012141576
O            5.23346717970748        5.12710085300037       -2.45237155486663
H            5.40959573656768        4.51375546554548       -1.71834620763888
H           -1.26245787923853        2.12322832883045        0.14967823400475
O           -2.04341757581440        1.55539585094211        0.06405622935492
H           -2.60655919344579        1.95868138944534       -0.60102858795373
H            6.45383993827131       -1.27571893320805       -3.27637078773128
O            5.63789256457198       -0.85886928298045       -2.98146221782684
H            5.89693261867100       -0.01193252144700       -2.57046094062096
H            2.99437282830450        0.15042095334633        4.05814810809969
O            2.79502274869792       -0.39501478432272        3.29235800167037
H            2.51088033771659       -1.25239135697905        3.62449202656192
H            3.50208344280839       -0.15480212718702       -5.10202328519738
O            3.20672038210293       -0.56713628809159       -4.28562713649104
H            4.01339652817510       -0.78758958343032       -3.78830736711928
H           -0.55726578470130       -1.36778376731752       -2.67306749050408
O           -1.18250356303504       -2.00022654873051       -2.27451359725958
H           -0.84251304026653       -2.87611775928771       -2.47398357874475
H            5.17621412965143        3.50543449690652        1.27600844651732
O            5.11325022170284        3.67517934346334        2.23129740621190
H            5.31461725392600        4.60367939845179        2.34687861108663
O            8.93504917372451        1.32695429389461       -0.42386248448253
H            9.55488755487551        2.03108369615220       -0.64812900493426
H            8.09722314490192        1.51808843968124       -0.85751219086235
O            8.07102168831394        3.17489541039070        1.29962271382728
H            8.65369252645052        3.86808318992068        0.96973864337998
H            7.24200409843695        3.22273895413651        0.80972638732543
58
 energy: -95.510901537816 gnorm: 0.031751517643 xtb: 6.7.1 (edcfbbe)
N            0.99438773102120        0.17622305048420       -0.41815162585328
C            2.38032951573355       -0.13329828982346       -0.03937273860838
C            3.32172333333761        0.81143617399289       -0.78520269897012
C            4.71517384660199        0.85440794630108       -0.15199399158623
C            5.56839757244007        1.91250008601267       -0.83221426904609
O            5.46526925931244        3.10878126071454       -0.45111041983469
O            6.34984842502946        1.57232794749079       -1.75977487252026
H            0.77470992523866        1.15333651216962       -0.14735577135748
H            0.87975218621032        0.08761423009764       -1.44680813340443
H            2.61018167073143       -1.16751996473825       -0.29230389350111
H            2.50392352846866       -0.00913624214196        1.03726571392219
H            2.90534439941907        1.81797805176712       -0.76002621831488
H            3.41438919961403        0.50511515110934       -1.82763543646821
H            5.21152626043468       -0.11178182531185       -0.24765555530681
H            4.63545086891371        1.11617893145813        0.90480654879648
H            0.27635468221645       -0.44470271041214        0.03448084412884
O            0.51856090265516        2.85350535965167        0.34362773436033
H            0.69607804131560        3.00595271841758        1.27624639089569
H            1.16744369375114        3.38776451309202       -0.14210724600013
O            2.74488030634064        4.15769567140256       -0.84329793741982
H            3.63117497754842        3.86040548007054       -0.59377901040409
H            2.88328828963639        4.81199678988834       -1.53605996755902
H           -1.40130187260007       -1.51071981199346       -0.52508997777820
O           -1.23632287791758       -1.13645109771403        0.36164377775206
H           -1.72557050526766       -0.29690749875368        0.38735769230984
O            6.74007507071423        3.26047146353688       -3.95917186423338
H            7.67658324628354        3.25950558382258       -4.18618041082696
H            6.63599098269820        2.64939404538127       -3.20316381325367
H            1.56646018333237       -0.38910881228593       -3.56049084786572
O            0.70858901718640       -0.12573970427716       -3.18330335703578
H            0.42238135868817        0.65012309003079       -3.67392696630701
H            5.66892283068885        4.71049186508074       -3.19965435086695
O            5.22792094305790        5.11855641729546       -2.43780069960783
H            5.42380541519992        4.51542769083409       -1.70043478201472
H           -1.26352404877094        2.12302343972558        0.14878215734104
O           -2.04468931418781        1.55531714485435        0.06397718056111
H           -2.60812960841680        1.95846334273267       -0.60093438951416
H            6.45184816946436       -1.27713045695627       -3.26169085833671
O            5.64137175880934       -0.84050197002352       -2.98044811628238
H            5.91370361634247       -0.00475193067021       -2.55706915608881
H            3.00150228400240        0.14872368592867        4.05597433542528
O            2.79110973135972       -0.39380749232672        3.29129601052595
H            2.50767487473089       -1.25099314078744        3.62417321817527
H            3.49942865819729       -0.15530463830160       -5.10703818168807
O            3.20506533325975       -0.56526390353996       -4.28911537438122
H            4.01187260457275       -0.77858415995304       -3.78972637013093
H           -0.55779069234437       -1.36820664690363       -2.67384086494568
O           -1.18273225810369       -2.00095388030185       -2.27522037196035
H           -0.84183405089895       -2.87670845286620       -2.47370901047446
H            5.14776294438047        3.50220511228619        1.29970375707308
O            4.96455746235920        3.69878622537244        2.24490651244072
H            5.31044822816266        4.61426131378334        2.35956627472093
O            8.96589211973297        1.23930548211139       -0.49958552041121
H            9.59191598974228        1.94994219135230       -0.68753409033991
H            8.13595648810862        1.44472990316132       -0.95555037119178
O            8.07266071927438        3.22209448861411        1.30787697641014
H            8.62448785336205        3.96190468951991        1.01186057873593
H            7.25298001081964        3.23627748623608        0.79513525931911
58
 energy: -95.512710705651 gnorm: 0.021516810475 xtb: 6.7.1 (edcfbbe)
N            0.99920285760144        0.18154589129302       -0.42278949620970
C            2.38533468801807       -0.12653241481653       -0.04285493342249
C            3.33068053373690        0.81860330189504       -0.78436959767951
C            4.72100618020113        0.85417303453775       -0.14267075470990
C            5.58689978776011        1.91216278184066       -0.80888152417017
O            5.48266751050017        3.10631110336389       -0.42348048420870
O            6.38626120078787        1.57056647884684       -1.72175547780901
H            0.77747157324205        1.15810988247290       -0.15162228505502
H            0.88388103043212        0.09223699206321       -1.45139413214574
H            2.61589213527613       -1.16043311409981       -0.29656612836439
H            2.50654170240911       -0.00343659800317        1.03417411680358
H            2.91646620371566        1.82594858300230       -0.75957471005890
H            3.42692457598576        0.51339674966911       -1.82676328733842
H            5.21291054333430       -0.11433303514275       -0.23838202180495
H            4.63241375610149        1.11172289429274        0.91478217244209
H            0.28208849191300       -0.44023292336594        0.03009523701654
O            0.51460319674276        2.85537452927700        0.34292144307005
H            0.68744740427311        3.00580114322920        1.27671814242620
H            1.16738202411280        3.38866736498761       -0.13869051304917
O            2.74786771820814        4.15353203843407       -0.84235578494929
H            3.63371615769468        3.86681237953307       -0.57813485366188
H            2.88972075405532        4.80898582693911       -1.53343441623027
H           -1.39820725004699       -1.51027199485489       -0.52688700262936
O           -1.23160043361880       -1.13497556891779        0.35912549366985
H           -1.72313168288696       -0.29681656429077        0.38556957604207
O            6.71267424234578        3.24061255175714       -3.96515112309147
H            7.63987686286667        3.24815633942622       -4.22258451002132
H            6.63901637668789        2.64883550023184       -3.18989258248454
H            1.56578332544210       -0.38761765342071       -3.56278955409694
O            0.70774483213369       -0.12557365283230       -3.18498182482546