34
 energy: -54.701899173129 gnorm: 0.157759088847 xtb: 6.7.1 (edcfbbe)
N            0.91887727820000       -0.19371563980000       -0.46622222710000
C            2.38994969390000       -0.29255306260000       -0.40088534270000
C            3.04107144450000        0.71223383020000       -1.34435490890000
C            4.56245699130000        0.64600587510000       -1.29073844250000
C            5.22593097640000        1.82892785260000       -2.03369033390000
O            4.61878467250000        2.91791097900000       -2.06672191270000
O            6.35424781620000        1.61291750070000       -2.53549087360000
H            0.61144116760000        0.77564196680000       -0.23863516370000
H            0.59073814840000       -0.41322210580000       -1.40825619880000
H            2.69788706710000       -1.30350353450000       -0.66904965070000
H            2.71192116120000       -0.09396015260000        0.62083821480000
H            2.75281935910000        1.73120895000000       -1.08083056820000
H            2.72741317090000        0.53477781750000       -2.37474913640000
H            4.95676070210000       -0.27430999400000       -1.72367464490000
H            4.91588587180000        0.71402567280000       -0.25826612320000
H            0.48137682400000       -0.85502945470000        0.21497343600000
O            0.04714249510000        2.39740714420000        0.04438468420000
H            0.28858139130000        2.95048017430000        0.79209339310000
H           -0.15856546170000        2.98018667270000       -0.69123179360000
O            3.15122981220000        4.93496634030000       -3.35702066330000
H            3.65115043220000        4.23926836700000       -2.89913873610000
H            3.81379866060000        5.48783237890000       -3.78141758490000
H           -0.59789809680000       -2.76059742060000        1.08979014860000
O           -0.09962633190000       -1.98106162110000        1.35048937600000
H           -0.43945204160000       -1.68068927710000        2.19830481770000
O            8.05101618230000        3.33142562780000       -3.82789869610000
H            8.68473036710000        2.70019216640000       -4.18426428480000
H            7.39461434430000        2.78806906120000       -3.34201520230000
H           -1.94924673540000       -0.07114331080000       -1.45218724680000
O           -1.55416069750000        0.14511519430000       -0.60353244560000
H           -2.24236285660000        0.06991554980000        0.06281577540000
H            6.58136249860000        4.57700647260000       -4.10387359900000
O            7.08994690000000        4.87748079970000       -3.34616902900000
H            6.89599560600000        4.28506806620000       -2.61496453040000
34
 energy: -54.745626342218 gnorm: 0.045997917367 xtb: 6.7.1 (edcfbbe)
N            0.93111408155274       -0.19453780206842       -0.46461101370295
C            2.39753196861936       -0.29323009378225       -0.39986727270304
C            3.04300482395084        0.71278840933175       -1.34463528522809
C            4.56359122855466        0.64708213441160       -1.29153757350769
C            5.22661938192666        1.82875662435866       -2.03400212052439
O            4.62485234000511        2.92072763064220       -2.06786141492085
O            6.35654961496167        1.61314119757761       -2.53292969669489
H            0.61170643514440        0.77118747564793       -0.23947359256573
H            0.59590017407638       -0.41186701072973       -1.40314842307814
H            2.70278757598195       -1.30455297747150       -0.66874556966051
H            2.71648457316146       -0.09398767104455        0.62217480492021
H            2.75197014576738        1.73067424248198       -1.08037630077006
H            2.72720017675607        0.53439230751977       -2.37419182305902
H            4.95740419222976       -0.27395151209501       -1.72365957402347
H            4.91624011554757        0.71450164088644       -0.25868647720238
H            0.48364728309603       -0.85183066453233        0.21228573845200
O            0.05587918332355        2.40148272361794        0.04482202060706
H            0.28884118525066        2.95485520252060        0.79434301828962
H           -0.15722568426973        2.98160475662586       -0.69007350838887
O            3.14979101421243        4.93184708897297       -3.36088613938663
H            3.65025512974331        4.24000756280497       -2.89720603803744
H            3.81204225864422        5.49184508730035       -3.77646687306791
H           -0.59581850817685       -2.76320531609535        1.09134317543565
O           -0.09865896623059       -1.98291194020879        1.35140631484291
H           -0.43631193314895       -1.68293660795454        2.19964915946210
O            8.11765963294125        3.23940200293792       -3.85512677261193
H            8.74492523129355        2.60126823626485       -4.21107293169944
H            7.44153889034998        2.71507275178642       -3.37110226229724
H           -1.97238648499777       -0.06925475907356       -1.45610341844610
O           -1.57340546650893        0.13372854182171       -0.60785431376011
H           -2.26049902592632        0.07752601224485        0.05859233967962
H            6.57018020742061        4.62135721135014       -4.09185659918226
O            6.95745442487842        5.02729788841219       -3.29283382573121
H            6.86495361326911        4.34999851203731       -2.60189724483881
34
 energy: -54.754437774381 gnorm: 0.028795149820 xtb: 6.7.1 (edcfbbe)
N            0.94698194191082       -0.19630050365344       -0.45945319412165
C            2.41113343312739       -0.29382289358237       -0.39635357565779
C            3.04973680907877        0.71369608582607       -1.34349603312020
C            4.56979173921013        0.65005608832616       -1.29264790069255
C            5.23724952816880        1.82897655939252       -2.03223165951295
O            4.64095872684117        2.92367217559824       -2.07162384093102
O            6.36553330668551        1.60689287451615       -2.53348050000271
H            0.61816065072750        0.76635502824505       -0.23618562629508
H            0.60631146111320       -0.41151897476403       -1.39595624965362
H            2.71827776806312       -1.30443917415571       -0.66642913200155
H            2.73272138461000       -0.09360204787030        0.62468903960747
H            2.75457510598503        1.73013438621172       -1.07848508194972
H            2.73020779207311        0.53348551930577       -2.37162690941044
H            4.96212239039154       -0.27191392387052       -1.72420249620877
H            4.92150367370762        0.71647314258973       -0.25948527976087
H            0.49099510712415       -0.85029768569730        0.21347919931448
O            0.08268256159466        2.41130097121920        0.04617528208029
H            0.29105303162300        2.96776627735071        0.80111792870366
H           -0.15045694844199        2.98753146703739       -0.68579364404448
O            3.14649302961441        4.91801752540304       -3.37649630448482
H            3.64985942329850        4.24074603509612       -2.89377518202772
H            3.81011666318825        5.50597093789841       -3.75352824953937
H           -0.58714595865430       -2.77280075784725        1.09703208001038
O           -0.09345839854975       -1.98920773019812        1.35359981128772
H           -0.42326818908868       -1.69348157798634        2.20619809460196
O            8.12860235582943        3.19288392784891       -3.87738430903243
H            8.77785152376203        2.57165303844776       -4.21681338518853
H            7.47288291672221        2.65547047796991       -3.38484209791215
H           -2.05267710609599       -0.06101188098730       -1.47206701843178
O           -1.62820739818252        0.08713644213203       -0.62241795260638
H           -2.32272200630642        0.10944385980431        0.04405135175860
H            6.56821540358361        4.65935411477141       -4.08262649244841
O            6.91610788356668        5.07787055174418       -3.27963436428747
H            6.82362920711917        4.40178855037786       -2.60089580144210
34
 energy: -54.761305008337 gnorm: 0.025522509673 xtb: 6.7.1 (edcfbbe)
N            0.95565634241684       -0.19766468218794       -0.45135983264398
C            2.41919214813893       -0.29130915189010       -0.39257040823969
C            3.05699844673570        0.71642500442926       -1.34105330709847
C            4.57729478842039        0.65427443917348       -1.29294846793227
C            5.24979630886401        1.82400177144529       -2.03929031664349
O            4.67254418221641        2.92941314794377       -2.07187065907150
O            6.38428758735168        1.59349971625900       -2.52509756456717
H            0.61984427015492        0.76144031371199       -0.22897734315890
H            0.60757245953396       -0.41136598373248       -1.38600257089793
H            2.73018852879110       -1.30100988431473       -0.66285865914043
H            2.74677186455950       -0.09081147928771        0.62683167502237
H            2.75877619491535        1.73193880094234       -1.07629934024219
H            2.73513856379891        0.53379736325532       -2.36797606013768
H            4.96790283140028       -0.26965745067093       -1.72212366832720
H            4.92985292048126        0.72196531506956       -0.25994014508758
H            0.49289918680744       -0.84941908081970        0.21760760313007
O            0.10975040866447        2.42582402765092        0.04926489334849
H            0.29485464532065        2.98384883420300        0.80934777829370
H           -0.13708935329999        2.99875498099058       -0.68038603544567
O            3.14409506324679        4.90788914632113       -3.38291218725591
H            3.64713659176472        4.22791201294663       -2.90552125176608
H            3.80709365461542        5.51980232777806       -3.72362534167988
H           -0.57659485775816       -2.78319729155038        1.10371971177724
O           -0.08074094587794       -2.00200065509211        1.36248180493675
H           -0.40849448153559       -1.70797580902335        2.21622327831550
O            8.13967336439213        3.13731785253515       -3.90883986160083
H            8.82012208943238        2.53628796458859       -4.22447920977091
H            7.50535834963310        2.58434857355932       -3.40579483056313
H           -2.14399802209431       -0.05307577824885       -1.49123985722488
O           -1.68274489941503        0.03049643539329       -0.64697439567053
H           -2.37333495548167        0.14083422247630        0.02283523819581
H            6.58364538662011        4.70810035070070       -4.08435395476336
O            6.83759651460350        5.15796425822614       -3.25525342217524
H            6.77477363598304        4.44962927371835       -2.60215278531498
34
 energy: -54.764752372478 gnorm: 0.028227234651 xtb: 6.7.1 (edcfbbe)
N            0.95941345871981       -0.19532254204457       -0.44373743427345
C            2.42360709471052       -0.28729323484586       -0.39045694737508
C            3.06288441670592        0.72138030353775       -1.33943292538523
C            4.58370368626802        0.65458083921188       -1.28894801848770
C            5.27914151307048        1.82203769198179       -2.01619144572221
O            4.70338352543490        2.92654806685880       -2.08117588355163
O            6.39856628720109        1.56572092608347       -2.52608391824901
H            0.62516432984829        0.76260472181567       -0.22015183370750
H            0.60518924476735       -0.40918014175019       -1.37694646038821
H            2.73594408722622       -1.29675474459880       -0.66110703127193
H            2.75587562580071       -0.08773052976262        0.62804334135539
H            2.76577435085539        1.73677167995166       -1.07307874161994
H            2.74131048996877        0.53913969610704       -2.36648114505423
H            4.97187799355175       -0.27068245924993       -1.71825430612094
H            4.93451501755810        0.71921379331675       -0.25528969904223
H            0.49632188631944       -0.84788324239177        0.22400451703086
O            0.13157560001616        2.44217012569077        0.05623899677640
H            0.30330536705026        2.99770420828607        0.82057234354535
H           -0.11741015047210        3.01555263501800       -0.67151084497544
O            3.14370761314891        4.89222092558738       -3.39108212735078
H            3.65264521263535        4.21623233886461       -2.91503585759240
H            3.80100400181626        5.53777780852070       -3.68551043339366
H           -0.56362399058351       -2.79040774906865        1.10774378904259
O           -0.06214513542960       -2.01501179410723        1.37306361072297
H           -0.39022946055048       -1.72427168290570        2.22787322287521
O            8.13405106849987        3.06522496624500       -3.96579717979106
H            8.85547328347390        2.47941458061346       -4.23050180768387
H            7.52486391349040        2.50916167423888       -3.43259635507139
H           -2.22118709562649       -0.07966123458758       -1.50893798257894
O           -1.76112178058930        0.05303393893231       -0.68796057686944
H           -2.40668142431552        0.11383478935103       -0.00059560867555
H            6.58859597205990        4.79689067334965       -4.07285068660444
O            6.78043467761600        5.23711443236256       -3.23825652994387
H            6.72988813315384        4.51814742588771       -2.60115753396888
34
 energy: -54.767328252271 gnorm: 0.032844682578 xtb: 6.7.1 (edcfbbe)
N            0.96085300748493       -0.19148373773363       -0.43563278664622
C            2.42659126715773       -0.28109823772425       -0.38672646767985
C            3.06709827867552        0.72732668595836       -1.33722257118748
C            4.58810843628473        0.65267744759390       -1.28383661720133
C            5.29364638112780        1.80470960409408       -2.02697652241132
O            4.74294076852459        2.92232610482879       -2.08348648399825
O            6.42464003198105        1.53600936445198       -2.50543337102515
H            0.63146334057078        0.76706014633502       -0.21100298942573
H            0.60296266511785       -0.40779331654491       -1.36761171316224
H            2.73891482445753       -1.29073504406392       -0.65706255290015
H            2.76075820088937       -0.08128424539856        0.63131429829565
H            2.77325463818711        1.74397674714101       -1.07224854539693
H            2.74712470201398        0.54392956903316       -2.36440768536732
H            4.97232229397169       -0.27751733762075       -1.70620021947046
H            4.93926631602604        0.72337667112786       -0.25030958007559
H            0.50539314318866       -0.84710689125198        0.23477504499483
O            0.15067974003811        2.45606270159438        0.06127757793766
H            0.30981759343583        3.01075898822620        0.82866114886755
H           -0.10040248450869        3.02911190895327       -0.66590175388311
O            3.14833113678710        4.88307091576219       -3.38337313140212
H            3.66402688456254        4.20267486160333       -2.92167855278725
H            3.79444882491377        5.54211624268245       -3.65886105840772
H           -0.54317649171885       -2.80074770536382        1.11412822805953
O           -0.04336356966940       -2.02517271176894        1.38283285726975
H           -0.36616580398762       -1.74518966804142        2.24382989659738
O            8.13644297987839        3.00365046025921       -3.99886254823719
H            8.87441426138802        2.42754532900260       -4.23632247245841
H            7.52245535009326        2.44865004916965       -3.47199925173928
H           -2.33482030107644       -0.06910617040539       -1.53826347417572
O           -1.79728472434716       -0.04261508005101       -0.72904530865869
H           -2.43094955368864        0.17945859913391       -0.01567813571824
H            6.63001578185680        4.87946954212493       -4.08809224969575
O            6.71577678269832        5.31456002635153       -3.21805243005544
H            6.66023411108610        4.57960706704074       -2.60412007225570
34
 energy: -54.768117158896 gnorm: 0.030380887286 xtb: 6.7.1 (edcfbbe)
N            0.95829083691843       -0.18264423473408       -0.42901070923814
C            2.42560065872221       -0.27410295780776       -0.38342429411167
C            3.06999971165460        0.73197210459142       -1.33398809033592
C            4.59069686806375        0.64870478123358       -1.27913725906898
C            5.29941340270248        1.78198108882423       -2.05088936280163
O            4.77831358878391        2.91575935517466       -2.08409596338391
O            6.44769959221528        1.50803665436906       -2.48631781127915
H            0.63555818858844        0.77741888705552       -0.20222421850999
H            0.59796560268767       -0.40004716290220       -1.35983120865969
H            2.73567873535857       -1.28412741381727       -0.65445311633668
H            2.76066182412784       -0.07485598907090        0.63431204664661
H            2.78080488435186        1.75034863556120       -1.07116300233760
H            2.75084418906421        0.54838706008542       -2.36119187239144
H            4.96837540948992       -0.28832792488158       -1.69209427808457
H            4.94244795131053        0.72730704719185       -0.24594300646922
H            0.51094909713665       -0.84149308185621        0.24411982012666
O            0.16419197597362        2.46919592015026        0.06828857074589
H            0.31727014744019        3.02132154634181        0.83897181064503
H           -0.07652913656899        3.04451111539328       -0.66049550255890
O            3.15490489612776        4.86999791755817       -3.37585471973633
H            3.67905171136859        4.18843507483695       -2.92520238781397
H            3.79048886725489        5.54753297637582       -3.63010845013727
H           -0.51962408450560       -2.80759783943132        1.11771374542779
O           -0.02650875090870       -2.02834371663782        1.38852700592222
H           -0.33985779464789       -1.76532980067206        2.25929707887318
O            8.12933447744653        2.96233834381968       -4.03205336908506
H            8.86959501173420        2.38826052738247       -4.25039608882799
H            7.51605684167957        2.41629547504289       -3.49490023446415
H           -2.36530957219027       -0.09615196538551       -1.56086419338206
O           -1.85498239739536       -0.00699581653331       -0.75957960495436
H           -2.46600869500936        0.13602339786488       -0.04245017269094
H            6.64957474934826        4.94767173094785       -4.09405983665406
O            6.67490508190938        5.36776986120889       -3.20695024303555
H            6.61596494316799        4.61902728922023       -2.60614057543870
34
 energy: -54.768983001885 gnorm: 0.032075198519 xtb: 6.7.1 (edcfbbe)
N            0.95417071352840       -0.17332364398999       -0.42411256527576
C            2.42329680524638       -0.26653286380397       -0.38225538774545
C            3.07398528760320        0.73781447235769       -1.33007006550505
C            4.59442052493000        0.64395077965059       -1.27081973582327
C            5.32573299656971        1.77192723510754       -2.03169602390100
O            4.80371271311871        2.90258592752492       -2.09669617767100
O            6.45554099555991        1.47315574700912       -2.49369084150119
H            0.63779672734231        0.78832146291916       -0.19451965313409
H            0.59137536315205       -0.39149469744155       -1.35351755255419
H            2.73070949882875       -1.27675905486958       -0.65464851246498
H            2.75828998595141       -0.06897829999586        0.63562831835536
H            2.79046924102138        1.75724885956296       -1.06593082648179
H            2.75593836164504        0.55817166911563       -2.35819052349169
H            4.96409915158948       -0.29815400489602       -1.67966554523055
H            4.94243347190634        0.72083165245360       -0.23664789334013
H            0.51714498446094       -0.83597348399844        0.25246130442723
O            0.17478262648498        2.47908782504914        0.07346906419933
H            0.32403105489976        3.02880658446905        0.84695975477766
H           -0.05201883521209        3.05737316392630       -0.65784006144499
O            3.16254502359385        4.85206992015238       -3.37376825128417
H            3.69630063053787        4.17150907540680       -2.93249977962784
H            3.78847385578026        5.55913547695967       -3.59256120149401
H           -0.48945598753265       -2.81485438468286        1.12162008419176
O           -0.00674013883246       -2.02953804667142        1.39420756197631
H           -0.31003709452364       -1.78660112878098        2.27547140423742
O            8.09954077038785        2.91813903160552       -4.09972396244187
H            8.85891895529495        2.34238624972998       -4.26488353893232
H            7.51348958246746        2.39289804734218       -3.50258289913186
H           -2.40832957159937       -0.09856903132527       -1.58562490036279
O           -1.88842132386888       -0.03428885477492       -0.78444399849610
H           -2.49744246294812        0.14022174444627       -0.06797901693708
H            6.61892399850526        5.02461091486114       -4.07099596176058
O            6.65565920533756        5.40959810435716       -3.21205325226099
H            6.60648170217481        4.66350243772419       -2.60398885727101
34
 energy: -54.768853452466 gnorm: 0.040311905712 xtb: 6.7.1 (edcfbbe)
N            0.95115768824175       -0.16301887516269       -0.41937862856237
C            2.42170988512936       -0.25868626778159       -0.38127597621708
C            3.07902022561214        0.74424228491584       -1.32597749909108
C            4.59930832080351        0.63905048140596       -1.26096021558762
C            5.36374859465518        1.76953194585730       -1.98755616274711
O            4.82224620033970        2.88536103198360       -2.11702530475851
O            6.45664576772202        1.43684544852178       -2.51327803592089
H            0.63995316921713        0.79984932592739       -0.18725737618397
H            0.58467698160220       -0.38164295616662       -1.34688705559854
H            2.72582246694119       -1.26934841447354       -0.65492704205910
H            2.75640197707475       -0.06326884516249        0.63700464860995
H            2.80126949281433        1.76432766247734       -1.05863960703441
H            2.76177210154040        0.57025581994709       -2.35535069662310
H            4.96113644381229       -0.30721747414681       -1.66766126364916
H            4.94107585753617        0.71071858042916       -0.22514712648809
H            0.52293687136940       -0.82864104315763        0.26003935340053
O            0.18649726523047        2.48937710536260        0.07711698949461
H            0.33159992780208        3.03694139469828        0.85309070191100
H           -0.02708072717438        3.07068459352866       -0.65657203315971
O            3.17344349969234        4.84638607530850       -3.35713636135851
H            3.71225322344691        4.15544502800241       -2.93809857722564
H            3.78976369980612        5.55339508566368       -3.57313915634282
H           -0.45564886533697       -2.82030687166015        1.12464230349665
O            0.01681348533941       -2.03015968126952        1.40199010896052
H           -0.28128424758544       -1.80605003324879        2.29027585236714
O            8.09908800127404        2.88831018478446       -4.10869548412091
H            8.85068159409023        2.31469578037402       -4.27155558567749
H            7.49546821360314        2.37095732175275       -3.52990679482443
H           -2.45194116405751       -0.09897019314629       -1.61037669205633
O           -1.91915919302723       -0.07312197228642       -0.80869577029198
H           -2.52881689521226        0.15397408750503       -0.09593713366043
H            6.67655213763144        5.08112005044618       -4.10600820666574
O            6.59389678449567        5.45676686406459       -3.19181338431849
H            6.51481002897212        4.68047536120597       -2.61649228141760
34
 energy: -54.770562552962 gnorm: 0.013885276881 xtb: 6.7.1 (edcfbbe)
N            0.95165488962780       -0.15868980642336       -0.41672942822236
C            2.42195920234266       -0.25598944392128       -0.37845693951421
C            3.07953125080142        0.74592132956276       -1.32426928518037
C            4.59943332307322        0.63744752345825       -1.26090202732020
C            5.34834071780495        1.75120050472469       -2.02740122088685
O            4.83815983319113        2.88582786051454       -2.10768270090037
O            6.47025061273021        1.43216616434635       -2.49286245427138
H            0.64089097859040        0.80424209764814       -0.18478826520130
H            0.58379514552358       -0.37726163172079       -1.34388689514248
H            2.72451915834921       -1.26719095242600       -0.65222565468320
H            2.75722805338601       -0.06110175953334        0.63981518666271
H            2.80363418713663        1.76717273704151       -1.05900155044979
H            2.76199622658952        0.57054889174510       -2.35334126345276
H            4.95928451183894       -0.31285428820167       -1.66014683585996
H            4.94467678597048        0.71957563120956       -0.22625847634380
H            0.52261448163544       -0.82345719949558        0.26265159261104
O            0.18945017060413        2.49345308082081        0.07939031738475
H            0.33505236983596        3.03969505164079        0.85579983988344
H           -0.01911331087666        3.07617581186711       -0.65445132082684
O            3.17824195652493        4.84063699190209       -3.35236409325806
H            3.71908675238237        4.15352842368347       -2.93061183005820
H            3.79266185615328        5.54845562840649       -3.56575580419333
H           -0.44148926510100       -2.82131625153540        1.12544592909374
O            0.02882535016868       -2.03119793169282        1.40641670147870
H           -0.27277138047860       -1.80929476073520        2.29297023783944
O            8.08866076843940        2.87409301040097       -4.12350458314758
H            8.84901541613510        2.30055897594903       -4.27072281264528
H            7.48559119101457        2.36134685772745       -3.54121019192669
H           -2.46039814647273       -0.10366803922731       -1.61850446335471
O           -1.92813624593407       -0.08068972595985       -0.81722579734714
H           -2.53736228298033        0.15704198542683       -0.10576228742140
H            6.65399189796924        5.09069747188437       -4.09641750260589
O            6.58843078809848        5.46459339261503       -3.20255057876336
H            6.50811156932748        4.70661125479731       -2.61704503537701
34
 energy: -54.770752953533 gnorm: 0.025906881231 xtb: 6.7.1 (edcfbbe)
N            0.94983501143144       -0.14569678431757       -0.41146646203702
C            2.42040204531268       -0.24793728778834       -0.37545149584368
C            3.08330957657733        0.75200436699271       -1.31960799465670
C            4.60260640915260        0.63271698048686       -1.25465254595265
C            5.36076310606020        1.73381508618200       -2.03129989255817
O            4.86549713534421        2.87578410345268       -2.11100435528065
O            6.48066165867627        1.40216522236498       -2.49325322883055
H            0.64329696970338        0.81841597350838       -0.17807823223829
H            0.57830705495148       -0.36390604601348       -1.33724613310565
H            2.71860418652674       -1.26002370390143       -0.65064316245491
H            2.75645504719563       -0.05586481906273        0.64308839477394
H            2.81369989863336        1.77467479295923       -1.05335333221991
H            2.76563678505840        0.58005283754741       -2.34924445783203
H            4.95454503981725       -0.32367669962820       -1.64672295111615
H            4.94793148145930        0.71943170793415       -0.22035592642997
H            0.52427631269739       -0.81063100073866        0.26964510381631
O            0.19712751538102        2.50506607198862        0.08557264383447
H            0.34310286348242        3.04779172481677        0.86418256873678
H            0.00495310157810        3.09211164280244       -0.64984328760371
O            3.18940383669658        4.80855606176092       -3.36374882149762
H            3.74086171405717        4.13880565412137       -2.92870165656449
H            3.79811558383137        5.56749684431003       -3.51008013341197
H           -0.40268328820248       -2.82611184608399        1.12757268320607
O            0.05634556875226       -2.03087507515872        1.41364637483622
H           -0.24330869474050       -1.82465981468727        2.30477835545784
O            8.06723995286087        2.84582057474877       -4.16007704254614
H            8.83523672019038        2.27644450222012       -4.28592318479011
H            7.47455541795997        2.34165937696795       -3.55627870108125
H           -2.48253385036612       -0.11166563120028       -1.64485613905667
O           -1.95635839680627       -0.09178726910270       -0.84166872230429
H           -2.56152144005879        0.14541933113606       -0.13407667360507
H            6.63959085397282        5.13153347227051       -4.09452460650577
O            6.53861506123940        5.49631876945401       -3.20189977327543
H            6.46124857497639        4.72502976615745       -2.62601670526359
34