34
 energy: -56.714595468176 gnorm: 0.000354979409 xtb: 6.7.1 (edcfbbe)
H            0.13650985186024       -1.60416248491763       -0.01926365956304
C           -0.78010529344453       -1.02761516557269       -0.15914224787789
H            0.05620830228246       -0.04327066354935       -1.81217001504281
H           -1.51228925051019       -1.64880184410951       -0.67407311125972
N           -0.49743848953907        0.17532055176257       -0.96167712398672
H           -1.57732591980479       -1.50478421100004        1.79314227255791
C           -1.33770134891134       -0.62135187223348        1.20397209891351
O            0.10392008226502        1.27345271467842        1.45450515114199
C           -0.34918460441784        0.24275405244051        2.00239965226700
H            0.01937263785017        0.82452712446648       -0.34215828316956
O           -0.05731155899104       -0.11523394558518        3.16870950501939
H           -1.38969732025029        0.65685187170792       -1.22634926910129
H           -2.24496493822832       -0.02799051533111        1.06904967501761
O           -2.76344288586016        1.65644320346794       -1.38121580452748
H           -2.93251391629055        2.12381254902315       -2.20485792629400
H           -2.47448332553792        2.32541703505880       -0.73244231095654
O           -1.45705400548912        3.28861298907696        0.40850078350662
H           -0.89728850433794        2.64861442823648        0.88435827850599
H           -0.89547757546362        4.04792353899926        0.22486754805839
O            0.95699862914814       -0.49222050522767       -3.24258819102764
H            1.86213173925171       -0.80220955466401       -3.15032754078778
H            0.53880846287911       -1.01178911059765       -3.93599927134005
O            1.67771969483390       -2.95286219882348        0.84865184918303
H            1.23544652855733       -3.01913514277544        1.71225290360753
H            2.62147562710011       -3.00102819756707        1.02642238135231
O            3.55576169546807        2.81796002486910        5.17223219746512
H            2.71656232249075        2.34259214015267        5.04865416428480
H            3.31952521838402        3.74899027950071        5.22942772935383
O            0.99919411584851        1.63121049598958        4.99391837860624
H            0.68231543379593        1.04126215609116        4.27848498880675
H            0.57209124120139        1.31732022310289        5.79756520803076
O            0.49138699010717       -2.78520604687146        3.39113504954858
H            0.26790463761212       -1.83289286853537        3.38145013551564
H            0.91849472596633       -2.94986105128620        4.23776680428715
