37
 energy: -59.867022510447 gnorm: 0.006794101450 xtb: 6.7.1 (edcfbbe)
N           -0.47939057273023        0.71566589070126        1.83888189928834
C           -0.46865760642034       -0.45296302704303        0.93147830337024
C            0.28838178779534       -0.09365045511043       -0.34059407580544
C            0.38864912303551       -1.27401978564943       -1.30302918769122
C            1.28171955612959       -0.90677612902120       -2.50936305814125
O            0.95427163746909        0.08397885900471       -3.19950813791821
O            2.29432704269669       -1.61845519485618       -2.71274480108474
H            0.51950427595580        0.91596213743622        2.12789043601566
H           -0.84020400045322        1.53436501432762        1.34311184215156
H           -1.48732648365923       -0.74982577353410        0.68381576139092
H            0.04007909354640       -1.28078305209626        1.42608485257474
H            1.30240982484536        0.21798512684158       -0.09043478147078
H           -0.20208041464227        0.72836185854932       -0.86453346417949
H           -0.59403926683455       -1.54117753736780       -1.70039051171179
H            0.82853609605122       -2.14585905409155       -0.81631048588543
H           -1.04436752438435        0.53260132144503        2.67075395218629
O            2.36740525159038       -1.62935096454660        1.99251041151079
H            2.81573698869668       -1.76832767488127        1.13802471664478
H            2.79666269166662       -2.23018300480531        2.62451241428359
O            3.73434595720297       -1.87105543953085       -0.36991581248225
H            3.27187687932916       -1.87277812063556       -1.22770641932567
H            4.32613118616505       -1.09222641636611       -0.39231340152604
O            5.16690329400121        0.48487585431564        0.01243721958334
H            4.44209308060748        1.13984412733012       -0.05455307472651
H            5.34948980013209        0.38977496785309        0.95891721058722
O            3.65491528984473       -3.45442821285722        3.73294118167491
H            4.54346493123776       -3.70296972257093        3.45956642528474
H            3.18774907503353       -4.26454995855782        3.96220357825732
O            2.13306253070461        0.95961966118627        2.48804109605976
H            2.29276549490113       -0.00266749449009        2.30844179453893
H            2.40124346333205        1.12026671116160        3.39826770435220
O            1.04196634150622        2.59279924594935       -1.89071695872070
H            1.80048460869630        2.43872503937688       -1.30365167893961
H            1.01574853529736        1.82370470084635       -2.48406750834792
O            3.04192279020606        2.23095000701994        0.22589247985484
H            2.69647703589296        1.82239394304602        1.05078561879379
H            3.22948520548321        3.15007955157441        0.44367145952340
