34
 energy: -56.601884865165 gnorm: 0.180883571917 xtb: 6.7.1 (edcfbbe)
H            1.42053100000000       -0.69343900000000       -0.45759400000000
C            0.31562500000000       -0.64091500000000       -0.57275600000000
H            0.37944700000000        0.34125600000000       -2.37510200000000
H           -0.02020400000000       -1.57726700000000       -1.06978300000000
N           -0.04283300000000        0.48932200000000       -1.43082700000000
H           -0.10434400000000       -1.52577500000000        1.34227500000000
C           -0.35607200000000       -0.58177200000000        0.80987700000000
O           -0.15503900000000        1.84564400000000        1.27779400000000
C            0.09900500000000        0.57829600000000        1.65429800000000
H            0.33459400000000        1.38391400000000       -1.05046800000000
O            0.66999200000000        0.37333800000000        2.71201200000000
H           -1.08151800000000        0.54834700000000       -1.53303300000000
H           -1.45918500000000       -0.54094800000000        0.69330800000000
O           -2.05964100000000       -2.85313700000000        2.63526400000000
H           -2.22832800000000       -2.28290800000000        3.42709400000000
H           -1.27083500000000       -3.39727400000000        2.88488900000000
O            1.27696100000000       -2.80999000000000       -3.49043200000000
H            0.47412200000000       -2.25753800000000       -3.31477300000000
H            1.84497500000000       -2.68403600000000       -2.68911400000000
O            1.37396000000000       -4.73962100000000        1.66972800000000
H            0.78520500000000       -5.52936800000000        1.56835100000000
H            2.10634900000000       -4.89121200000000        1.02069800000000
O            0.46372500000000       -4.14234000000000       -0.23929800000000
H           -0.49988200000000       -4.14136000000000       -0.46748800000000
H            0.61204100000000       -3.27490800000000        0.21477000000000
O           -2.55998200000000       -3.40076100000000       -0.12631100000000
H           -2.62526600000000       -3.91237300000000        0.71903000000000
H           -3.31385900000000       -2.75985700000000       -0.08727800000000
O            1.09872400000000       -2.63780700000000        2.81587700000000
H            1.91518300000000       -2.20990500000000        2.45406800000000
H            1.43628400000000       -3.37115800000000        3.38934100000000
O           -1.29750800000000        1.67046800000000       -5.08681000000000
H           -1.35387300000000        2.65500900000000       -4.99674300000000
H           -1.33714900000000        1.50794700000000       -6.06283700000000
34
 energy: -56.635872662625 gnorm: 0.091622325769 xtb: 6.7.1 (edcfbbe)
H            1.40407854954851       -0.68666629719127       -0.45128719872539
C            0.31386218659943       -0.65071505014889       -0.57651067715525
H            0.37454543387044        0.36702531089423       -2.37249757401506
H           -0.01869771522559       -1.57563129169589       -1.06635107172002
N           -0.04142768773032        0.49052791705365       -1.43535958378102
H           -0.11633023684457       -1.49626213319705        1.35272011291644
C           -0.35393668094553       -0.57889258799355        0.79902068952279
O           -0.14231103380952        1.79647076287323        1.22650226222966
C            0.08803373156833        0.59415104692434        1.66210740914414
H            0.30962771544644        1.37487204438322       -1.02833510125562
O            0.68644431446018        0.38879699185029        2.72453393289567
H           -1.06714827771380        0.55470558037438       -1.53083073306153
H           -1.44416965750683       -0.53691144345605        0.68856093113577
O           -2.07910409133076       -2.88046339612599        2.65922765527075
H           -2.21802278842175       -2.28703427233693        3.41508705655298
H           -1.26023127064838       -3.36422678741882        2.87210724692910
O            1.28562936129441       -2.78993663549317       -3.49250815911453
H            0.47788134925465       -2.27715961945275       -3.31717862088618
H            1.83167028323362       -2.69338665525891       -2.69384218634632
O            1.46426415411184       -4.84975930894410        1.77099661537250
H            0.80413068287786       -5.54592533139207        1.56526660713750
H            2.10623594480903       -4.91767845913653        1.03134893903253
O            0.42984235812508       -4.08208086986615       -0.36266935702738
H           -0.53795355328957       -4.11185715384244       -0.48223098900317
H            0.57556565817035       -3.29940656803351        0.21500642174408
O           -2.57422898705511       -3.41670484482997       -0.13591511743161
H           -2.61394845119340       -3.88277987372968        0.71717985552064
H           -3.29724365475947       -2.77030660978781       -0.08984938470949
O            1.10462881975280       -2.60137562400847        2.85990329304702
H            1.90175004799413       -2.20567132311091        2.47310044539096
H            1.43324749753635       -3.35714957945769        3.37866534082680
O           -1.29623957491156        1.67836389224932       -5.09086923707381
H           -1.35372241963626        2.64374867359873       -5.00104526711373
H           -1.33551700763075        1.50719149570715       -6.04602755624917
34
 energy: -56.646459009311 gnorm: 0.035482548530 xtb: 6.7.1 (edcfbbe)
H            1.39405050492978       -0.68223315310215       -0.44935318972578
C            0.31386407930764       -0.66233830832126       -0.57940312956921
H            0.37414098328409        0.40915722328746       -2.36308461093747
H           -0.01879742199724       -1.57584890494690       -1.06839403946010
N           -0.04434293441103        0.49455257646291       -1.43114234983478
H           -0.12656281168823       -1.47398630331795        1.36899615073047
C           -0.34931962065528       -0.58024949247066        0.78948987657282
O           -0.15681103077378        1.75965917053643        1.17141854406613
C            0.13455099449508        0.62603440388787        1.62022542285583
H            0.27181697256769        1.36690853113660       -0.97812285203138
O            0.67763999055355        0.41641096168708        2.72450675265551
H           -1.06115638171241        0.55826219056581       -1.52479540398395
H           -1.43145708224154       -0.51426135468451        0.68739005766388
O           -2.09238202680155       -2.91260278971310        2.67938265546070
H           -2.22041861136925       -2.29360822892667        3.40039490265791
H           -1.23381335676976       -3.32411708837091        2.86135264776271
O            1.30663855688509       -2.75592121817724       -3.50906045246528
H            0.47085243076961       -2.31152191369866       -3.32381661375548
H            1.81424513481617       -2.71720376861201       -2.69079758298970
O            1.49030739053160       -4.91708793367994        1.77562154087720
H            0.84027608119490       -5.58925856251179        1.58137439950788
H            2.12012046722977       -4.96532667889729        1.05570257078665
O            0.39762784348770       -4.05079574767793       -0.41630846625781
H           -0.56169252937331       -4.08240253382292       -0.49689803437808
H            0.55746137229745       -3.32769917913902        0.21818771063449
O           -2.57483121021498       -3.43534993723240       -0.14006476178981
H           -2.59734677376483       -3.84356397647666        0.73324654439350
H           -3.27714874505595       -2.78414279803882       -0.11363925183486
O            1.09888611204412       -2.58928989994409        2.88176097183486
H            1.87887325143428       -2.17352271652776        2.51901476409733
H            1.42435756712824       -3.35106232040780        3.37100100468792
O           -1.29202404490261        1.68609118963512       -5.08772496737970
H           -1.35427616731062        2.63845133502901       -5.00229565218319
H           -1.33212398391367        1.49573922646974       -6.02613815866891
34
 energy: -56.653231769451 gnorm: 0.052554094416 xtb: 6.7.1 (edcfbbe)
H            1.38971814630691       -0.67500401822646       -0.44332257280211
C            0.31218726530520       -0.66994376571046       -0.57453550091080
H            0.38194921941244        0.45943420274601       -2.34188173542695
H           -0.01196021072097       -1.57691353090457       -1.07605098425938
N           -0.05374607641991        0.50078859159632       -1.41513411639338
H           -0.13363638306150       -1.46313919518155        1.38810929833666
C           -0.35669120841299       -0.58631748358274        0.78973925004141
O           -0.07789211336684        1.76163355719442        1.04567484861351
C            0.09149896514804        0.66313733200065        1.61275740858980
H            0.22153618087171        1.36347813454081       -0.90939164577558
O            0.69588475201041        0.46421446833018        2.69043074501814
H           -1.06786991461364        0.55257149896457       -1.51977888762427
H           -1.43430440780521       -0.50911944721696        0.68111534693164
O           -2.11081685942765       -2.96300329439423        2.69992895470993
H           -2.22376473812813       -2.28925137663589        3.37765077140537
H           -1.19108639668256       -3.27758810372507        2.84688553180008
O            1.34538758639648       -2.69754639853327       -3.54475591908535
H            0.45023520138344       -2.36426388906719       -3.32881438990172
H            1.78933048769063       -2.75954449771056       -2.67506724724641
O            1.54169378498708       -5.00890928031428        1.80257193783022
H            0.84504057670419       -5.62692848239576        1.55781842678139
H            2.12529730365329       -4.99793645800046        1.03342341607683
O            0.37094073384335       -4.02126362094173       -0.43435712979913
H           -0.58638306769016       -4.05812678212451       -0.49324571228460
H            0.54195045420585       -3.34922099684643        0.24290902723993
O           -2.57562836257311       -3.46941811827190       -0.14821199792954
H           -2.56642949586375       -3.78519622528558        0.77489598154073
H           -3.25452817498681       -2.79353982188371       -0.15340889250242
O            1.08282916977710       -2.59234162415069        2.90681357067697
H            1.84755497616371       -2.12545528923528        2.57564567086919
H            1.42072118577117       -3.37386414638450        3.35405752038413
O           -1.28491317618877        1.69220961796573       -5.07520475484656
H           -1.35621460290966        2.64229177228653       -5.00421468551006
H           -1.32668580077775        1.47194867109766       -6.00502453454705
34
 energy: -56.657202413868 gnorm: 0.065230073000 xtb: 6.7.1 (edcfbbe)
H            1.38848034590972       -0.67501587376000       -0.44425074642128
C            0.30923220235451       -0.67890613838764       -0.57330688212446
H            0.39935502626928        0.51530879875273       -2.31454681486961
H           -0.00860963247583       -1.58303348050872       -1.08752092974330
N           -0.06566830632181        0.50568795370891       -1.39638448540173
H           -0.14045886221144       -1.45036576986190        1.40878149045616
C           -0.36010241297846       -0.58715735837900        0.78963060080170
O           -0.01310243791228        1.77900698542565        0.92201117951552
C            0.10947916868171        0.70470388795294        1.56754545759834
H            0.16289478470996        1.35684255387389       -0.82614354106151
O            0.67654146059953        0.52400572204365        2.66693082623598
H           -1.08034184251614        0.53702760100683       -1.52411478887833
H           -1.43785868338276       -0.49101681933953        0.67853341198411
O           -2.05675972553732       -2.94713855957895        2.68278049389608
H           -2.24185196587178       -2.30210093459502        3.35995657557162
H           -1.19056600406774       -3.28402560629165        2.86032738993774
O            1.32048415438561       -2.74007216048458       -3.51913131599524
H            0.46105107186042       -2.36795041006763       -3.35900320537364
H            1.79224999994988       -2.76076002675489       -2.69498339817892
O            1.60020727788206       -5.10514127433816        1.83037801181765
H            0.84839894317189       -5.66561411554191        1.53522042782630
H            2.13854277339079       -5.03428589916584        1.01143899373201
O            0.34275930183674       -3.97769776549876       -0.47103906129117
H           -0.62611997446385       -4.03223922003595       -0.48014809289640
H            0.52228609446450       -3.37583863419284        0.28634517674668
O           -2.54591376377911       -3.47829542324552       -0.13030071285782
H           -2.54810393103757       -3.73740591208935        0.81146119880509
H           -3.23704170278952       -2.81092578877280       -0.20594361805528
O            1.05398153598132       -2.60945551832820        2.93041725594335
H            1.80120918808226       -2.05701788152539        2.65152103431522
H            1.42124260162454       -3.42132213171057        3.31719501513715
O           -1.27557480759537        1.69751150129822       -5.05524293358361
H           -1.35984745428940        2.65188270230267       -5.01028428748796
H           -1.31926942392146        1.43867699608878       -5.98010272610041
34
 energy: -56.662131013474 gnorm: 0.058843182401 xtb: 6.7.1 (edcfbbe)
H            1.38702806698481       -0.67870334600652       -0.45213804128656
C            0.30241176943825       -0.68094182367795       -0.57810539349013
H            0.41779412658206        0.55281408170320       -2.29212390490462
H           -0.01115597754695       -1.59043614495302       -1.09547728829992
N           -0.07839486112383        0.50767023587393       -1.38650105110619
H           -0.14517072096136       -1.43375715922698        1.41811208204805
C           -0.36155899315332       -0.57453406452934        0.78757579609236
O            0.02094684003741        1.80506822145755        0.87249994696005
C            0.17321575876235        0.72962718123074        1.51190957242507
H            0.11562409669847        1.34889011256309       -0.76508999088182
O            0.64540996819727        0.56492857787667        2.65551422929706
H           -1.09535598470025        0.51623985385753       -1.54356251740876
H           -1.44404596896122       -0.47062919380396        0.68209683754552
O           -2.07469129438001       -3.01385584179179        2.69947700290571
H           -2.25799633734193       -2.29585800614778        3.32839675808320
H           -1.12667394065502       -3.22941934529555        2.85033903364534
O            1.35755636309463       -2.68667624910672       -3.55176383988348
H            0.43975354547129       -2.41956740613670       -3.36641919677312
H            1.76734870384479       -2.80483529652055       -2.67532917915616
O            1.61808112497235       -5.14618269302734        1.82820040810064
H            0.88314407049858       -5.71328999616554        1.57371619398662
H            2.17417584554530       -5.07924978776708        1.04606907689321
O            0.30349698545396       -3.95412009886728       -0.49055490916845
H           -0.67029491007078       -4.00698349711314       -0.49268740692210
H            0.50675351086854       -3.37897558226619        0.26598337201220
O           -2.51150637539398       -3.47134147291613       -0.10527753638959
H           -2.53452515816295       -3.70565199420272        0.83386274553681
H           -3.22975700343863       -2.82820124763019       -0.24233380204795
O            1.02743134497348       -2.62612417728135        2.94171325462989
H            1.76481686459484       -2.01448773383844        2.70720395233858
H            1.42148164360799       -3.45617497531570        3.28542259922324
O           -1.26779898503808        1.69815623342797       -5.03564495124025
H           -1.36373973700073        2.66066532257625       -5.01634021452427
H           -1.31259938169436        1.41380931302026       -5.96071663823965
34
 energy: -56.664203015207 gnorm: 0.061743306441 xtb: 6.7.1 (edcfbbe)
H            1.37747752468037       -0.67459807247823       -0.46566292831621
C            0.29185594326113       -0.67262002688009       -0.58779973789135
H            0.42484521540840        0.57366248509964       -2.27986162997842
H           -0.01774987179604       -1.59008938484678       -1.09397274105144
N           -0.09378358517655        0.50932695698945       -1.39309868369676
H           -0.14105585857958       -1.40024780842165        1.41412365980906
C           -0.36233125011387       -0.54553175125258        0.78124990008172
O            0.08109403153741        1.82459161490838        0.86483352188408
C            0.18133144647305        0.74477930085780        1.50496693203681
H            0.07117859150824        1.34240069080157       -0.73818960251392
O            0.66323285580835        0.58734361858306        2.63432327064785
H           -1.10627051605968        0.49792648812998       -1.57700509322450
H           -1.44540049503379       -0.45541119971348        0.68546669458966
O           -2.02065327959260       -2.98038765646948        2.67576238728990
H           -2.27864298968656       -2.33135755978964        3.33204025535668
H           -1.12217076377334       -3.23485664016459        2.85331842537750
O            1.36114777709972       -2.68845162076757       -3.55604569484278
H            0.43357274015495       -2.44723405442957       -3.37872632155786
H            1.75699926768003       -2.82764474151494       -2.67588123723441
O            1.63152106090379       -5.18034049401505        1.83552415623022
H            0.91263664573845       -5.75055134483049        1.60956264281799
H            2.19237475595882       -5.10937318940077        1.07213857038260
O            0.26952761521970       -3.95053410663968       -0.46744443688710
H           -0.68671860603687       -3.97413524238721       -0.52426884094904
H            0.49883438358986       -3.37737952896616        0.24226672377396
O           -2.51763571545125       -3.49072669245679       -0.11314568852380
H           -2.49014220808169       -3.64799314462054        0.86459364952998
H           -3.22178762172261       -2.84374652244027       -0.24894169570514
O            1.00244665249959       -2.63393206122197        2.94021356505668
H            1.73922405457198       -2.04997665044373        2.71809209896926
H            1.39132980533652       -3.44503665540966        3.28934111849127
O           -1.26133735720037        1.69462990489444       -5.02328063125175
H           -1.36527694163930        2.65556586582778       -5.01237837014097
H           -1.30846830748305        1.40980122346729       -5.94408723855939
34
 energy: -56.664642763008 gnorm: 0.083250416262 xtb: 6.7.1 (edcfbbe)
H            1.36447195689102       -0.67230885570072       -0.48653447660393
C            0.27964191855196       -0.66128154049332       -0.60051445781847
H            0.42866937923216        0.59740874375598       -2.26231305941489
H           -0.02982729072356       -1.58765918709156       -1.08649787889862
N           -0.11052967395208        0.51208288292301       -1.40303210855431
H           -0.13342436782898       -1.35754040688029        1.41075028534032
C           -0.35903009775750       -0.51024238957099        0.77346957019589
O            0.15658833070366        1.83554671938958        0.85089252555495
C            0.17158454493730        0.75781583327944        1.50743372135965
H            0.02364594513180        1.33031857254418       -0.71153661282582
O            0.68077274390443        0.61973827577187        2.61376965401452
H           -1.11210945852122        0.48159936300421       -1.61949489689477
H           -1.44062735337736       -0.43895100016139        0.68922638205666
O           -2.02936089366050       -3.03147909828792        2.68884196875177
H           -2.29953339030171       -2.35499130755916        3.31317897941342
H           -1.05122099416050       -3.16470362053649        2.83664554976005
O            1.33185486275682       -2.73892760733076       -3.52882802993792
H            0.44425962677614       -2.45363509716269       -3.40231495953261
H            1.75975838317129       -2.83389508851059       -2.69853840170142
O            1.66235489759781       -5.23118958464821        1.83804260115277
H            0.91254563599124       -5.76650488646785        1.59288921685775
H            2.19460766782764       -5.12535273914960        1.04799004195826
O            0.26237725061587       -3.91568979125178       -0.48987900109087
H           -0.69715664891868       -3.93118550691812       -0.51778462849322
H            0.49523746096875       -3.43065806475276        0.34979585862604
O           -2.48735367232956       -3.45180216662609       -0.09034089159365
H           -2.47184357970666       -3.63004245205134        0.84767365239483
H           -3.22586977537399       -2.86903971092319       -0.23940064309083
O            0.97478340288924       -2.65389758435334        2.93768871664278
H            1.69857431409330       -2.07800045607999        2.75393650157707
H            1.37111392683985       -3.45214687641968        3.26592110686227
O           -1.25334326746766        1.69055990455239       -5.01133011149500
H           -1.36603508296359        2.64452906749318       -5.00860260078618
H           -1.30437170183256        1.40939765621237       -5.92317657378665
34
 energy: -56.665741388325 gnorm: 0.094532948828 xtb: 6.7.1 (edcfbbe)
H            1.36030536033623       -0.67137085225224       -0.49867695209429
C            0.27605982962303       -0.65792985020881       -0.60389510866860
H            0.42974823840546        0.61798727480598       -2.25433563592684
H           -0.04203445082469       -1.58429594420603       -1.08103901517701
N           -0.11632799728625        0.51823065333254       -1.40344164087065
H           -0.13097844970814       -1.35020556571199        1.41941078681174
C           -0.35058663221572       -0.50666197951083        0.77469874361230
O            0.17271674028209        1.82777242831811        0.80857127857978
C            0.19488633943372        0.76449275331359        1.48815440891997
H            0.00966410653334        1.32867023002955       -0.70316272639903
O            0.65779298893137        0.64726425256988        2.62783469278676
H           -1.11139377102187        0.48391067413676       -1.63442974964232
H           -1.43185028070746       -0.42175885022903        0.69282243297950
O           -1.99629265061418       -3.01494895010701        2.67321760609004
H           -2.29887375906153       -2.36025507302047        3.30322672705427
H           -1.06271207836896       -3.17506892673810        2.85011298728388
O            1.38585447106429       -2.65823436255274       -3.57594993266633
H            0.41672796398781       -2.51302270201414       -3.39911526532846
H            1.72494722356987       -2.88971172578592       -2.66420775455278
O            1.71412003258481       -5.28304484241137        1.88197210951275
H            0.88586628457755       -5.75442611426797        1.55479195990127
H            2.18346033732510       -5.12103463665880        1.00794458591410
O            0.27396034808946       -3.90125830151379       -0.48556892975780
H           -0.69999327690801       -3.94019971377194       -0.47355498392457
H            0.49324741462350       -3.43335445598623        0.36596072689075
O           -2.48448627936045       -3.45400429783423       -0.08341756630261
H           -2.45569452758356       -3.58735138213541        0.87231638330411
H           -3.23373209961609       -2.88563395010877       -0.26036193323479
O            0.95219642727216       -2.68697983928611        2.93397780182986
H            1.65960337253877       -2.02058955504980        2.82055396076442
H            1.38106561625447       -3.51460826423077        3.20645430337256
O           -1.24807468433835        1.69278227474832       -5.00191000717962
H           -1.36689773019858        2.64420410383229       -5.01075430984049
H           -1.30108942761426        1.39850749050340       -5.91017298404123
34
 energy: -56.664787857615 gnorm: 0.104133366943 xtb: 6.7.1 (edcfbbe)
H            1.36111117994478       -0.66683886488461       -0.50380978537535
C            0.27431847003151       -0.65576929080773       -0.60033507206999
H            0.43404904835517        0.63166012512246       -2.25642191368049
H           -0.05295640457155       -1.58075550933319       -1.07787237239786
N           -0.11928624997881        0.52447098077730       -1.40092617457910
H           -0.13128952612186       -1.36448886590233        1.42927292813167
C           -0.34614266067378       -0.51666239841252        0.78418463426156
O            0.17858996125267        1.82847956856272        0.76534869730449
C            0.21344106355764        0.76485023345076        1.47508212509017
H            0.01303609532283        1.33710656026911       -0.71403328510431
O            0.63695632976814        0.66229139539260        2.64888112572798
H           -1.11420246650171        0.48990855455902       -1.64104713016813
H           -1.42982430884293       -0.40953166636978        0.69743595128286
O           -2.00240051432992       -3.03533328333579        2.67388733003235
H           -2.29216438241907       -2.34844497153468        3.29097594534473
H           -1.05323230680180       -3.16220426700758        2.85399695146323
O            1.34410797633773       -2.73207031598245       -3.54018326963250
H            0.43247323481386       -2.48681197468217       -3.41569181923688
H            1.74421638410337       -2.86381739020489       -2.68691442424005
O            1.69069898755632       -5.25504647576928        1.85954094746332
H            0.92803350833823       -5.78453483746441        1.61182959055894
H            2.21997726735709       -5.15378761596561        1.07210625526187
O            0.26484124384101       -3.91022071222532       -0.46429537970673
H           -0.71260502512661       -3.95573807242261       -0.46629985716689
H            0.48159614444784       -3.39007348794191        0.26243232563133
O           -2.50176109709236       -3.48783934833311       -0.09635755589859
H           -2.43162717908523       -3.53261865814751        0.92277516049665
H           -3.24051751431470       -2.89031200500485       -0.29025224297883
O            0.93740246684910       -2.69500418507498        2.94397132776952
H            1.64105339529238       -1.98961401682703        2.83859913079493
H            1.38575973757306       -3.56484024125393        3.16914401503899
O           -1.24525705544539        1.69693350297886       -4.99023388256973
H           -1.36912583821344        2.65343327561608       -5.01348508229744
H           -1.29806496521827        1.38109625815728       -5.90327819455220
34
 energy: -56.665470171487 gnorm: 0.109881126678 xtb: 6.7.1 (edcfbbe)
H            1.35790434348916       -0.66552855762813       -0.51678772167895
C            0.26921103540834       -0.65068638709378       -0.60766321003432
H            0.43861283493380        0.63830534470699       -2.25822626163254
H           -0.06175492647595       -1.57986907210508       -1.07728307770162
N           -0.12466006929754        0.52433570573780       -1.41096130014500
H           -0.12342473213309       -1.35226769831159        1.42013470632648
C           -0.34322858136831       -0.50013350342856        0.78196490140746
O            0.18300358654104        1.84149628920520        0.80266332941161
C            0.21119921456693        0.76931827568465        1.47852728596971
H            0.00454820282327        1.33408027708711       -0.71617777056027
O            0.65462710474168        0.66542064901972        2.63196649179888
H           -1.11708857076709        0.48505625032983       -1.66288288520088
H           -1.42819180604646       -0.40031584991008        0.70488088517349
O           -1.97010171203172       -3.00701879516304        2.65977153602276
H           -2.29124453923773       -2.36041394197780        3.29515305419145
H           -1.06534351944827       -3.17304391733631        2.85779812927124
O            1.36115590406025       -2.71019496718322       -3.55429131025981
H            0.42295164025524       -2.51428160965952       -3.41847936592936
H            1.72886008466107       -2.88651254139552       -2.67601871183218
O            1.65845698189743       -5.23392293972272        1.80965423191647
H            0.96428638435051       -5.81127715522952        1.64418641060124
H            2.23646184904539       -5.17192642034460        1.09741782944224
O            0.26140899334306       -3.88646884140439       -0.50699192029108
H           -0.71630631540798       -3.92273927058133       -0.48460377089114
H            0.48289536143281       -3.43151009514071        0.34777536028188
O           -2.45267054936489       -3.42194097337805       -0.05444587253054
H           -2.46172771528307       -3.57685546689442        0.87437644645995
H           -3.25022811797725       -2.89947008886709       -0.27183422272650
O            0.92910228452910       -2.68781684244713        2.94154832424464
H            1.63671466858816       -2.07373365598823        2.80105250695151
H            1.35274799229446       -3.52366117878593        3.19602287803182
O           -1.24131225206688        1.69456688474811       -4.98272319839682
H           -1.37047289948581        2.65152072211812       -5.01325992629539
H           -1.29518716056509        1.37536137133732       -5.89423678139617
34