37
 energy: -59.872730945978 gnorm: 0.000382611704 xtb: 6.7.1 (edcfbbe)
N            0.03325121398525       -0.91464846633063        1.71070729817560
C            0.87841356354561        0.09581515255961        1.04912136077287
C            0.12087609349968        0.83796902443195       -0.05239592300536
C           -0.76342049830631       -0.06541390966206       -0.92570031549729
C           -0.04101177930359       -1.33708429750356       -1.38619046128593
O            0.62898945926969       -1.31223516524674       -2.43863357041179
O           -0.16992300065680       -2.35975238142703       -0.65818744483574
H            0.50824659335367       -1.28936249731785        2.55291356113202
H           -0.89019438795106       -0.53601679427781        1.98812132418777
H            1.22861394171669        0.80936936893898        1.79612213190750
H            1.74380750978266       -0.41702320419752        0.62294013143311
H            0.85087734050313        1.33866370827447       -0.68876100672772
H           -0.52115715557255        1.60234832692539        0.38698335130215
H           -1.65456956935902       -0.36784978579644       -0.37550430961873
H           -1.07682983628381        0.48742291179186       -1.81237591428141
H           -0.12929245698510       -1.67687275966858        1.02535141282055
O            1.25485273802697       -1.89772548334474        4.04821514213832
H            0.59603209374485       -2.20787942074951        4.67850708888491
H            1.88052028828575       -2.61493520458324        3.90535106507470
O            3.65075154017989       -1.56427808455606        0.02381877580329
H            3.38154614576538       -2.07054947663242       -0.76364963909880
H            4.49179773462626       -1.15657966917239       -0.20192024639613
O           -2.68133277722306       -0.65831986690636        2.23758696139274
H           -3.49006191378488       -0.14821939743036        2.15937882508792
H           -2.79486920302752       -1.45950181961266        1.69329220361547
O            2.79195881054036       -2.91143097903689       -2.26323402749968
H            2.45771078999259       -3.81275215417863       -2.21544600113734
H            2.00367697552120       -2.34233026112242       -2.42145236842616
O           -2.57692673442936       -2.85898865999016        0.55488705003210
H           -2.61488577823365       -3.78775853952661        0.80103324523635
H           -1.75096999334584       -2.74779741830571        0.04178951019699
O            2.09233266540077        0.88367367388144        3.97373031846856
H            1.84793930250262       -0.04241239846053        4.12551811308843
H            3.04726578327442        0.93114837534801        4.06961672192184
O           -2.54967066542289        1.87604767817696       -3.30338314980716
H           -3.12121764241030        2.60948248988312       -3.05138797428195
H           -2.53256019111966        1.84807938472653       -4.26464524041664
