34
 energy: -56.700081553041 gnorm: 0.000769422803 xtb: 6.7.1 (edcfbbe)
H            0.60515317552647       -1.54022126642029       -0.69681698424762
C           -0.17478622225968       -0.81896006114103       -0.45131379361215
H            0.18778156082694        0.09255569092355       -2.29790338709819
H           -1.14422176120759       -1.29817697064853       -0.58354930766151
N           -0.03148706795242        0.35990932048053       -1.33701213660522
H           -0.15129814961610       -1.19782591950598        1.67995429092674
C            0.00520206911811       -0.36770584832259        0.99511839965638
O            1.76474862674626        1.13698025010621        0.41980981656155
C            1.42494351524577        0.20404157492280        1.19063138464630
H            0.76662940124485        0.90853597013068       -0.89934926699944
O            2.15676762935041       -0.29594087762925        2.07137022409345
H           -0.87363466826510        0.93881626477749       -1.31788428410026
H           -0.70589903777338        0.42215779804865        1.24307666257860
O            0.48314792239025       -4.52073938377007       -2.08458452795294
H            1.16459147462162       -3.94396156268012       -1.68356914847405
H            0.74680136750800       -5.42374132330142       -1.87999533879818
O           -1.64063857333828       -3.66511380748844       -0.52633843501748
H           -0.93219841053509       -3.97065679233918       -1.12701609034630
H           -2.39855531106791       -4.23330971160265       -0.68795025508844
O            2.34948605018019       -2.97237335937818       -0.81209809359658
H            2.28863864468927       -3.05265895837997        0.15823533714792
H            3.28222213430864       -2.87780602510152       -1.02351787219257
O            2.14220216858850       -2.98228988263243        1.93780856458541
H            2.73252992984707       -3.34980489448994        2.60256977776914
H            2.14803851914154       -2.00775496321702        2.07565191987917
O           -1.98472839521610       -4.69722478975713        4.19318292294944
H           -1.48757027907881       -4.34695825752707        3.42988128234066
H           -2.38988823478501       -3.92932089596875        4.60707753728238
O            0.10256344087733       -3.95168207048913       -4.84017531636502
H            1.01114161313975       -3.87138152675788       -5.14731654817597
H            0.15461821981395       -4.14696404802399       -3.88771343601855
O           -0.65593273087548       -3.49472892892747        2.06057270652582
H            0.31074463511564       -3.45932911317137        1.97679208992408
H           -1.00548425641877       -3.56712363064423        1.14977530545137
