34
 energy: -56.596365584363 gnorm: 0.169219224095 xtb: 6.7.1 (edcfbbe)
H            1.42053100000000       -0.69343900000000       -0.45759400000000
C            0.31562500000000       -0.64091500000000       -0.57275600000000
H            0.37944700000000        0.34125600000000       -2.37510200000000
H           -0.02020400000000       -1.57726700000000       -1.06978300000000
N           -0.04283300000000        0.48932200000000       -1.43082700000000
H           -0.10434400000000       -1.52577500000000        1.34227500000000
C           -0.35607200000000       -0.58177200000000        0.80987700000000
O           -0.15503900000000        1.84564400000000        1.27779400000000
C            0.09900500000000        0.57829600000000        1.65429800000000
H            0.33459400000000        1.38391400000000       -1.05046800000000
O            0.66999200000000        0.37333800000000        2.71201200000000
H           -1.08151800000000        0.54834700000000       -1.53303300000000
H           -1.45918500000000       -0.54094800000000        0.69330800000000
O            0.72424000000000       -4.37915900000000       -2.38198500000000
H            1.59029900000000       -3.90821100000000       -2.47558100000000
H            0.77745800000000       -4.82310100000000       -1.49841500000000
O           -2.09313300000000       -3.97609200000000       -0.92492100000000
H           -1.16674800000000       -3.82647100000000       -1.24120300000000
H           -2.04541700000000       -4.81877600000000       -0.40702100000000
O            3.13262000000000       -3.15513300000000       -0.45669700000000
H            2.49623000000000       -3.91372700000000       -0.46908600000000
H            3.00301900000000       -2.73705100000000        0.43157300000000
O            1.40626100000000       -3.44276000000000        3.29737100000000
H            1.16368800000000       -4.39553900000000        3.17912100000000
H            2.30970600000000       -3.36551400000000        2.89933600000000
O           -1.11423400000000       -3.16019600000000        3.96908400000000
H           -1.10369600000000       -3.58255300000000        3.07347500000000
H           -0.63053600000000       -3.79939100000000        4.55052900000000
O            0.30388100000000       -3.53410600000000       -4.92156900000000
H            0.70531800000000       -2.65322100000000       -4.71299900000000
H            0.94718100000000       -4.19258400000000       -4.55662500000000
O           -0.18682300000000       -4.42981200000000        1.21413100000000
H            0.75217300000000       -4.17356000000000        1.03183000000000
H           -0.71985700000000       -3.65380200000000        0.90705500000000
34
 energy: -56.619442108834 gnorm: 0.088155712050 xtb: 6.7.1 (edcfbbe)
H            1.40561239294902       -0.69001183907432       -0.45342286188753
C            0.31533191356401       -0.65667706780216       -0.57716610169363
H            0.37755892473834        0.36984802620351       -2.36684328122466
H           -0.01529053828452       -1.57737388068418       -1.07590928260186
N           -0.04175789527736        0.48731410538784       -1.43053214676196
H           -0.10788112357000       -1.49411172175919        1.36552269554437
C           -0.35299907072294       -0.58567389345211        0.80005331506885
O           -0.13410065496699        1.78685678528734        1.20710472796469
C            0.08519462932887        0.58988474238107        1.66204484502032
H            0.30455539670085        1.37068671248191       -1.01706703405828
O            0.69292085292180        0.38865067674976        2.72036130182048
H           -1.06734174987847        0.54945858947844       -1.52732481653961
H           -1.44369898841757       -0.53933118481434        0.68930327152608
O            0.72527987828847       -4.33708121470290       -2.32906741052680
H            1.60042566654502       -3.92275146852045       -2.43828356130984
H            0.79032255680573       -4.85892151147330       -1.50745519083561
O           -2.07391385190546       -3.94485241173234       -0.87717985731558
H           -1.18879827451332       -3.86813648410393       -1.29868352718536
H           -2.05172132646749       -4.81223737288373       -0.43222123629691
O            3.09496833820533       -3.13832906893222       -0.46320756570489
H            2.51847026401198       -3.92414909461671       -0.44288547330303
H            3.01276336451585       -2.74001787952298        0.41919875269308
O            1.43561902148403       -3.45148549739307        3.27802277616893
H            1.18845340697847       -4.38814270395740        3.17591806332591
H            2.33953014430241       -3.38149496200253        2.93239512225772
O           -1.18142205181535       -3.18953468895779        3.97546173063723
H           -1.09530846039855       -3.59513048222906        3.09101626011324
H           -0.64356488351845       -3.76198218148633        4.55282148983110
O            0.31957953138316       -3.51758108721287       -4.96250772477186
H            0.71400225073720       -2.66177102953852       -4.72727539415522
H            0.91231128936778       -4.18437602257078       -4.57300335123692
O           -0.18924304178435       -4.43456484556793        1.17228656718523
H            0.73274246656301       -4.14241775019184        1.05502394874004
H           -0.72697137787050       -3.66532029278683        0.91090494951248
34
 energy: -56.627989084951 gnorm: 0.047757909747 xtb: 6.7.1 (edcfbbe)
H            1.39712985353541       -0.69678609997654       -0.45595604584286
C            0.31887334826205       -0.68035880113348       -0.58101184476131
H            0.38015308298636        0.41130693369040       -2.34965310438243
H           -0.01526200833092       -1.58363973136486       -1.08144471552835
N           -0.04305177589035        0.48468433031422       -1.42175611742975
H           -0.11073064420805       -1.47621253334967        1.38520360564317
C           -0.34160849412910       -0.59806018216119        0.78895890164650
O           -0.16597346088621        1.73103000008209        1.15941122198419
C            0.15953018477161        0.61963763110405        1.60635773214519
H            0.26110328237938        1.35321907709291       -0.95162034204556
O            0.68312735265956        0.40482103019337        2.72311352404185
H           -1.05810390076130        0.54467381051461       -1.51392333011490
H           -1.42311867139656       -0.52307476448308        0.69364073397116
O            0.73847307095063       -4.31405914664970       -2.27831643201719
H            1.60362504649896       -3.91734421375188       -2.38292547626696
H            0.79253709518573       -4.88768835163986       -1.50816218797338
O           -2.05911751897814       -3.93850230414304       -0.88914622351726
H           -1.20671653280704       -3.89837599411525       -1.34826162895459
H           -2.06414447877265       -4.78476001147811       -0.44532899394022
O            3.06267019715440       -3.13431658767123       -0.46269862000557
H            2.53696916162354       -3.93809561203740       -0.40824294842370
H            3.02032771324258       -2.72736027437251        0.40015347345140
O            1.46036233998699       -3.46746113204367        3.24361035515573
H            1.22323541944949       -4.39492065592847        3.17405356015881
H            2.38205836308911       -3.39639970488045        2.98760790888623
O           -1.22805478916282       -3.21049436713042        3.97177447444317
H           -1.10396183086152       -3.61888657254458        3.10870736843458
H           -0.67230445880889       -3.72500041713482        4.56248078355449
O            0.33572202261517       -3.50007100766418       -5.00584529298397
H            0.72755544569128       -2.66546079543873       -4.75836696851596
H            0.87287282438127       -4.17859340164235       -4.58882347870487
O           -0.18042931100689       -4.42340535202046        1.16288816250973
H            0.71618445406940       -4.09288353564444        1.07731798618702
H           -0.74830338253255       -3.69791926259115        0.89360795919609
34
 energy: -56.635862089826 gnorm: 0.062557177128 xtb: 6.7.1 (edcfbbe)
H            1.40112966487787       -0.70362081474086       -0.45558987973728
C            0.32189163594293       -0.69589688724354       -0.57574033813065
H            0.39007121663271        0.44698136288531       -2.32609588606372
H           -0.00768756119312       -1.59420301968081       -1.09006594873655
N           -0.05001690822590        0.48254081154318       -1.40164017627233
H           -0.10329186715594       -1.48545720470023        1.40097994601758
C           -0.33944728529556       -0.61764149842332        0.79351981530323
O           -0.09959931500869        1.73355956357833        1.05936553496002
C            0.12172531744480        0.64008830605473        1.60242692668537
H            0.22141867825549        1.34346258810883       -0.88725709591647
O            0.71230117065092        0.43665715147838        2.68503785584594
H           -1.06561862662428        0.52809546837034       -1.50284268131468
H           -1.41932561287864       -0.53912391611948        0.69466916899538
O            0.72851465120998       -4.26042196379316       -2.22409158182033
H            1.62030036093185       -3.91551468260725       -2.33577522479952
H            0.79629441644595       -4.93380291765124       -1.51324461980633
O           -2.03732210044627       -3.89698490651000       -0.86373631366538
H           -1.21582344091189       -3.94064147621275       -1.42186902332963
H           -2.09058362203749       -4.77879776661009       -0.47521165526416
O            3.01149741503168       -3.11148611266104       -0.48012931714261
H            2.55934576860324       -3.97154473123267       -0.35719371970915
H            3.04254755805593       -2.71210037708779        0.39566347237987
O            1.46863509095885       -3.47402716982039        3.19814529958789
H            1.25753803942529       -4.41421882775408        3.18295448886994
H            2.43633888709385       -3.41290856286106        3.05636242575469
O           -1.30070765520316       -3.24231319187315        3.97058213326518
H           -1.09942185628939       -3.65005725306856        3.11190219379062
H           -0.68152373203859       -3.68060685269035        4.58394680096322
O            0.35024296553485       -3.48161611697908       -5.06643638303665
H            0.74272295172202       -2.65579772612759       -4.78104277688381
H            0.82993135006612       -4.18138593046269       -4.59595638120004
O           -0.17398268631361       -4.43054970979048        1.13182198272634
H            0.71053168371993       -4.02067686718947        1.11725263414598
H           -0.78699755298183       -3.73074676812774        0.87669232353891
34
 energy: -56.637275018501 gnorm: 0.074534290715 xtb: 6.7.1 (edcfbbe)
H            1.40311870353976       -0.71777167979133       -0.45381710876358
C            0.32056844383386       -0.71650935897888       -0.56740254786550
H            0.40580513622121        0.49179135893144       -2.28936842811473
H           -0.00147411541533       -1.61311925653792       -1.09663520028680
N           -0.06300872047163        0.47664744892565       -1.37263806866351
H           -0.09643743330670       -1.49213231944737        1.42798955249070
C           -0.33856855946592       -0.63707361415152        0.80386109150365
O           -0.00892716319510        1.74474537504947        0.92594130224822
C            0.09483693971969        0.66156182862106        1.59110636494236
H            0.16421372352439        1.32697333939603       -0.79964181466697
O            0.72107831022119        0.48741302665681        2.65678368367835
H           -1.08038465773903        0.49778373287669       -1.49498848637737
H           -1.41908004468767       -0.55915333197241        0.70011212759912
O            0.74703911194794       -4.28640933312224       -2.20299672515942
H            1.61595238132241       -3.89203955594476       -2.27815663857437
H            0.77156550960046       -4.91493846201153       -1.48916575555531
O           -2.03487178018789       -3.92008113584031       -0.96218649009174
H           -1.20659246470743       -3.91028298731897       -1.40056391897462
H           -2.11733432421243       -4.76096725153859       -0.50996177329781
O            3.00471941290058       -3.13264168442610       -0.46955575997212
H            2.54913371384776       -3.96955194145784       -0.32353953664140
H            3.05728136064609       -2.68947035337977        0.38440075267075
O            1.52475536495737       -3.49775976124963        3.20047635093897
H            1.30633837467178       -4.43760771543314        3.20138556224690
H            2.47537109905593       -3.42994952276326        3.06837216103225
O           -1.33072797065866       -3.25521851710650        3.95691388900014
H           -1.10220223635703       -3.67598325922722        3.11215955479701
H           -0.72210031663982       -3.65239218488504        4.60017216290689
O            0.36612075755048       -3.46899927244734       -5.12928701871532
H            0.75499199378247       -2.64896693092653       -4.80142418201882
H            0.78551482450604       -4.18338701304431       -4.60309189878329
O           -0.16537940262405       -4.42607125303161        1.12467728012032
H            0.69638643999687       -3.94854923295794        1.15620422692037
H           -0.82607341217797       -3.77064718146487        0.84126928942767
34
 energy: -56.644764534928 gnorm: 0.040956177744 xtb: 6.7.1 (edcfbbe)
H            1.40416015466280       -0.73218147237073       -0.46227185824199
C            0.31833266774372       -0.72933035088432       -0.57150767007924
H            0.41960706601477        0.51451426291903       -2.27062662429056
H           -0.00266791708788       -1.62953026161582       -1.10015476869629
N           -0.07152873159736        0.46794860318520       -1.36354628093245
H           -0.08804172083177       -1.48418760207262        1.43937508251253
C           -0.33135304050666       -0.63554792757394        0.80329831047701
O            0.00483934814016        1.75268557651008        0.89858586783635
C            0.15514373929238        0.67178865574699        1.54736233022622
H            0.12786184536702        1.30964580022697       -0.74945746960088
O            0.70356419357141        0.51343258871071        2.65171373274122
H           -1.08973239821017        0.47010839231406       -1.50576220518568
H           -1.41598095311914       -0.55866506654315        0.70862863029660
O            0.73824697678316       -4.26237712545499       -2.17462420519544
H            1.62458852794277       -3.88962541251591       -2.23351714949261
H            0.75888065150261       -4.94214529063176       -1.49447879980499
O           -2.01142763195249       -3.86446642843156       -0.91681909528876
H           -1.20753679839917       -3.95209727306177       -1.46873527477846
H           -2.15048117521000       -4.76398955372624       -0.55366045653065
O            2.98581810915354       -3.13933518266745       -0.46788936016653
H            2.55395675464272       -3.98351858120710       -0.28566355902199
H            3.07040935962487       -2.68150165384582        0.38023148805098
O            1.54676297841062       -3.50449276700668        3.18548976662952
H            1.33981196151860       -4.45140609237642        3.21923983790020
H            2.50041829273294       -3.43669898959972        3.09342315553527
O           -1.34128022592886       -3.26094464512622        3.94865584072012
H           -1.11050518405901       -3.69237637976169        3.11442664487135
H           -0.75480708083830       -3.64194899551459        4.60828032510912
O            0.36662347487507       -3.46768231224274       -5.13398656169987
H            0.76285470586977       -2.64590016851659       -4.82221456148408
H            0.78723860476896       -4.17543171643000       -4.62970830268686
O           -0.17120450194113       -4.40004049799045        1.14224145209729
H            0.67202454948060       -3.91917639007539        1.16479493643186
H           -0.84296760241692       -3.77628374236912        0.80628080174276
34
 energy: -56.642818990042 gnorm: 0.103963998719 xtb: 6.7.1 (edcfbbe)
H            1.39980871813865       -0.74843088537593       -0.48196228575206
C            0.31235820695770       -0.73921746391813       -0.58236741567373
H            0.43134022683919        0.53297667845191       -2.25203970163752
H           -0.01197531371880       -1.64687238599816       -1.09515232610895
N           -0.08527160167405        0.45283296441261       -1.36671123729851
H           -0.07030592930525       -1.45965648852578        1.44258754287247
C           -0.31849116699878       -0.61891009201172        0.79837694072731
O            0.03498862524885        1.75536687608864        0.91619276281976
C            0.22818324867147        0.67772825278379        1.50906902968433
H            0.07610984159783        1.28063656902244       -0.70024089151053
O            0.70253900784829        0.52667800325310        2.64497769579681
H           -1.09875792617042        0.43135122506880       -1.53757832243984
H           -1.40675915886993       -0.55243673128405        0.72463392083559
O            0.71158665184973       -4.20257718953975       -2.13311402174501
H            1.62648951859574       -3.87274493479794       -2.17054641837421
H            0.75274997852805       -5.00083048172907       -1.52203557149273
O           -2.01885634787808       -3.88862010397936       -0.97523654944913
H           -1.22347696075347       -3.93276944814320       -1.49934476728342
H           -2.13926041599183       -4.73204787987268       -0.55092280992269
O            2.94214316364159       -3.12405508381617       -0.46962181032174
H            2.59014696987452       -4.02065886936486       -0.21923213540765
H            3.07487624619686       -2.66990149073999        0.37609924432343
O            1.55200083767412       -3.51091333692718        3.12527547520410
H            1.38427684594387       -4.47023158200059        3.22542175181332
H            2.56251625883579       -3.45147281405653        3.19342001549268
O           -1.41881458474605       -3.30451700823111        3.93420526762293
H           -1.08569904148299       -3.73430279524751        3.10713391943535
H           -0.75499821057617       -3.58756279419435        4.61922997884977
O            0.37547581766286       -3.46546875750873       -5.16840338009891
H            0.77343945536112       -2.64562665108107       -4.86003810106016
H            0.76198655722008       -4.16950698229847       -4.63288905543870
O           -0.19241632354277       -4.38215891991243        1.12854677195609
H            0.63440702111917       -3.87227980272727        1.21733821330829
H           -0.85071121609726       -3.77455759579913        0.76233227027446
34
 energy: -56.650227109486 gnorm: 0.053195051754 xtb: 6.7.1 (edcfbbe)
H            1.39608351496128       -0.75890501126554       -0.49416533198612
C            0.30793980111471       -0.74340307081779       -0.58535878778193
H            0.43459910590411        0.54353118392234       -2.23557338823121
H           -0.01963727250156       -1.65610290124891       -1.08682175896647
N           -0.09549672000001        0.44396254660249       -1.36677304239860
H           -0.05712644524629       -1.44837593337313        1.44585442481904
C           -0.31111961447757       -0.61192064623352        0.80006683840548
O            0.08244587599163        1.75631577233986        0.90351154414044
C            0.22906230358209        0.67866559622190        1.50853745848479
H            0.04251473438956        1.26140155704649       -0.67184971561439
O            0.71009229672120        0.54031279297288        2.63621466685387
H           -1.10375340121249        0.40886777790879       -1.55754142644704
H           -1.39997902043510       -0.55453112318471        0.73461357014767
O            0.72671888394763       -4.24730569773243       -2.14165480237785
H            1.60834863956958       -3.84795503278072       -2.13724559200309
H            0.73900236636817       -4.97095019030007       -1.50608538272032
O           -2.00482252127776       -3.85710576491384       -0.94389444704151
H           -1.23724578046616       -3.95830343698275       -1.56266953030662
H           -2.14846087517878       -4.72266288112265       -0.56970167654179
O            2.96120074231949       -3.15305417285070       -0.44081712945464
H            2.58439618950485       -4.01125699920838       -0.20829143075437
H            3.06097628375872       -2.66379812889951        0.37347404359736
O            1.61219744349531       -3.54144804503448        3.18998030362549
H            1.39678613175553       -4.47080700991723        3.20905681194560
H            2.55917929205857       -3.44722827192001        3.16326440038053
O           -1.39593167297579       -3.30055279963135        3.92391682145020
H           -1.10781258046819       -3.74113013544087        3.10967278208958
H           -0.78736435500692       -3.60040931763053        4.61448034909911
O            0.38758719759031       -3.45801141343197       -5.19234417751544
H            0.78654354226246       -2.63960820301227       -4.88405875681753
H            0.74764793932116       -4.16248906632396       -4.63077165510281
O           -0.20700076657961       -4.36628536152887        1.13188498185514
H            0.60749288347986       -3.84521077817529        1.25059956911886
H           -0.85343514227064       -3.77500383405313        0.72789346604983
34
 energy: -56.644348106042 gnorm: 0.130059598241 xtb: 6.7.1 (edcfbbe)
H            1.39500410319083       -0.76821833451177       -0.50245282284910
C            0.30624589850155       -0.75175268097420       -0.57752698025012
H            0.43596406983734        0.56258141803594       -2.21184171515227
H           -0.02791939663229       -1.66438721640298       -1.07590270806213
N           -0.10541563424161        0.44060238854011       -1.35328076766591
H           -0.04587099788338       -1.45687175348148        1.46854633081932
C           -0.30041692798377       -0.62717223822077        0.81536736361233
O            0.16859234045175        1.75043940218451        0.78032154766691
C            0.19454033660663        0.68131978442177        1.51987970824429
H            0.01449501672438        1.25071182127521       -0.64960949022634
O            0.69763814221001        0.58336855949325        2.64542921798202
H           -1.10809277074946        0.39487372126591       -1.56481574978980
H           -1.38701668010912       -0.56085081998228        0.74315978450948
O            0.73731861561001       -4.28179949693834       -2.14331191050267
H            1.58809138550297       -3.82361652069176       -2.09133948652396
H            0.72343922603511       -4.95869231384043       -1.49934826339550
O           -1.97638610218328       -3.81199533310328       -0.94125395257212
H           -1.20767690216327       -3.95839236519286       -1.53440358088368
H           -2.21409268577673       -4.74712128101816       -0.65994712358752
O            2.94291816169735       -3.17402763724887       -0.43946505140372
H            2.57304561267020       -4.01851889727078       -0.16790538558590
H            3.08789026174540       -2.65723377394665        0.36620731478358
O            1.60547432146391       -3.53340872634693        3.11104838959240
H            1.44503898490365       -4.49411781060885        3.25342246843802
H            2.59981407448266       -3.45585957412950        3.22072874155180
O           -1.35522205439438       -3.28791607269299        3.90921610551524
H           -1.13961282956537       -3.73972171689678        3.10994109681407
H           -0.83705878613030       -3.62744114450236        4.59855029427678
O            0.38458132974640       -3.46146646244919       -5.18063026808810
H            0.79435631400168       -2.63786076021106       -4.91602208754670
H            0.76198748451146       -4.15128376620773       -4.65908779970168
O           -0.21020513995533       -4.31760311644109        1.20885348132803
H            0.57836877043795       -3.82960197436673        1.25135392191371
H           -0.86818854256385       -3.78772330753881        0.67352337674030
34
 energy: -56.653210192971 gnorm: 0.063751746801 xtb: 6.7.1 (edcfbbe)
H            1.39434942817480       -0.77137199081411       -0.51164889728281
C            0.30474310155169       -0.75419334260542       -0.58061373781602
H            0.43675954001947        0.56416777443901       -2.21057300406510
H           -0.03510845444163       -1.66955459794084       -1.07049093782584
N           -0.11011264763016        0.43538720737113       -1.35675626699251
H           -0.03579588103592       -1.45435385828008        1.47109703408027
C           -0.29142967385185       -0.62387229511240        0.81712810708955
O            0.16193076667161        1.74855460842580        0.79606716285965
C            0.22621931466436        0.67943213369841        1.50599903848643
H            0.00842460083126        1.24379128846083       -0.65115466602338
O            0.69444930614968        0.58875297801572        2.65037700516829
H           -1.11027363767318        0.38579004600039       -1.57678544969847
H           -1.37955298286335       -0.55703132993416        0.75279265784375
O            0.72000520705914       -4.23562557820465       -2.13028078418835
H            1.59037920317914       -3.81239642361570       -2.06481573836871
H            0.72455935832755       -5.00159985545545       -1.52157714491777
O           -1.98145522866454       -3.82588831563090       -0.97236999180918
H           -1.20460760930303       -3.94365999055842       -1.52579825387971
H           -2.21097381553225       -4.73456176059559       -0.65852115490193
O            2.92564165547319       -3.16789998498570       -0.44430403872673
H            2.57779659327964       -4.02975611902677       -0.14113748164808
H            3.09609764427772       -2.65412771249357        0.36595452687156
O            1.64973119299725       -3.55367394906286        3.17470101311542
H            1.44857423369024       -4.49360581439157        3.24771293679021
H            2.58488836294710       -3.45262771889470        3.17542967564096
O           -1.40271833456026       -3.30868250323456        3.89444705657375
H           -1.10760066510722       -3.77114047495984        3.09630322262440
H           -0.83174382367685       -3.59245570878433        4.61440507330282
O            0.39129273612686       -3.45861609309124       -5.20879455400715
H            0.79938447026387       -2.63600370889013       -4.92931726206170
H            0.74421641401176       -4.15188627880154       -4.64695692937780
O           -0.22237359616076       -4.34327195907814        1.15192786141603
H            0.57221151032502       -3.77847173216540        1.30985950656420
H           -0.87627928952132       -3.79030493980316        0.68509841516523
34
 energy: -56.640753060795 gnorm: 0.157079578651 xtb: 6.7.1 (edcfbbe)
H            1.38953793182981       -0.77602942984596       -0.53061670763388
C            0.29983127600899       -0.75552732054625       -0.59468200089702
H            0.43970591516001        0.55735743798700       -2.21791531540575
H           -0.04648311758980       -1.67918322620470       -1.06186764317289
N           -0.11729943754194        0.41977065670008       -1.37873788304052
H           -0.01557817720773       -1.42965842408716        1.45845541234515
C           -0.27985768186824       -0.59750176081195        0.80867754505868
O            0.12779898479559        1.74997450105517        0.91236710363910
C            0.28334507593160        0.67889804792152        1.48585292569362
H           -0.00391405323285        1.22333388905940       -0.65541709512901
O            0.71524170818901        0.57694967860639        2.63728665683010
H           -1.11170426791060        0.36350226005270       -1.61090173535636
H           -1.37138989900972       -0.54914906187537        0.77105825215855
O            0.73118062900665       -4.28182335559486       -2.14997674737694
H            1.56862400071493       -3.79485592969252       -2.04862218403046
H            0.72140665036014       -4.95741124615677       -1.49673490716458
O           -2.00064428727356       -3.84915716743307       -0.97132207438573
H           -1.24596014609759       -3.95398864889247       -1.61044951309285
H           -2.15496529116750       -4.68179125984109       -0.59745943770218
O            2.98395247512287       -3.20675113191785       -0.38788714411818
H            2.56532075320861       -3.99463049203047       -0.16668749686661
H            3.04385364568552       -2.66049088717173        0.37386448043446
O            1.63606701227001       -3.55679350957470        3.12566005717025
H            1.46977898062964       -4.50085680616054        3.23233124714299
H            2.62963846998278       -3.45383821931065        3.26075416329723
O           -1.47456303800648       -3.34345291093246        3.88188004119010
H           -1.07497250303659       -3.79973314311847        3.07887855591537
H           -0.81778297189625       -3.55800004272261        4.62023509648778
O            0.42284526560638       -3.44691940531174       -5.28274481571170
H            0.81729286636966       -2.63091263235083       -4.94248929043078
H            0.70186629931052       -4.15353285394158       -4.60488114138114
O           -0.25406805977943       -4.32580423082186        1.16831332026910
H            0.53588797846592       -3.78695389485061        1.31562665583758
H           -0.86236398703161       -3.76579748018404        0.68555561942765
34