34
	Energy:      -0.8603505
O          3.01398       -0.05396       -3.35914
H          2.73533        0.83760       -3.03032
H          2.44394       -0.21513       -4.15270
H          0.65998        4.57836        0.22964
O         -0.22571        4.99599        0.37693
H         -0.72102        4.82940       -0.46418
H         -0.78416       -1.39573        0.71214
O         -0.59607       -1.27608        1.67685
H          0.10844       -0.58091        1.70768
H         -1.84699       -0.81665       -1.62787
C         -1.64764        0.09744       -2.22881
H          0.02708       -0.65697       -3.14726
H         -2.22726        0.01434       -3.17489
N         -0.22366        0.16983       -2.55969
H         -3.24910        1.22600       -1.33930
C         -2.15220        1.34223       -1.47686
O         -0.33068        1.75157       -0.01191
C         -1.52428        1.52364       -0.12147
H          0.36253        0.13546       -1.69687
O         -2.29098        1.47130        0.98438
H         -0.02058        1.04153       -3.10024
H         -1.98050        2.25361       -2.08922
O         -4.41995       -1.25352       -0.16160
H         -3.55431       -1.45562        0.27470
H         -4.32701       -1.61684       -1.07812
O         -1.32084        1.00383       -5.90270
H         -0.36106        0.82672       -5.73519
H         -1.57543        1.66663       -5.21245
O         -4.15895        4.00344        0.44141
H         -3.20322        4.22494        0.30784
H         -4.20221        3.63633        1.36008
O         -0.36756       -2.72828       -5.11340
H          0.57148       -2.44523       -4.97633
H         -0.85653       -1.88682       -5.29597
