16
 energy: -278.897419875890 gnorm: 0.000674211243 xtb: 6.7.1 (edcfbbe)
N           -0.60624208623108       -0.07038768740813        2.61779034356506
C           -1.12363857719648       -0.46494171308769        1.30167160544046
C           -0.46115143649218        0.34163711122745        0.19182138532505
C           -0.84160635497570       -0.21723571656020       -1.17316177100070
C           -0.09544420049474        0.40853737944184       -2.33142058957238
O            0.84922426153757        1.20774139071620       -2.11795563449569
O           -0.46682556211610        0.11544106456384       -3.50070496627333
H            0.42253527310690       -0.21407857981904        2.61093202702617
H           -0.81698322881158        0.91962205817293        2.82923517772714
H           -2.20304685893737       -0.32985238309295        1.26284233750033
H           -0.89442969034039       -1.51620650789796        1.14932674449952
H            0.62070683385611        0.28190424694163        0.29435809732139
H           -0.75910670475907        1.38717608207950        0.25577346814278
H           -1.90736417744609       -0.10901768053352       -1.36916371215748
H           -0.62300429187772       -1.28501580858022       -1.21897913767332
H           -0.99073730398029       -0.68430732542489        3.36337486397463
