37
 energy: -59.764408544877 gnorm: 0.178047914199 xtb: 6.7.1 (edcfbbe)
N            0.05814800000000       -0.92758300000000        1.46960700000000
C            0.21195900000000        0.51002000000000        1.25738900000000
C           -0.42029600000000        1.02660100000000       -0.05399500000000
C            0.23290900000000        0.51099500000000       -1.35178600000000
C           -0.12525300000000       -0.89643600000000       -1.75561800000000
O            0.43258500000000       -1.42088200000000       -2.86197900000000
O           -0.94795900000000       -1.55110300000000       -1.13717200000000
H            0.42854800000000       -1.16686800000000        2.41684100000000
H           -0.95187600000000       -1.19383100000000        1.43153800000000
H           -0.27873900000000        1.04478500000000        2.10014800000000
H            1.29199600000000        0.77262900000000        1.27882300000000
H           -0.26331200000000        2.12751800000000       -0.03828000000000
H           -1.51695700000000        0.85134800000000       -0.07337000000000
H            1.33463900000000        0.61768200000000       -1.26361400000000
H           -0.10456000000000        1.15854300000000       -2.18948000000000
H            0.61816600000000       -1.46341800000000        0.77094700000000
O            2.58021500000000        3.24156000000000       -2.95618300000000
H            2.02343900000000        3.95591900000000       -2.55580600000000
H            3.24706700000000        3.02538300000000       -2.25676200000000
O            2.14028600000000        3.61702700000000        0.01855900000000
H            2.70346100000000        4.25886000000000       -0.48293300000000
H            2.43370400000000        3.71203400000000        0.95956500000000
O            1.07587800000000        2.29333300000000       -5.24877300000000
H            1.13605300000000        3.28102500000000       -5.28691800000000
H            1.79222200000000        2.02523800000000       -4.61981400000000
O           -2.69683700000000        2.00899700000000       -1.62979600000000
H           -3.58600600000000        1.57711700000000       -1.57088900000000
H           -2.25851400000000        1.57013800000000       -2.40173500000000
O           -2.18011500000000        3.67475400000000       -3.22632400000000
H           -2.55610800000000        4.06516700000000       -2.39758000000000
H           -2.95139500000000        3.23617900000000       -3.66608900000000
O           -1.55476700000000        1.94476000000000       -6.54606600000000
H           -0.57688600000000        1.80496500000000       -6.61547100000000
H           -1.84330000000000        1.32723600000000       -5.82771600000000
O           -0.53399800000000        4.28562600000000       -1.30903100000000
H           -0.53564800000000        3.42142700000000       -1.79252700000000
H            0.42284400000000        4.46873000000000       -1.13143800000000
37
 energy: -59.790607259973 gnorm: 0.085522142488 xtb: 6.7.1 (edcfbbe)
N            0.05886373222971       -0.92791957615349        1.47313097532354
C            0.21456759078396        0.51925212440085        1.25687027724553
C           -0.40241529157869        1.02824645791600       -0.04673598317848
C            0.23979200044370        0.51227614444283       -1.34372839699227
C           -0.14024003096817       -0.89871637469708       -1.76665481482370
O            0.43915991843603       -1.38287622448075       -2.81927687824030
O           -0.94592842233388       -1.56849685858544       -1.10266528551220
H            0.41868124181655       -1.18153151167559        2.40734857003460
H           -0.93697395554410       -1.19326318867352        1.40958971843298
H           -0.27425840473189        1.04704769970211        2.08536063928659
H            1.28128118324455        0.77181015721601        1.26733658261138
H           -0.27585218410243        2.11737596110676       -0.03855636348770
H           -1.47960422158510        0.83369853162203       -0.06661351869327
H            1.33087664980187        0.60481436473171       -1.28374510003622
H           -0.07878767987952        1.15143049803900       -2.17890621282611
H            0.58705172613015       -1.46000827446936        0.76585152274342
O            2.59528340004438        3.24871927475992       -2.96041131166430
H            2.02467799498711        3.93255924899396       -2.57024915465208
H            3.23204372923999        3.01916788584880       -2.26325111512510
O            2.15892531054915        3.62991881129406        0.01647363119472
H            2.71543655782230        4.26857424036124       -0.45737630584513
H            2.42054140571553        3.71480174655094        0.94834971614018
O            1.09515590186109        2.29478773508352       -5.26537961398395
H            1.13462403894903        3.26562707154988       -5.28548435323062
H            1.77733457435974        2.03935092688461       -4.62012163468737
O           -2.72879788645927        1.92588462138223       -1.57640224245406
H           -3.61663702549581        1.53611312919586       -1.57114303370025
H           -2.28660355976623        1.55850059398466       -2.36225109767061
O           -2.20440678953751        3.76652281646890       -3.31743184755637
H           -2.52393888756672        4.06911985770138       -2.44043926138610
H           -2.95702248165898        3.27279128278590       -3.68755511184836
O           -1.55504946691835        1.92312610201014       -6.55576748868212
H           -0.58574236112632        1.82631746640238       -6.58826353909365
H           -1.83237564761314        1.33142339173234       -5.83903738998811
O           -0.50838628091561        4.29510851683222       -1.28416906001162
H           -0.54259508481211        3.46274762047206       -1.78850854553958
H            0.43291170617906        4.44117272926283       -1.09391497210336
37
 energy: -59.799116396372 gnorm: 0.035327521861 xtb: 6.7.1 (edcfbbe)
N            0.05684056268908       -0.92582485693635        1.46919939173098
C            0.22811058063576        0.53115441612951        1.25676321737904
C           -0.38660821771386        1.02836297357657       -0.03847264523765
C            0.25888393944355        0.50868300826618       -1.32634184871929
C           -0.09538770634901       -0.93255335507770       -1.73730041461028
O            0.39258341671884       -1.33245767455957       -2.80927114089890
O           -0.93784980021912       -1.57057022215324       -1.05886238721221
H            0.40433725325961       -1.20059625437270        2.39181243575834
H           -0.93061199295420       -1.18268228056618        1.37209731372195
H           -0.26266297246499        1.04916842400082        2.07586464524092
H            1.28838443323248        0.76435636385274        1.26156451292228
H           -0.29181855819756        2.11065154995701       -0.03640342947931
H           -1.44726270231331        0.79996047294733       -0.06106032075951
H            1.34263396041412        0.58495703190664       -1.28930226321722
H           -0.05145738126743        1.13038543303209       -2.16811045650403
H            0.54807060778440       -1.45438249251945        0.74380143969256
O            2.60705195625589        3.24434058776810       -2.96818647769639
H            2.02470965473463        3.90728756167149       -2.59291533853734
H            3.21980326046214        3.00120038820696       -2.27314800623196
O            2.18121291334400        3.65669660570200        0.00862991015380
H            2.74784688882969        4.29390351096314       -0.42637039372283
H            2.39811925048659        3.71431546055486        0.94162722892129
O            1.10703698725026        2.29898552252794       -5.27774427351959
H            1.13512248339630        3.25642960759816       -5.29727482635182
H            1.76775311219320        2.05317272988899       -4.62524559413095
O           -2.80115085089857        1.91071385082099       -1.58644346826100
H           -3.65536380878343        1.49230308743215       -1.57354820744112
H           -2.31263994178938        1.54539033509285       -2.32423719048408
O           -2.22086156781354        3.77569442798781       -3.35267666814114
H           -2.49958561264996        4.09534660210708       -2.48801396040843
H           -2.98132960195523        3.34134778139731       -3.72510793080749
O           -1.55203247189223        1.90614382599732       -6.55837874694872
H           -0.58706905183671        1.85961684569172       -6.55085978205650
H           -1.82681889456462        1.32315578516668       -5.85380823923517
O           -0.48192566961936        4.30719790809996       -1.25919768093636
H           -0.55042064835233        3.50762242774848       -1.79051945624635
H            0.44594919050458        4.39599761009239       -1.01628694772579
37
 energy: -59.803971746857 gnorm: 0.047516216284 xtb: 6.7.1 (edcfbbe)
N            0.05180493729159       -0.92435767796152        1.45976698529146
C            0.24333822346099        0.53547095345418        1.26083861719322
C           -0.37831499788086        1.02915893593357       -0.03124222457792
C            0.26555858798776        0.51090224785178       -1.31698903704853
C           -0.12714356803851       -0.92283874755983       -1.76082055238958
O            0.41811626430370       -1.34811986498389       -2.78177756085287
O           -0.89106584459792       -1.58854278290354       -1.00222512255822
H            0.39308765421734       -1.21990682743716        2.37817720609653
H           -0.93912725806858       -1.16607151092155        1.34332340757988
H           -0.24408785066525        1.05112921780716        2.08374230972797
H            1.30791892255477        0.75272095152564        1.26263501085821
H           -0.30088918823435        2.11371218195427       -0.03085632990490
H           -1.43565613463451        0.77756397423897       -0.05632646870807
H            1.35393509882318        0.56125590521448       -1.28675404358107
H           -0.03974546751545        1.13683194715333       -2.15646855069060
H            0.52309000095859       -1.45002506510469        0.71670649763019
O            2.62993499387968        3.24946487197737       -2.99405783505147
H            2.00632274523369        3.87757566845306       -2.61461124649592
H            3.20196823837460        2.97028866666181       -2.27165542488724
O            2.19930909118705        3.69185060386922       -0.01370246448330
H            2.79836717249994        4.34133794734469       -0.39615547909039
H            2.36081321128467        3.71008576082881        0.93935479213785
O            1.12635678338595        2.29870774082433       -5.31235943599510
H            1.12391038499676        3.25947233733697       -5.31285057136176
H            1.75413803542888        2.06331463681259       -4.61768188239618
O           -2.87137858587014        1.90005708590848       -1.58442750480597
H           -3.70939328240804        1.44062296961456       -1.58459204922127
H           -2.33320080192086        1.53732982017647       -2.29306723735590
O           -2.23285448931850        3.79793665545544       -3.40134114757735
H           -2.46315098439870        4.11497178095290       -2.51789297879234
H           -3.02166824952379        3.39525610275306       -3.75944407804539
O           -1.54864843273784        1.87616713694170       -6.58062769001893
H           -0.57142077051119        1.90583430102849       -6.50154058263016
H           -1.82732919823132        1.30605481334082       -5.86468407957018
O           -0.45127685914903        4.33247316708840       -1.23525899856104
H           -0.56720646538407        3.55711006213410       -1.80300085666380
H            0.47718108322039        4.32067903223544       -0.90586139320023
37
 energy: -59.807254604758 gnorm: 0.039066808503 xtb: 6.7.1 (edcfbbe)
N            0.04587997455120       -0.92305396356019        1.45267012102113
C            0.25529347300237        0.53560418910588        1.26678116848365
C           -0.37455428644220        1.02776476036835       -0.02578578815923
C            0.28027786444128        0.50666722852226       -1.30310907268564
C           -0.09898092135320       -0.93974122685692       -1.73791666195618
O            0.41053111199013       -1.34950978557764       -2.80164883379205
O           -0.86940424786264       -1.59171187902142       -0.98499225978503
H            0.38651987778597       -1.23854034250379        2.36724741640696
H           -0.95160762300304       -1.14741033278993        1.32800728789142
H           -0.22042358455997        1.05442547689855        2.09919913899436
H            1.32654738235577        0.73972585592090        1.26270608861011
H           -0.31448831208805        2.11724768769776       -0.02854720504643
H           -1.43155766792111        0.75606387082671       -0.05146458430737
H            1.37072942047395        0.55072242047403       -1.26047385520960
H           -0.01892469800358        1.12870993555508       -2.15174826738008
H            0.50097916264408       -1.44638045728308        0.69180088792339
O            2.64473606375585        3.24951416046157       -3.02024264795827
H            1.98197821283495        3.84534901448178       -2.63331787378568
H            3.17742923189509        2.93559321840559       -2.26948036906620
O            2.20516952365632        3.74340545730491       -0.03876463479913
H            2.84554947738952        4.39748750021758       -0.37038843634346
H            2.32667540025655        3.71434364597398        0.92941923858205
O            1.13162008631287        2.30452037863781       -5.34067420752966
H            1.10984395224807        3.27056920294234       -5.33600393250515
H            1.74201253918745        2.07762334341060       -4.61990174653477
O           -2.94019544208850        1.88032391803634       -1.56762058939438
H           -3.76829157847743        1.38147423338110       -1.59467199125651
H           -2.36255619313739        1.53173682218548       -2.26308322534136
O           -2.23766821307291        3.82280814637150       -3.45298037091448
H           -2.42723374993420        4.13830897018904       -2.55124270017871
H           -3.06150342009079        3.44875244279201       -3.79385346457553
O           -1.52632982838308        1.89577605248496       -6.56139823985586
H           -0.56271898457626        1.90285219068175       -6.48776544876625
H           -1.83388253103758        1.28052280911764       -5.88792957984541
O           -0.41466741162582        4.32736686198783       -1.16551535663749
H           -0.55596932792330        3.59425588115899       -1.80006614705813
H            0.51077826680065        4.27230731200059       -0.84097185724567
37
 energy: -59.809742990368 gnorm: 0.035892102789 xtb: 6.7.1 (edcfbbe)
N            0.03475744185179       -0.92361262252311        1.44901481548480
C            0.26324003886000        0.53135000124289        1.26893386829631
C           -0.37128423589476        1.02173757458642       -0.02534764422265
C            0.29579278613651        0.50177469761244       -1.29627107978130
C           -0.07455145176059       -0.95474993950014       -1.72386847413715
O            0.41254734972503       -1.35525137368857       -2.81231055646441
O           -0.84067361347925       -1.60065326677413       -0.97330040634410
H            0.37648865920143       -1.25721034220980        2.35707107635810
H           -0.96821652909744       -1.12808865499607        1.32154421646241
H           -0.19420315004346        1.05730256972137        2.11008056703835
H            1.33944550920332        0.72077112989767        1.25692313380511
H           -0.32899636501121        2.11355372858953       -0.02972286732306
H           -1.42654123550251        0.73673939277014       -0.04968112488076
H            1.38635752411876        0.53834315867335       -1.23325380920894
H            0.01103485456468        1.12301130269430       -2.15270473626916
H            0.46892066825066       -1.44659855770282        0.67148538057211
O            2.59801604763511        3.18719312576568       -3.00967874620668
H            1.98322639917444        3.83199103207173       -2.65528863723933
H            3.17414614697588        2.92216423397079       -2.29458660574396
O            2.21805188179639        3.78728505517330       -0.04403955889529
H            2.84985571058055        4.44381754421699       -0.36687960431213
H            2.33149846127882        3.76059851522082        0.91342061752651
O            1.11375722570000        2.32077647906881       -5.34032396096801
H            1.11204091977402        3.28425859213095       -5.38216131484230
H            1.75055050994352        2.10014039302869       -4.65142295581455
O           -3.00445863423146        1.84738626118880       -1.55214468170012
H           -3.82722936826275        1.33578821144897       -1.59257712803831
H           -2.42767558080447        1.51997847185929       -2.25262978441584
O           -2.23230840626173        3.83943525383998       -3.47180364003673
H           -2.42252239324933        4.17722255937886       -2.58993851431553
H           -3.07481150894237        3.51708148718840       -3.83234926563184
O           -1.51133423117414        1.87726128574394       -6.57251804843232
H           -0.54225298596131        1.94395925269417       -6.41970863065644
H           -1.83985922948175        1.25220479217484       -5.91225680147290
O           -0.37507235069482        4.33165397135989       -1.13743030690432
H           -0.50856469460085        3.59892116973029       -1.73918072189848
H            0.53242082968448        4.23793851435151       -0.77882206938803
37
 energy: -59.811257468980 gnorm: 0.044820226395 xtb: 6.7.1 (edcfbbe)
N            0.02513800657354       -0.92576456313501        1.45458307655953
C            0.27132352329412        0.52369554539711        1.26730047520343
C           -0.36545377525173        1.01102736828985       -0.02727964128737
C            0.30976724766546        0.49728821229300       -1.29702779034616
C           -0.07009030133186       -0.95867722716774       -1.73133922639323
O            0.43183912012106       -1.36611490370357       -2.79778257214784
O           -0.80205784846563       -1.61883184600940       -0.95916318340328
H            0.37201982010557       -1.26998962480321        2.35322152819116
H           -0.98015074244491       -1.11233425018329        1.33477782475893
H           -0.16640393082854        1.05971384672921        2.11152589932789
H            1.34841364076344        0.69997625385321        1.24489161482201
H           -0.33617171304399        2.10056904197230       -0.03131905024691
H           -1.41697026250101        0.72146337009155       -0.04836194856556
H            1.39872330311340        0.52314904142007       -1.21555347463946
H            0.04529397653650        1.12327902938710       -2.15433164966663
H            0.43334968850300       -1.45233377213684        0.66498618336144
O            2.58918930133364        3.16349952280619       -3.02268300134810
H            1.96501387005449        3.79784729092111       -2.66896324316543
H            3.14497250487575        2.88141152105567       -2.29769985498062
O            2.24643891127147        3.82945953414532       -0.05485899458030
H            2.85383396241689        4.50891530155676       -0.35400501047450
H            2.32512574455321        3.81122387858143        0.89848489273429
O            1.10446698708196        2.34454359811322       -5.36336235659616
H            1.10486285556276        3.30497890397446       -5.42519717288570
H            1.73471195926483        2.13368845728974       -4.66675957174844
O           -3.06635922036507        1.81972603174091       -1.54250915299468
H           -3.88119781495826        1.31001185295669       -1.58129337855108
H           -2.50643867633035        1.50854493384429       -2.24942015382693
O           -2.22244614856687        3.84780036719275       -3.47334887564156
H           -2.42727453142374        4.20493172275097       -2.61675345199222
H           -3.06740796377257        3.58444022756453       -3.86789058237059
O           -1.48709420642921        1.91001146197310       -6.53706367166337
H           -0.54683512761811        1.91771716455284       -6.41555424409931
H           -1.84017361297326        1.22374696502820       -5.94468928618255
O           -0.32968480190985        4.31407176646889       -1.06361350688336
H           -0.47717835474189        3.63380921933234       -1.73461329312244
H            0.56649760986758        4.18897975585699       -0.73106215515608
37
 energy: -59.812833538738 gnorm: 0.046307203443 xtb: 6.7.1 (edcfbbe)
N            0.01307392935307       -0.92708686762203        1.46824138929204
C            0.27335521853661        0.51547238338871        1.26444233143572
C           -0.36295946362315        1.00007133814867       -0.03030004236482
C            0.32242870581947        0.49050906558735       -1.29847406291143
C           -0.05223977185364       -0.96527982085840       -1.73356011624657
O            0.43470385063252       -1.36087482155702       -2.79962009010168
O           -0.77003611355161       -1.63748466927124       -0.96087751415402
H            0.37060099480365       -1.27358411115942        2.35750186784121
H           -0.99326997340086       -1.09976542649810        1.37031741068690
H           -0.14883288216637        1.06387907421470        2.10585481202877
H            1.34884580882468        0.68341422152581        1.23215789997076
H           -0.34073486447938        2.08602070939989       -0.03432388909028
H           -1.41099229381662        0.71062378618812       -0.05087009105862
H            1.40789285164072        0.51616056356109       -1.20120861434612
H            0.07427098507203        1.11912629713237       -2.15499784365583
H            0.39648182714963       -1.46128147249854        0.67276087299107
O            2.61035485816381        3.17638498969411       -3.05320202048916
H            1.93059690566745        3.75521647420157       -2.67248526299487
H            3.10003732520814        2.83026643038855       -2.28183142982907
O            2.29418500039107        3.85305286074109       -0.08306400478635
H            2.87498229045934        4.58988801571487       -0.32297484835214
H            2.28863843085141        3.83677793118516        0.88846663682401
O            1.11882320585015        2.36340421084651       -5.41125663402976
H            1.09987912797622        3.32328109265614       -5.46800473614864
H            1.71255414660249        2.17013742824324       -4.66543560775959
O           -3.12402472056822        1.80066672596214       -1.52973301819310
H           -3.92569372847302        1.28184952205575       -1.58259977103724
H           -2.55957630472283        1.51742952894521       -2.24379231426757
O           -2.21645461352008        3.85143009108424       -3.47530509956625
H           -2.41617111562449        4.21314534706289       -2.61705145483193
H           -3.06356736901595        3.63696121333111       -3.88372983518660
O           -1.48466689928257        1.85274332046051       -6.58630286558117
H           -0.53289275130639        1.94845419587324       -6.34880024934780
H           -1.83161147254159        1.22224953874135       -5.95824717065122
O           -0.28651408651095        4.32872352338728       -1.04346627737547
H           -0.47474273049001        3.67573544737080       -1.74440238695575
H            0.60486869194775        4.10775686237298       -0.66755396975863
37
 energy: -59.814679074102 gnorm: 0.032998318700 xtb: 6.7.1 (edcfbbe)
N            0.00237008530466       -0.92792984385822        1.48101811812386
C            0.27654155916807        0.50957801477935        1.26517960813138
C           -0.36124891485292        0.99303703680918       -0.02934989228940
C            0.33008012939031        0.48276978265397       -1.29551749540728
C           -0.03464386213946       -0.96969474087004       -1.73472286422055
O            0.42759554866946       -1.34817377032409       -2.82704574800221
O           -0.73178960469091       -1.66138544143094       -0.95563759850916
H            0.37620178028860       -1.27463591614196        2.36476742919172
H           -1.00865228514246       -1.08846089525456        1.41364496520661
H           -0.13930033950816        1.06917204091504        2.10258688444037
H            1.35360226253445        0.67039761548011        1.22515101680284
H           -0.34082348249293        2.07979698632142       -0.03470022858562
H           -1.40940235513778        0.69825518526073       -0.05510273328498
H            1.41545357232988        0.51465058277557       -1.19681460392567
H            0.07978071896395        1.11167783941563       -2.14938428585449
H            0.36510149311107       -1.47256679106270        0.68004403897999
O            2.56494632154016        3.12980873674235       -3.03825195544080
H            1.92467162398952        3.74888384902740       -2.67225948157344
H            3.10206419719050        2.83267262665873       -2.29976541423172
O            2.32163338804235        3.86168733495142       -0.08038760854805
H            2.87523366445699        4.62382816633957       -0.31364949658344
H            2.29868678831373        3.85346457633030        0.89166772315548
O            1.11951349346099        2.38197647641780       -5.43057036883249
H            1.09860834509345        3.34282667028548       -5.50281666814511
H            1.70551390348172        2.20336271318148       -4.66995173878218
O           -3.17421180021056        1.79256500223956       -1.50781453326004
H           -3.96307363346806        1.23930297911864       -1.60528677403386
H           -2.56528683759641        1.55243707730212       -2.22814313971768
O           -2.21461182912250        3.84467959286908       -3.48502048512228
H           -2.38534297094645        4.20773641048160       -2.60086293594919
H           -3.07913637681703        3.67115155927304       -3.88832839987665
O           -1.47587917542903        1.85508224987225       -6.58372345601561
H           -0.53078396470038        1.93921407235350       -6.34512924272791
H           -1.82841567833848        1.19798817355505       -5.98434527935098
O           -0.27750398857456        4.32932786455596       -1.04625545663917
H           -0.44215651086767        3.66472121608921       -1.70863076939241
H            0.60625773470828        4.13626996688813       -0.69831912973146
37
 energy: -59.814641186845 gnorm: 0.061618383658 xtb: 6.7.1 (edcfbbe)
N           -0.01583906390102       -0.92790354760907        1.49619203277460
C            0.28001636054708        0.50328850444673        1.26597989856464
C           -0.35898051318601        0.98405559779997       -0.03031837146642
C            0.34141624400867        0.47331766604018       -1.29272428195182
C           -0.00141255364741       -0.97766546515336       -1.73574486947384
O            0.41593582980013       -1.32600089316065       -2.87522262815721
O           -0.66880794959042       -1.69616582611399       -0.94801130773175
H            0.38905165161288       -1.27856147653852        2.36959464332105
H           -1.03539253024444       -1.06829162805912        1.47966561676714
H           -0.12532508679809        1.07825605289833        2.10010723411742
H            1.36123870786350        0.64904804721114        1.21482770436580
H           -0.34224911759312        2.07354974168003       -0.03861188919689
H           -1.40766773840663        0.67879711863974       -0.06547553980592
H            1.42745278812695        0.51413539194235       -1.19143484575742
H            0.08604056668199        1.10067807930093       -2.14631585125255
H            0.30742462351231       -1.48741622873023        0.67900119091765
O            2.51654367324800        3.08125791100723       -3.02295845546394
H            1.92073112978857        3.74190469561161       -2.66869606364534
H            3.09159052491121        2.81820470666503       -2.31343192380352
O            2.30331543227952        3.91805732190884       -0.04545596374299
H            2.86416754691610        4.62356168279346       -0.32922638183981
H            2.36613454427094        3.88108324533664        0.89039997885431
O            1.08626442253700        2.41623626601605       -5.41566881677123
H            1.10455101966163        3.37329324656924       -5.55333158168112
H            1.71495022729411        2.24670432764190       -4.70930308005433
O           -3.21032197796166        1.76849430642692       -1.48096126362969
H           -4.00259468108970        1.22463686128991       -1.59998701862910
H           -2.61203135770687        1.55894039214859       -2.22174799719728
O           -2.20181940660770        3.84699908508045       -3.47243061974427
H           -2.39123549503023        4.22441270335356       -2.59590166033636
H           -3.05665498050325        3.70341161634665       -3.89723836269121
O           -1.46226792449306        1.87281222192826       -6.56058441893021
H           -0.53107983154880        1.92786264172074       -6.33874678268235
H           -1.83212502176151        1.13752843690440       -6.03485339603826
O           -0.24101588901338        4.34199755864857       -1.03149437070254
H           -0.44744045461118        3.71320715840426       -1.74572782463535
H            0.64902928063694        4.08174747960433       -0.67789073267154
37
 energy: -59.817039715803 gnorm: 0.054780971312 xtb: 6.7.1 (edcfbbe)
N           -0.03346431298309       -0.92789193014663        1.50702378954621
C            0.27708628520575        0.49851936282118        1.26496341030911
C           -0.35856801453403        0.97555305196745       -0.03498769324360
C            0.34798733794283        0.46868943498173       -1.29647859851005