37
 energy: -59.866518326124 gnorm: 0.000165333034 xtb: 6.7.1 (edcfbbe)
N           -0.19832936353812        0.46799512524302        0.86518076707285
C            0.79937930693540        1.09546611366727       -0.02314779864929
C            0.58819713043916        0.63232396810440       -1.46021743346268
C            1.15647046602256       -0.75820247706060       -1.76485599976482
C            0.32805197317042       -1.98797904700989       -1.32571964875176
O            0.41203313916564       -3.00467709814770       -2.03942857724200
O           -0.35595561413938       -1.91791726365061       -0.27062540799924
H            0.07772490951458        0.50463487326354        1.84428444228343
H           -1.12886424536462        0.93151025880396        0.75068485295758
H            0.69819510736085        2.17920416586693        0.03931859446211
H            1.80199197758068        0.81415446885841        0.30001496422343
H            1.07957122879240        1.33736948153618       -2.13077596781242
H           -0.47634817023566        0.64046977835104       -1.69222772690246
H            2.13838854983224       -0.87934893689872       -1.29775380293759
H            1.30162004933475       -0.87596280786531       -2.84057077401606
H           -0.30467236525578       -0.54158856636037        0.54734862361123
O            1.72066056468328        3.27841153042685       -3.24638287755254
H            1.04570448045465        3.76528845950208       -2.72246572403583
H            2.53362412461793        3.78476526093820       -3.16101411441303
O            0.91717220579644        4.34993344968121        1.00453683025715
H            0.37934937340689        4.73798350562131        1.70203212545712
H            1.82034766678308        4.64762742217098        1.14833161005416
O            1.01774853153526        2.17169411420377       -5.69546663956548
H            1.59614611727909        2.61636020635402       -6.32218571661221
H            1.22207107005676        2.55155708960908       -4.81880064170457
O           -2.63252956538517        1.69919373109510        0.51469125315697
H           -3.37860495478438        1.10932785750783        0.37972434404491
H           -2.62020642049672        2.32073951572306       -0.23486037710417
O           -2.68823823245812        3.46401801265026       -1.65871161187093
H           -3.27378753779968        4.21999459753882       -1.54197982068965
H           -2.87607685632213        3.09780173429131       -2.52869955853332
O           -1.54217658832371        1.27376764607769       -6.44440690169252
H           -0.67286807841708        1.63437218819736       -6.19248958198801
H           -1.48261017030574        0.32689204188300       -6.28801453950279
O           -0.05877505224248        4.52940383844459       -1.62152150034284
H           -0.93034574521711        4.09873431246840       -1.61268191108696
H            0.26753398754261        4.48015644890399       -0.70487175352657
