34
 energy: -56.634482965216 gnorm: 0.176230599068 xtb: 6.7.1 (edcfbbe)
H            1.42053100000000       -0.69343900000000       -0.45759400000000
C            0.31562500000000       -0.64091500000000       -0.57275600000000
H            0.37944700000000        0.34125600000000       -2.37510200000000
H           -0.02020400000000       -1.57726700000000       -1.06978300000000
N           -0.04283300000000        0.48932200000000       -1.43082700000000
H           -0.10434400000000       -1.52577500000000        1.34227500000000
C           -0.35607200000000       -0.58177200000000        0.80987700000000
O           -0.15503900000000        1.84564400000000        1.27779400000000
C            0.09900500000000        0.57829600000000        1.65429800000000
H            0.33459400000000        1.38391400000000       -1.05046800000000
O            0.66999200000000        0.37333800000000        2.71201200000000
H           -1.08151800000000        0.54834700000000       -1.53303300000000
H           -1.45918500000000       -0.54094800000000        0.69330800000000
O            2.44941000000000        1.02932700000000        0.42219700000000
H            2.20459700000000        1.46055600000000        1.27935400000000
H            3.42762500000000        1.16385000000000        0.34728300000000
O           -2.16994400000000       -0.01409100000000       -4.29179100000000
H           -2.52019400000000       -0.78766000000000       -4.80122800000000
H           -2.59676900000000        0.77404100000000       -4.71283800000000
O            1.79439300000000        0.01800300000000        5.45277400000000
H            1.03578800000000        0.28307600000000        4.87409900000000
H            2.16509800000000       -0.79203700000000        5.02030900000000
O           -0.50477100000000        1.37688800000000        6.82723000000000
H            0.16797300000000        0.65135900000000        6.86765500000000
H           -0.31334500000000        1.84559400000000        5.97618100000000
O            2.30658600000000        3.57958400000000       -1.11737100000000
H            2.42193400000000        3.19328000000000       -2.02184600000000
H            1.37644800000000        3.91928000000000       -1.10944700000000
O           -3.17619200000000        1.22206800000000       -1.47718500000000
H           -4.03418900000000        0.79746100000000       -1.22388300000000
H           -3.41617700000000        2.15911300000000       -1.68923700000000
O            2.55573500000000        2.20278200000000       -4.72012900000000
H            2.46768200000000        1.31563200000000       -4.28905900000000
H            1.68643200000000        2.34636700000000       -5.17213400000000
34
 energy: -56.656178426308 gnorm: 0.085748718941 xtb: 6.7.1 (edcfbbe)
H            1.39011945590479       -0.68774204565689       -0.44797520490751
C            0.30077765175606       -0.65832549412187       -0.57717797013728
H            0.36154002253574        0.36304392805675       -2.36152304198909
H           -0.02683990959336       -1.58049374474756       -1.07237693538765
N           -0.05207765120058        0.48804856613172       -1.42583054941211
H           -0.11587024634527       -1.50263226215940        1.34968474064882
C           -0.36279902461302       -0.58466703535168        0.80056464673752
O           -0.16782941415709        1.78406949992991        1.24773769215047
C            0.07184822864977        0.58501224509494        1.66934872511697
H            0.31919072457152        1.35945794698412       -1.00843282840005
O            0.64981399744150        0.37379168291142        2.74567809611244
H           -1.08081346392984        0.56793148151994       -1.52307499730066
H           -1.45189960966774       -0.53399750344005        0.68338168824596
O            2.49969917167775        1.02932158566456        0.41683659685690
H            2.21921145311988        1.46220523903649        1.23904875700569
H            3.45531244945260        1.18381255366945        0.35710714186250
O           -2.16317557257080       -0.01189525200366       -4.30684346552392
H           -2.51188447259526       -0.77976693891236       -4.78735513018969
H           -2.59050209970952        0.75806629655718       -4.71417681668272
O            1.74699820997070       -0.01389185693815        5.46929851862122
H            1.08398924149712        0.28631400427486        4.81148447982598
H            2.17291919543177       -0.77295009843002        5.03268314239946
O           -0.50786790341686        1.36403117857509        6.81892814360441
H            0.17661438612333        0.67234892522951        6.86346840149559
H           -0.31688121835650        1.84597513494782        5.99750405310438
O            2.29464281059413        3.56812308946891       -1.12715669040871
H            2.42184072191935        3.22433520262876       -2.02879831933799
H            1.39070778640859        3.92305906334644       -1.11180515611010
O           -3.17469937073373        1.21952389406443       -1.48743966433816
H           -4.01192818144517        0.80332217842586       -1.22758081939117
H           -3.40152062531151        2.14636777346779       -1.66845999462061
O            2.53036363379404        2.21434489245608       -4.68242065952392
H            2.47571044313737        1.31122894294991       -4.32111145158756
H            1.70340817966036        2.33710092636966       -5.18228012853922
34
 energy: -56.663582258188 gnorm: 0.033137615921 xtb: 6.7.1 (edcfbbe)
H            1.36770182109875       -0.68224358481453       -0.44253230924408
C            0.28776055849630       -0.67224478956099       -0.57370452906925
H            0.33523813876259        0.39762983990865       -2.34025561379803
H           -0.03974436017202       -1.58037219805174       -1.07134742468740
N           -0.06987765514586        0.49277806898539       -1.40838493744716
H           -0.13755933193376       -1.50088492516110        1.35942980709513
C           -0.37286987150340       -0.59899828778577        0.79792632797529
O           -0.20366981928382        1.73295978434343        1.23478076229013
C            0.08337789710476        0.60196978657491        1.65152300444913
H            0.29306454051768        1.33909683936612       -0.94360805742789
O            0.59624672655381        0.36760610800530        2.77564320739302
H           -1.09234881180150        0.59044642423310       -1.49688780517015
H           -1.45314116761986       -0.52040884672281        0.68563675155875
O            2.55863502364946        1.02489247915185        0.40058252732215
H            2.22979267489107        1.44868504996645        1.19499847010774
H            3.49752531212624        1.20789341793642        0.36094814433274
O           -2.14905331003655       -0.00996868595477       -4.32249598990228
H           -2.49521376351911       -0.78193809398622       -4.77093983591033
H           -2.57852197572913        0.74665070942547       -4.71992945373275
O            1.72696994358450       -0.00797487254394        5.43551659923105
H            1.11519629640204        0.26258320990142        4.73249380606478
H            2.17018583092045       -0.77762021150142        5.07162394098410
O           -0.49677951513912        1.36240533441284        6.82704373429122
H            0.18381847091340        0.68252031374944        6.84949371040111
H           -0.33722998262372        1.84800413348160        6.01680919465921
O            2.28192288977556        3.55936392665026       -1.14306857272906
H            2.42398073756813        3.26638945555234       -2.04951151997692
H            1.40113767163254        3.93603050864720       -1.11315608952401
O           -3.15769458351303        1.21655373778417       -1.48849431892520
H           -3.97889470823096        0.79650823453493       -1.23485920658328
H           -3.37258759840717        2.13726130340369       -1.64470845069332
O            2.50724831323976        2.21953333140838       -4.65167744300527
H            2.48792689058705        1.30248675701710       -4.35138630692796
H            1.71557571683484        2.33687974164331       -5.18656712340065
34
 energy: -56.667053338788 gnorm: 0.060678981476 xtb: 6.7.1 (edcfbbe)
H            1.35037928098095       -0.67557404270646       -0.42979083780237
C            0.27053280134694       -0.67823582451999       -0.55943120262440
H            0.31124980295204        0.43408432246116       -2.31125164082912
H           -0.04861166566033       -1.58031852488863       -1.07374253202855
N           -0.09466748208850        0.50171738958165       -1.37768639265514
H           -0.16105903857393       -1.51750352596633        1.37431352513640
C           -0.39883895135293       -0.62126335191202        0.80885719999138
O           -0.17105754995557        1.72349799618592        1.17482249919133
C            0.00581118367756        0.60652100552950        1.67707517155446
H            0.26016667637833        1.33306702971414       -0.87907443453464
O            0.56427921829697        0.36973422205465        2.77899921407905
H           -1.11673497177200        0.60462257035577       -1.46407361322811
H           -1.47617401573841       -0.54023912282795        0.68669058897578
O            2.62436524523949        1.00017398890722        0.38515192980970
H            2.24548619835433        1.44942209642796        1.14781936654036
H            3.55467145261770        1.23989363233376        0.35780654789704
O           -2.11683797942549       -0.00458192412528       -4.34187210273533
H           -2.48073228526572       -0.79548222546208       -4.74665263946273
H           -2.57465549621586        0.74048434384818       -4.73076349579964
O            1.66087620742609       -0.02467554908495        5.43378416932391
H            1.15996110516704        0.25893584968037        4.60842995830469
H            2.18987991271489       -0.77581470325723        5.11619681345628
O           -0.49214247041130        1.34789959445286        6.83386102647399
H            0.21298396846901        0.69054781353546        6.82786925826371
H           -0.36350079159226        1.86306937839265        6.03408961414280
O            2.26611082906019        3.52707481988580       -1.14945497149098
H            2.42725075205994        3.32150433145845       -2.08668370981482
H            1.40999157497118        3.96602936769336       -1.11603511028263
O           -3.12818937523047        1.20538671877223       -1.50286154677319
H           -3.94244543619170        0.78000134774763       -1.23640784701797
H           -3.33470427772868        2.13869655485548       -1.60641084677337
O            2.47391000817226        2.24740365236425       -4.58246617317812
H            2.50895539183196        1.27764257236741       -4.39746654750168
H            1.73160917748623        2.33075219614591       -5.21270623860718
34
 energy: -56.668471495112 gnorm: 0.055503119758 xtb: 6.7.1 (edcfbbe)
H            1.33222732315209       -0.67235055401253       -0.41833320062332
C            0.25030364154939       -0.68344284786698       -0.54644989885173
H            0.28895362679739        0.47373326048478       -2.27992165731157
H           -0.06030278329069       -1.58206814112591       -1.07809313671548
N           -0.12219256694633        0.51156348090612       -1.34425248846782
H           -0.18471798156529       -1.53131399261511        1.39274098634448
C           -0.42285555176399       -0.63902577198016        0.82132810740537
O           -0.14357380276806        1.72461773668215        1.11877450863978
C           -0.03355359796131        0.60824934549122        1.68593164232349
H            0.22262146768723        1.33087446279743       -0.81448090079096
O            0.52190555451038        0.37809547792961        2.78917518164268
H           -1.14560330727101        0.61466346469038       -1.43186515946672
H           -1.50040559085584       -0.55707217233823        0.69234825732816
O            2.68799029055363        0.96178892383430        0.37316825744666
H            2.25335243051275        1.44880948962276        1.09670992859048
H            3.60777434562150        1.27816234241115        0.35542387433791
O           -2.07571904360647        0.00077397548493       -4.36421092295173
H           -2.46526473470145       -0.81130191351625       -4.71976055030321
H           -2.57233154289302        0.73329956959735       -4.74291611774956
O            1.69931842324231        0.02072799951892        5.34657989291384
H            1.13394419144447        0.20431417003949        4.59378962059784
H            2.17543804783212       -0.79759268635305        5.12506647275263
O           -0.49017047470648        1.33475879161516        6.84772724290153
H            0.23947193160919        0.69678753308746        6.80488207332327
H           -0.39687746629615        1.87971803156498        6.05488942667317
O            2.25765785786812        3.51373195365437       -1.16893030894992
H            2.41884516029084        3.35391497093909       -2.11871313429140
H            1.41873789023053        3.99653340594757       -1.12201575993699
O           -3.09155159755500        1.19232013997845       -1.51653768132849
H           -3.90196792515637        0.75934029154567       -1.23792303642143
H           -3.29317581642688        2.13929119115017       -1.56518144745088
O            2.49108894652860        2.21031565545082       -4.63405324466886
H            2.49888565087882        1.30291719011353       -4.36360402588833
H            1.72986600345410        2.34933922527256       -5.19035780105150
34
 energy: -56.672361366231 gnorm: 0.038636356088 xtb: 6.7.1 (edcfbbe)
H            1.31833986230147       -0.67567689019306       -0.41585567602522
C            0.23312116279709       -0.68468045704367       -0.54300629393228
H            0.27542700711434        0.50176485550462       -2.25859901566176
H           -0.07489016510480       -1.58371583322362       -1.08175897367073
N           -0.14521722574662        0.51819874875476       -1.32326514096735
H           -0.20131496475482       -1.53530535696660        1.40235335985844
C           -0.43515689791586       -0.64189564910022        0.82626314656100
O           -0.16539560945070        1.72753333940829        1.13018830260182
C            0.02841379497228        0.60412068349142        1.64951955871278
H            0.18717979004479        1.33387163594675       -0.77390212967391
O            0.47072179497028        0.37808769331326        2.80695094729860
H           -1.17159281316639        0.61257742452069       -1.41577903152047
H           -1.51760001486608       -0.55756684029138        0.70528520250924
O            2.70941702098555        0.96038460871470        0.35796170150466
H            2.27308567318160        1.43331951454308        1.07993478558735
H            3.62563062285846        1.27771180280169        0.34467288837520
O           -2.05714665527923        0.00005115635333       -4.36932637110694
H           -2.44809451981798       -0.81750728098449       -4.71253401322681
H           -2.56443700787757        0.72882173077026       -4.75061442972434
O            1.68252379476360        0.01382696992190        5.33353021116296
H            1.14666344274858        0.19986505914185        4.55850205448324
H            2.17092483447239       -0.79571545465358        5.12431873914645
O           -0.48085535606115        1.32942297964657        6.85689155580713
H            0.25841873092309        0.69757699216737        6.77696389905708
H           -0.41755321265531        1.88998063097445        6.06553098805951
O            2.26378467829402        3.54834882651202       -1.20052134297761
H            2.40527799884013        3.34170773582403       -2.12338073420635
H            1.41791114458992        4.00383625652105       -1.13189439612510
O           -3.05508403027784        1.19011694394313       -1.50130885215489
H           -3.86960126990714        0.74494448245662       -1.23969617495843
H           -3.26159326171486        2.13337766719787       -1.55182273896567
O            2.47024511925769        2.23203083731821       -4.58639370143402
H            2.51667743809615        1.28854386163368       -4.39037756590886
H            1.73988809338427        2.34651532507767       -5.20789575848314
34
 energy: -56.674916046715 gnorm: 0.037772728942 xtb: 6.7.1 (edcfbbe)
H            1.29279407076994       -0.66705437279948       -0.40911800294830
C            0.20786213229594       -0.67885861459732       -0.53574249879069
H            0.25300681907806        0.54090973914159       -2.22870449846069
H           -0.09298327405660       -1.57442590109966       -1.08202850140178
N           -0.18020984170493        0.52979906439526       -1.30006598141014
H           -0.22158984935879       -1.53681495349184        1.40684279684114
C           -0.46060924358197       -0.64503575038749        0.83240972819038
O           -0.12895648792214        1.71852756511481        1.12395412950897
C            0.01113056356745        0.59810244953174        1.65504982513959
H            0.12731287360728        1.33968399164191       -0.72135884251531
O            0.44533283182794        0.36863307714196        2.80842864646319
H           -1.20756873913058        0.61133994915432       -1.40092925325737
H           -1.54326167478445       -0.56803870025431        0.71913224681484
O            2.74183288013955        0.95317246242343        0.34416984804366
H            2.31241773690031        1.42894348332282        1.05391697970074
H            3.64886559888383        1.26408580093728        0.32078687949697
O           -2.05843343565932       -0.00915355714436       -4.35910682321453
H           -2.41739646845460       -0.81904704353546       -4.71983490745430
H           -2.53388512116337        0.72070563936382       -4.76123854096288
O            1.63665215752222       -0.01070819166842        5.34003240186068
H            1.18459948994111        0.20584945450414        4.48082007063023
H            2.16808667551206       -0.79205233782707        5.14092772346754
O           -0.45565314344289        1.34598195737403        6.86820654949188
H            0.25389359905532        0.69380139370709        6.74903858162426
H           -0.42842164541489        1.88519377011593        6.06710434959513
O            2.24435089840040        3.51205700006639       -1.21186329620822
H            2.40800081049264        3.39512396959890       -2.16768523827535
H            1.42681455581375        4.03110862464300       -1.14859394490687
O           -3.00724860041108        1.18301639907458       -1.47169313140837
H           -3.82401773900799        0.72809688855342       -1.24187839618276
H           -3.21418098620678        2.11593201609615       -1.53656213418632
O            2.46290979244369        2.23427310542443       -4.57297807567157
H            2.53167210629789        1.28868532198397       -4.39869717977906
H            1.74499965775092        2.35264029949838       -5.20180650983273
34
 energy: -56.672390555046 gnorm: 0.087260672126 xtb: 6.7.1 (edcfbbe)
H            1.25843463903768       -0.65541321274306       -0.40197839500593
C            0.17473865541403       -0.66907781223403       -0.52769400661102
H            0.22858883311605        0.59109949440389       -2.18870986198220
H           -0.11822557116229       -1.55945262765495       -1.08195074585413
N           -0.22389519344159        0.54377098618926       -1.27363343462260
H           -0.24359806034338       -1.53610975697120        1.41054161086375
C           -0.49220768830111       -0.64611686147758        0.84046021756216
O           -0.05248046758827        1.70621906239702        1.11031301186793
C           -0.03981375293954        0.58831422570090        1.68161770698563
H            0.04643012641986        1.34498435185886       -0.65487657126375
O            0.42628906061995        0.35607303451255        2.80569107821670
H           -1.25241363115069        0.60743855956311       -1.38946434414853
H           -1.57379494183521       -0.58248772863467        0.73686974393372
O            2.80022008695420        0.89746851206917        0.33938880105914
H            2.33171985311535        1.43819514827782        0.99167473009374
H            3.68588934190615        1.27436140904122        0.29837887050460
O           -2.03846088550448       -0.01023278849521       -4.36297340125486
H           -2.38564069118211       -0.82590023626551       -4.70705039753701
H           -2.50660626943448        0.70850272446405       -4.78178884638120
O            1.64761087630685       -0.00575074068340        5.29856754208646
H            1.18301738067452        0.18317611902704        4.47273837331991
H            2.14471726311029       -0.79833604345683        5.12932778599243
O           -0.42867135202838        1.36413048611133        6.88109375348003
H            0.25032310780696        0.69659359522171        6.71671982162281
H           -0.44288305171189        1.88224019876409        6.07520127614493
O            2.24314379164128        3.55613906424762       -1.26016470335413
H            2.39993156323541        3.39561220368674       -2.18827943351142
H            1.42252518392320        4.03265214823646       -1.17467992378390
O           -2.95520045577664        1.16586823270901       -1.45968832421399
H           -3.77100158352363        0.71298984348196       -1.24045647258587
H           -3.14930720706038        2.10194659993029       -1.49399444731170
O            2.41865326483609        2.28033281965239       -4.47129957535625
H            2.56990017042454        1.26372617069640       -4.45404011929608
H            1.77018660444213        2.34151681837881       -5.23492631965704
34
 energy: -56.676533835621 gnorm: 0.054778695964 xtb: 6.7.1 (edcfbbe)
H            1.24927735426259       -0.65460744006513       -0.40318653032672
C            0.16499931690285       -0.66641894892650       -0.52822340395634
H            0.22611170501137        0.60620829721379       -2.17797354057832
H           -0.13009670863712       -1.55603654922999       -1.08341707694086
N           -0.23409833727973        0.54735457641265       -1.26808704427103
H           -0.24857992411676       -1.53590164240226        1.41217708684955
C           -0.49541430137178       -0.64335001008178        0.84318641989403
O           -0.04117879496374        1.70474356377328        1.12034938733201
C           -0.03143371135364        0.58342608783616        1.68381736251682
H            0.02516818426895        1.34522757468348       -0.63758679880063
O            0.41178014944982        0.35095053554065        2.81902380215727
H           -1.26355435941543        0.60521271018198       -1.39168399048409
H           -1.57800242185812       -0.57727842183224        0.74285197602842
O            2.81854720979319        0.87485194050856        0.33665808106731
H            2.32663327345483        1.43726518723174        0.96989418946046
H            3.69992670568896        1.28235495066306        0.29315575095691
O           -2.01178591545376       -0.00188018995064       -4.37588584365374
H           -2.37944049816053       -0.83653514722796       -4.68657697424436
H           -2.50797215873029        0.70457299163076       -4.79595461357877
O            1.61654362211401       -0.01929687891688        5.30977265911111
H            1.19062259120874        0.18546335359115        4.44703265518586
H            2.15049105116755       -0.79645558061235        5.13922332024916
O           -0.42262463613833        1.35515457710988        6.88290992795975
H            0.26665477968589        0.69730744161238        6.69811458723541
H           -0.45664788848618        1.88923450039810        6.08170039268573
O            2.24877113427360        3.58560593605227       -1.28406586109486
H            2.39153024369745        3.37941049709829       -2.18931201162542
H            1.41991389832325        4.03260375498103       -1.18425551606706
O           -2.94805610310215        1.15450633605840       -1.47323501357881
H           -3.76393453294435        0.70997033868432       -1.23843622330423
H           -3.13079529551542        2.10513647819507       -1.46835269019854
O            2.45686541981503        2.23255036103679       -4.55791789340198
H            2.54762036545977        1.30007304507088       -4.39511582219840
H            1.76027758295001        2.36304977368673       -5.19966575038294
34
 energy: -56.669408391314 gnorm: 0.109865713804 xtb: 6.7.1 (edcfbbe)
H            1.24505893374172       -0.66043087935141       -0.40797452312802
C            0.15896541227921       -0.66856613369175       -0.53118440896665
H            0.22964139141141        0.61852014678213       -2.17235713284095
H           -0.14448309750085       -1.55810320302973       -1.08655785413873
N           -0.23626959610870        0.55024097836537       -1.26422078769387
H           -0.25554941680319       -1.54016040516948        1.41627791816944
C           -0.49042071183023       -0.64223919192150        0.84599621449582
O           -0.05504809072933        1.70488086683588        1.13105364708765
C            0.03052834540363        0.57845848282615        1.66041925560167
H            0.02010501955955        1.34380267362312       -0.62765562027019
O            0.37564304647607        0.34765017784709        2.85520154526154
H           -1.26610761167435        0.60661377483828       -1.39755801396854
H           -1.57570219543007       -0.55893331070652        0.74621400834294
O            2.80202849311439        0.94609684356331        0.29898804357169
H            2.35719018751449        1.38985494366523        0.99607536416011
H            3.70064075033022        1.23837029005809        0.28219844298481
O           -1.99307376871376        0.00324343606346       -4.38193370239596
H           -2.37410284891684       -0.84298990543551       -4.67642708206577
H           -2.51070638898801        0.70291711081870       -4.80548609509015
O            1.63483966550369        0.01020626930166        5.27834599761809
H            1.15120866765964        0.15304335473418        4.47348942915988
H            2.15089395676766       -0.80974079465465        5.15223465580401
O           -0.42643349605913        1.33681411263808        6.88036796334793
H            0.29006696673014        0.70005217732048        6.68560844120234
H           -0.47213409896353        1.90393186712434        6.08904842013405
O            2.21552113355745        3.44179066601612       -1.24417550184465
H            2.40167749805941        3.47900068149035       -2.26506298223981
H            1.44826923677576        4.09791814907314       -1.18316981541625
O           -2.95454240611756        1.15252025554251       -1.47055554802345
H           -3.77566523842068        0.71043836167586       -1.23278165148531
H           -3.13001271505327        2.10647150399914       -1.46124564360249
O            2.45913264758639        2.23494244303727       -4.55266710950762
H            2.55298602230279        1.30205542947308       -4.39434114747500
H            1.76397330653568        2.36580282725339       -5.19522972678621
34
 energy: -56.678623328050 gnorm: 0.028512833353 xtb: 6.7.1 (edcfbbe)
H            1.24083685882790       -0.66110444419583       -0.41047110075528
C            0.15542679623630       -0.66540299383849       -0.53051246396626
H            0.23009803163344        0.62677175474406       -2.16467858405444
H           -0.15027925476733       -1.55275674447517       -1.08553145502344
N           -0.23953180736636        0.55308061282044       -1.26157597428142
H           -0.25712308938972       -1.54027897236579        1.41333904837764
C           -0.49429530725460       -0.64139543871880        0.84718253586150
O           -0.02784074927557        1.70149524594768        1.12912659864301
C            0.00004229046289        0.57492650890740        1.67792334412817
H            0.01034073295742        1.34400149629027       -0.61950978729659
O            0.38220196278765        0.34488955651339        2.84652542749093
H           -1.26890195307606        0.60725464625007       -1.39989135608972
H           -1.57815551482994       -0.56145331013093        0.75030487153575
O            2.81512386064265        0.92697103200814        0.29669457288483
H            2.34769313737268        1.38919416590617        0.97904293041831
H            3.70936768912097        1.24718407531400        0.28271918117819
O           -2.00255540392042       -0.00148017831094       -4.37508627121578
H           -2.36497635453354       -0.83591152230931       -4.68486340364255
H           -2.49995258360604        0.69989822737938       -4.80613112466228
O            1.61468200698891       -0.00438349547233        5.29737650018759
H            1.16431784050534        0.15464900495383        4.45199750219044
H            2.15016702617044       -0.80142147288149        5.16125826559233
O           -0.42565465531972        1.33628393663819        6.87311566589263
H            0.28827548823418        0.70545985352197        6.68166259009744
H           -0.46599454650151        1.90020181012484        6.09063396934039
O            2.24932277130391        3.56496728588548       -1.29593035971428
H            2.38727161986265        3.40789731850121       -2.23289277006434
H            1.42993560290137        4.04880982213512       -1.18605984902739
O           -2.95470934430895        1.15512795842692       -1.45908789955369
H           -3.77617228376297        0.71357455855425       -1.22961365016901
H           -3.12672408421688        2.10079310096273       -1.46140347520038
O            2.45204567461354        2.24537025888304       -4.53214063090779
H            2.56485363675275        1.29671974222834       -4.40432329040788
H            1.76898290475505        2.36454059980802       -5.19826455778402
34