34
 energy: -56.720168347730 gnorm: 0.000212188146 xtb: 6.7.1 (edcfbbe)
H            1.13612139099018       -0.31405138115973       -0.29141085313762
C            0.30975445312060       -0.15426942331385       -0.98755688605969
H            1.61634434973091        0.30864497482197       -2.55450283996662
H           -0.00513141702408       -1.11807219734131       -1.39030168631206
N            0.77077542735771        0.69727076537552       -2.09127349987401
H           -1.34333080976384       -0.26974132519885        0.38784678902843
C           -0.85986148156238        0.48189833812087       -0.23589968747283
O           -0.47828286826649        2.78779076467757        0.31734733595136
C           -0.37961078108086        1.60608178595188        0.71140232928496
H            1.03287044531294        1.65318866478823       -1.75689113671503
O            0.10242056628536        1.25020216875766        1.81138151026894
H            0.04805688189649        0.83341143410923       -2.82576972643949
H           -1.58642545759061        0.89855569202121       -0.93324630834451
O            3.71052155345265        0.07363644738710       -0.92220488093871
H            3.67500933516851        0.14958366219369       -1.89189072521851
H            4.48855860737847       -0.44943979508651       -0.71491719356427
O            1.47458838959676        3.31308379375708       -1.51288594767221
H            2.29283018407358        3.20993429122034       -0.96972109510561
H            0.74709188644603        3.42787213521160       -0.87846007895613
O            3.57280244865192        2.66047205330831        0.00756581002096
H            3.24590372869367        2.62233878346698        0.92273353700882
H            3.66472089118398        1.72553246642835       -0.27713274643900
O            1.96227087052291        2.81008690404037       -4.18868637226729
H            1.80044947881310        3.10854283374907       -3.27395367884367
H            2.41353599037320        3.53264757430675       -4.63236196436041
O            2.47998192742898        2.28005880622792        2.54711279694667
H            1.56412423569218        1.99230890724012        2.33859628967454
H            2.80683786380476        1.64911482720313        3.19640346692878
O           -0.54814167879333        1.52941074888739       -4.37128600427708
H            0.27596431464553        2.02498317336975       -4.52761752304769
H           -1.26842255053907        2.15726291302824       -4.45771624293823
O            3.03354301116445        0.32178567367068       -3.64188466361226
H            2.79042423702199        1.22317580525622       -3.93369731186914
H            3.05845657581094       -0.23182226649325       -4.42654881171950
