34
 energy: -56.601993624099 gnorm: 0.183563440060 xtb: 6.7.1 (edcfbbe)
H            1.51131700000000       -0.30682800000000       -0.55501400000000
C            0.42356400000000       -0.53272100000000       -0.60971700000000
H            0.15351800000000        0.48284000000000       -2.37712700000000
H            0.30622500000000       -1.51992900000000       -1.10801900000000
N           -0.26687200000000        0.47309100000000       -1.42055200000000
H            0.31243500000000       -1.51306200000000        1.31258500000000
C           -0.16516600000000       -0.64664900000000        0.80679900000000
O            0.75046400000000        1.63132300000000        1.24106600000000
C            0.05694300000000        0.56251400000000        1.67849900000000
H           -0.17036900000000        1.42768900000000       -1.01141000000000
O           -0.37805100000000        0.56237000000000        2.81853100000000
H           -1.27994500000000        0.22829700000000       -1.50380900000000
H           -1.25406300000000       -0.84893600000000        0.72816900000000
O            1.29626500000000       -3.92891700000000       -2.87330800000000
H            1.79164000000000       -3.45865200000000       -2.15632400000000
H            0.55825600000000       -4.39180100000000       -2.40246400000000
O           -2.73756700000000       -2.55231200000000       -4.14921100000000
H           -2.32734200000000       -2.92815000000000       -4.96840100000000
H           -2.42891500000000       -3.14846000000000       -3.42123100000000
O            2.72523500000000       -2.82814900000000       -4.18438700000000
H            2.74939000000000       -1.92273500000000       -4.58470200000000
H            2.17103000000000       -3.36075400000000       -4.80872700000000
O           -0.19679500000000       -2.43134400000000       -5.11302800000000
H            0.59827900000000       -1.84603600000000       -5.03633300000000
H            0.00245800000000       -3.19938800000000       -4.52055900000000
O           -2.69143000000000       -3.37490000000000        0.25654100000000
H           -3.13073900000000       -4.03449500000000       -0.33722000000000
H           -3.43765600000000       -2.94712500000000        0.74722200000000
O           -2.36785500000000        0.90707300000000       -3.98184400000000
H           -2.91187200000000        1.73372700000000       -3.94579300000000
H           -2.65152000000000        0.45968100000000       -4.81849700000000
O           -1.30278300000000       -3.66916500000000       -1.49060800000000
H           -1.51164600000000       -2.70133600000000       -1.47348800000000
H           -0.75313300000000       -3.81872500000000       -0.68059000000000
34
 energy: -56.634191455143 gnorm: 0.091560010994 xtb: 6.7.1 (edcfbbe)
H            1.49358342510027       -0.29956071442866       -0.54863117149574
C            0.42641820491283       -0.54595215441196       -0.61819019342946
H            0.13816215096804        0.49971221814413       -2.37334365753388
H            0.31522938302842       -1.51769187678845       -1.11521557542961
N           -0.26523958585799        0.47132068542383       -1.42451790325554
H            0.30102475247039       -1.49458416498144        1.31321255893737
C           -0.15634312618998       -0.64389933536033        0.79212798944751
O            0.71272602212656        1.58645673194475        1.19956253651891
C            0.07105222216808        0.56976173444802        1.68345631286180
H           -0.16341524443136        1.40587413740611       -0.99236380222746
O           -0.38667954088128        0.56688993012807        2.83418846801208
H           -1.26931052918415        0.24494707031286       -1.51042376880248
H           -1.23560138668839       -0.84171635972626        0.74533432462530
O            1.24279172999825       -3.95249431727433       -2.83973257983837
H            1.77194961362537       -3.49302910659754       -2.16514089677266
H            0.52088068356878       -4.39433791595480       -2.36194241250279
O           -2.76941597478301       -2.57954522667891       -4.14311147874059
H           -2.32362922236464       -2.90291129672164       -4.94669193539087
H           -2.42301876282569       -3.14443437840235       -3.42952136144678
O            2.78016833202186       -2.79754941982518       -4.24107293333834
H            2.77495635323372       -1.90754718958675       -4.62443962653044
H            2.20936333517481       -3.33856185527337       -4.81555077287493
O           -0.17076891555203       -2.45660350171439       -5.12931704448092
H            0.58080272140161       -1.84811604569665       -5.03444036706656
H            0.02030014113062       -3.17795854135699       -4.50065265403517
O           -2.74744596216929       -3.36464068541610        0.30724026834453
H           -3.14550903197681       -4.01789476441182       -0.29543651230167
H           -3.48418344359209       -2.95405781927090        0.77995980704915
O           -2.36907240319763        0.91562428526728       -3.97919681739533
H           -2.90378025575695        1.72541402002885       -3.95302121272954
H           -2.63912301966949        0.46020578765550       -4.79328208693669
O           -1.17591244500896       -3.65634758398518       -1.58002855227555
H           -1.50931526879209       -2.73407016595448       -1.48922707013310
H           -0.77834495200772       -3.82466618094068       -0.69354087883207
34
 energy: -56.644312243625 gnorm: 0.036487878098 xtb: 6.7.1 (edcfbbe)
H            1.47849925128858       -0.28533009736569       -0.53704073135961
C            0.42828180403336       -0.55606094601698       -0.61970453897184
H            0.12513298211992        0.52854397595068       -2.36525593656832
H            0.32832797464689       -1.51419361638514       -1.12176634236895
N           -0.26428637696697        0.47447116415150       -1.42178786479429
H            0.29352219661681       -1.48025072058211        1.32104775626445
C           -0.15972959788761       -0.65087396232912        0.77992358225890
O            0.69507872883534        1.53961302696125        1.16047663561614
C            0.05001783122852        0.60147155980994        1.65973389309342
H           -0.15285289643526        1.38441128820390       -0.95214896679966
O           -0.37668730189250        0.55718773326275        2.83610559845459
H           -1.26260647659796        0.26719947426753       -1.51274950263521
H           -1.23086390317609       -0.84642129954723        0.75804148393985
O            1.21768589812676       -3.98782287194821       -2.83848094525734
H            1.76663634689028       -3.52850050562983       -2.20010286762236
H            0.47673062735387       -4.36999284212557       -2.35818617672499
O           -2.80502766084893       -2.61260259896546       -4.13527690014507
H           -2.31339602217206       -2.86483160678594       -4.92981533432152
H           -2.41912032341550       -3.15561346657874       -3.43995032522500
O            2.84291137743588       -2.76371513607570       -4.29339417448540
H            2.82040084155999       -1.89310231367899       -4.68413753655338
H            2.26412201968466       -3.32897475845236       -4.81628677423947
O           -0.14721953362931       -2.50146263458148       -5.13425617805703
H            0.55399815529400       -1.85092364664107       -5.04054533740663
H            0.05356238675054       -3.16736630746851       -4.45889194269890
O           -2.80077651877894       -3.33945034700031        0.35236522935247
H           -3.15385887831524       -3.99773521814714       -0.25497985099494
H           -3.53791690784785       -2.94973228147406        0.80945470873597
O           -2.35888886711660        0.92350686623791       -3.96582777927684
H           -2.88909845578589        1.71978250923880       -3.95629408989208
H           -2.61434042256474        0.44554596181353       -4.75556848709838
O           -1.19494034935922       -3.66223199784596       -1.57326668597706
H           -1.48319727746175       -2.75500259675009       -1.52742124596509
H           -0.78680065161281       -3.82150578752101       -0.72696337227627
34
 energy: -56.650826348241 gnorm: 0.041646581765 xtb: 6.7.1 (edcfbbe)
H            1.47063011626407       -0.28233877363688       -0.53027905134068
C            0.42431072814317       -0.56617954635893       -0.61966819666690
H            0.11864960729799        0.56003776975974       -2.35477495768007
H            0.33442899536275       -1.51679735601597       -1.13700470330164
N           -0.26636554086597        0.48035930825565       -1.41079851207038
H            0.29338190445151       -1.49504739844139        1.32364518314567
C           -0.16405802836843       -0.67332906073555        0.77763214667531
O            0.62958522069371        1.56104541208645        1.08182960069237
C            0.08719044699872        0.59769327754666        1.64752655146526
H           -0.14271790040665        1.37165823493020       -0.90591323495451
O           -0.37880638664158        0.56874218521855        2.81061354568552
H           -1.26686893708369        0.28691740798828       -1.50723202245899
H           -1.23730599821674       -0.85666205912126        0.76869487436625
O            1.18583224600593       -4.01153894508350       -2.86720823243304
H            1.78567097873178       -3.57695736290687       -2.25212554632124
H            0.41355056696479       -4.32119246585424       -2.36491618959704
O           -2.84030405894961       -2.64308787336314       -4.12545900871395
H           -2.28967358810496       -2.81720734734449       -4.91725659159487
H           -2.41783028672723       -3.17541812607044       -3.44103222218003
O            2.90128256011809       -2.72842553118139       -4.32764771161715
H            2.87146989160186       -1.87251015957288       -4.75356764712614
H            2.32212260648116       -3.32651828729630       -4.81473419274545
O           -0.12793063043274       -2.56094523282783       -5.12627500863372
H            0.52069792068960       -1.84334341648163       -5.05251044908578
H            0.10962686779442       -3.16996213945818       -4.39800385478141
O           -2.83371600165057       -3.30509345222212        0.35747655489134
H           -3.16267811168811       -3.99987726995227       -0.22140639090709
H           -3.57998967650214       -2.95373477453253        0.83880249800894
O           -2.33866728066200        0.93577553751522       -3.93782327554499
H           -2.87525001081204        1.72901048783561       -3.96434338307843
H           -2.58036167077644        0.41592365958659       -4.70853967541402
O           -1.14376912209950       -3.65485716599533       -1.59901013747771
H           -1.51945331984087       -2.76808486175836       -1.53489742416649
H           -0.85938410776995       -3.83001867450940       -0.67674433503850
34
 energy: -56.655949818091 gnorm: 0.043455736233 xtb: 6.7.1 (edcfbbe)
H            1.46285103767701       -0.28529736342216       -0.52363739947652
C            0.41720344779471       -0.57906371705558       -0.62136953076841
H            0.11555914602808        0.59997659231903       -2.33621971683748
H            0.33951373577036       -1.52362895242279       -1.15797575930919
N           -0.27008115989833        0.48827575365989       -1.39226981974764
H            0.30272345832398       -1.49817206900082        1.33341386012679
C           -0.17264066406920       -0.69226648757356        0.77598405771902
O            0.57219810641766        1.58728648734026        0.99883642952918
C            0.06438881641639        0.61892249957377        1.61351495965692
H           -0.13146365502171        1.35861466828850       -0.84447372443649
O           -0.33862221701853        0.57447182572694        2.79773988818328
H           -1.27490555648350        0.30852744976706       -1.49543311380326
H           -1.24482980842112       -0.88185575549218        0.77302245403220
O            1.16104112196777       -4.04221505236317       -2.91689900556115
H            1.80741033463390       -3.62635212264138       -2.32570527145721
H            0.35014372697674       -4.25506494851106       -2.38624261065867
O           -2.81391181051732       -2.63766261457456       -4.11867318532899
H           -2.29373015149811       -2.81219562674855       -4.90629258801807
H           -2.44020641666438       -3.20265919135822       -3.44238822456798
O            2.97394822102220       -2.68768911062197       -4.36504946679661
H            2.93046600644004       -1.85240031623075       -4.84744356579707
H            2.38815329123997       -3.32612716149901       -4.80542981867091
O           -0.12963776049014       -2.60044129101553       -5.06568829322199
H            0.50104715192415       -1.86411974413095       -5.07277886593673
H            0.18003314080920       -3.20327401866001       -4.36893147245965
O           -2.88909095900592       -3.25420674589472        0.38184923952484
H           -3.18636777018852       -3.99189719935584       -0.17137614339137
H           -3.65493480920686       -2.95187701540526        0.88494944359766
O           -2.30705102898086        0.94332926084428       -3.89893528965897
H           -2.85259674726167        1.73551696616961       -3.97059016025597
H           -2.53840327286759        0.37595001668691       -4.64804220253312
O           -1.13509401628116       -3.65691442557539       -1.60086469914423
H           -1.56428185806429       -2.78128492420078       -1.54925583317555
H           -0.88553108150235       -3.82616966661822       -0.67029557135594
34
 energy: -56.658896972685 gnorm: 0.058535091728 xtb: 6.7.1 (edcfbbe)
H            1.46101904137379       -0.30148344906684       -0.52704725377743
C            0.41250202828917       -0.59125019298273       -0.62926106564380
H            0.11763340538988        0.64096115870891       -2.31493508886929
H            0.33624378164167       -1.52998502940937       -1.18213320674754
N           -0.27072891403403        0.49760965317833       -1.37324860899671
H            0.31253500293282       -1.49504296535603        1.33880669625446
C           -0.17594045941164       -0.70217376811395        0.77011238579558
O            0.50464214568182        1.61956767782488        0.94053818791105
C            0.03226818417013        0.63644219190287        1.58368713779707
H           -0.11423950616254        1.34546085313714       -0.78010111668706
O           -0.30817157042446        0.58294743818803        2.78362064472520
H           -1.27986453513906        0.33037422850400       -1.48101419960221
H           -1.24668523792964       -0.90262959420154        0.76523204845754
O            1.13079050849188       -4.04619366513197       -2.97702245883932
H            1.79231129900946       -3.65868423320629       -2.38772255089237
H            0.33160389460491       -4.23717874733001       -2.43869131346024
O           -2.87366579190961       -2.69306215894593       -4.12435640748656
H           -2.22777887351190       -2.74735028928195       -4.89345581595200
H           -2.44206505149427       -3.23506628596547       -3.44763426974516
O            3.04342596120954       -2.65026231461900       -4.39720018262245
H            3.00151127545182       -1.83637793153169       -4.92779674958617
H            2.46054571804918       -3.30889659671948       -4.80940820798842
O           -0.12087633882821       -2.65830492075783       -5.02878601985133
H            0.47804938665434       -1.89456900804254       -5.08620457556334
H            0.24028513745636       -3.22693853199584       -4.31649554823164
O           -2.95255739373589       -3.21365311006975        0.42350237848220
H           -3.23641791828860       -3.96123562368384       -0.12293487672780
H           -3.72612364776896       -2.92800955722709        0.92881790960217
O           -2.27018494900636        0.93696547072035       -3.85560246807002
H           -2.81501079112170        1.73155847306826       -3.95848944132694
H           -2.50150576763158        0.34525640453034       -4.58748908098799
O           -1.18060258470523       -3.67033963375337       -1.57092142791260
H           -1.56644717924288       -2.78893266810547       -1.58103573344925
H           -0.90320026005945       -3.83148727425993       -0.67828072000665
34
 energy: -56.662439559385 gnorm: 0.037999513280 xtb: 6.7.1 (edcfbbe)
H            1.46239904550717       -0.32395073459411       -0.53839419929132
C            0.41038823786956       -0.59712512376089       -0.63918486868930
H            0.12093971981871        0.67124687568396       -2.29627189576190
H            0.32215945371843       -1.53066150292278       -1.19682033741277
N           -0.26938659404456        0.50587107224775       -1.36071507431273
H            0.31200767507156       -1.48402478221222        1.33937484493695
C           -0.17641684345218       -0.69914931198636        0.76046886660639
O            0.45045534311677        1.63317915144795        0.93667000988112
C            0.00386871364897        0.64310329451967        1.57004297845720
H           -0.09821817759556        1.33341238019039       -0.73030332199486
O           -0.30905345539219        0.58980213426186        2.77048992634571
H           -1.27927798271034        0.34737159608708       -1.46911300545918
H           -1.24490299628298       -0.91075002461428        0.74947619433217
O            1.10717013024162       -4.04907617701561       -3.02157702214242
H            1.76316929721813       -3.66981148790403       -2.43794172869245
H            0.32872720365131       -4.22516139038902       -2.48161405115334
O           -2.80236696195388       -2.65608361047879       -4.11932666224456
H           -2.25471815192615       -2.78780844596706       -4.88150735551969
H           -2.46669450093117       -3.25655764170736       -3.44478429816520
O            3.08783333008423       -2.63186528749410       -4.42369465342437
H            3.06725904423424       -1.83668495552774       -4.97470408780616
H            2.51782734520003       -3.28299742760564       -4.83333941696641
O           -0.10494240069930       -2.68784396434231       -5.03549765870518
H            0.47187358307727       -1.92333291921539       -5.08854964669953
H            0.26416799714868       -3.23459682161227       -4.30695736370346
O           -2.99245182664354       -3.19771787645207        0.43875172398873
H           -3.28922345998387       -3.93441083007412       -0.09798297250227
H           -3.74977545267004       -2.90222256757667        0.94648508651991
O           -2.23692753627421        0.91800529966967       -3.82136579747897
H           -2.76685313118625        1.71638047602683       -3.92950022449859
H           -2.47787313375829        0.33516219914929       -4.54394723255980
O           -1.18687325101848       -3.67336811897295       -1.55348269272046
H           -1.56517874094319       -2.79729518217440       -1.59905881591518
H           -0.97581152213950       -3.84300229467745       -0.62907624724657
34
 energy: -56.663056118818 gnorm: 0.069666424427 xtb: 6.7.1 (edcfbbe)
H            1.46505938973470       -0.34903100102425       -0.56911150173920
C            0.40892510902128       -0.59948431674632       -0.65852976044054
H            0.12598612410324        0.68945928266678       -2.29490279828253
H            0.29814463141362       -1.52918333783883       -1.21226944166679
N           -0.26438159094506        0.51215485219045       -1.36721158057049
H            0.31565415762589       -1.47298636600241        1.32630334781226
C           -0.17376071428165       -0.69623949734848        0.74166458029642
O            0.39276176284864        1.63903347882561        0.92258079806746
C           -0.01333400259381        0.64091732706152        1.55258247728340
H           -0.08626834735705        1.32365149705306       -0.71330130069273
O           -0.29933594250328        0.58628387365203        2.75780080751645
H           -1.27163527142290        0.35909278509235       -1.47470998784792
H           -1.23906524864284       -0.92211319128949        0.73046881721849
O            1.11343278477812       -4.12823809130663       -3.03983036255045
H            1.79317034728370       -3.70781136503999       -2.50511814398736
H            0.26759480993550       -4.14118527753594       -2.46325869835248
O           -2.81882947144978       -2.66844456989557       -4.12649213903659
H           -2.18976507580987       -2.75477686798991       -4.86113929210945
H           -2.50504189565876       -3.27431690619106       -3.44772027571196
O            3.12200072359174       -2.60731296903770       -4.41821082102446
H            3.11510802783708       -1.83312180166353       -4.98939300380194
H            2.56096068793554       -3.26665510077235       -4.82051741872446
O           -0.11117183306044       -2.68569664525014       -5.02704969236395
H            0.46323811131926       -1.93667227102476       -5.09281610238893
H            0.28458681900097       -3.25151646573463       -4.34524588643868
O           -3.02213829133830       -3.16558350234192        0.43197782133521
H           -3.32280545645670       -3.93585507462933       -0.06082078468244
H           -3.76615064090298       -2.88776717261393        0.96701731002335
O           -2.20727288505950        0.91795150861218       -3.78209055535821
H           -2.72289381922515        1.71900028386088       -3.91290341960400
H           -2.45462544983858        0.31944763284259       -4.48795195069969
O           -1.14761051405758       -3.67916019511334       -1.54868208818995
H           -1.62218942661998       -2.82561999093925       -1.59361431504863
H           -1.04504760920397       -3.83018454452052       -0.56045563823766
34
 energy: -56.666292423845 gnorm: 0.043630502475 xtb: 6.7.1 (edcfbbe)
H            1.46768724538087       -0.36460046861439       -0.58860592211616
C            0.40637864911244       -0.59642270392704       -0.66535338696787
H            0.13363643162316        0.70198053435379       -2.29239236648242
H            0.27605369621267       -1.52539568279383       -1.21496434424478
N           -0.25886401590592        0.51982014114499       -1.37003780806907
H            0.32269941927011       -1.47184694893964        1.31893170116023
C           -0.16948669149300       -0.69690620655038        0.73815540861313
O            0.32373566464270        1.66203573309434        0.89814802750504
C           -0.00129984444377        0.62518990309180        1.55562938939267
H           -0.08349628545901        1.32406635672634       -0.70866631589817
O           -0.28939356956897        0.58493932233927        2.75814282191661
H           -1.26371658316945        0.36727468692334       -1.47929431343746
H           -1.23440135383192       -0.93044339139537        0.72907166390035
O            1.06000495092395       -4.08975994807762       -3.04604587547859
H            1.80797277091480       -3.73513005934606       -2.51389227946919
H            0.28392112546780       -4.17593891630991       -2.45182825795146
O           -2.81102244576720       -2.66637870885216       -4.13362803602875
H           -2.15201319046527       -2.75512125174253       -4.84718917552475
H           -2.54025801167119       -3.28835260229160       -3.45116664401647
O            3.13547649261231       -2.58059472049129       -4.41331667262137
H            3.14448370058428       -1.83211015097134       -5.02731757051328
H            2.58016990540801       -3.27175211124921       -4.79987475096042
O           -0.11925915318266       -2.71300989834607       -5.03804959113101
H            0.42461376340563       -1.91849674674454       -5.11778051386240
H            0.32401933106130       -3.26522765150115       -4.35879924096114
O           -3.05175341979721       -3.13352349324837        0.43729568933615
H           -3.34378767351603       -3.93226064397801       -0.03403288372165
H           -3.79759749964132       -2.87292188021639        0.98620788977519
O           -2.17942347365992        0.91902914657811       -3.75172349780824
H           -2.68951690858706        1.72164919206855       -3.90938832066433
H           -2.43343512441559        0.29070451090729       -4.44075188148697
O           -1.16791040404209       -3.68901710772276       -1.53316371707948
H           -1.65137845010475       -2.83684169398359       -1.58351600227608
H           -1.00953904789653       -3.81660053992704       -0.59375422282626
34
 energy: -56.667693136029 gnorm: 0.040608274538 xtb: 6.7.1 (edcfbbe)
H            1.46645005884518       -0.37527743657279       -0.60363885387328
C            0.39931501050640       -0.59541611759320       -0.67517740278916
H            0.14741784615074        0.72573438182885       -2.29300000408461
H            0.25730399682350       -1.52598596875918       -1.22516423150191
N           -0.25575858059379        0.52840026534011       -1.37529007923746
H            0.32936783186780       -1.46427532294889        1.31548697889352
C           -0.17468366299174       -0.69479413065450        0.73209427145845
O            0.30597648962613        1.66540647631666        0.89942834204717
C           -0.03372625450318        0.63167395291798        1.54041964233919
H           -0.09017244363950        1.32484527499806       -0.69588710174838
O           -0.26269718937218        0.57291137570120        2.76358343690123
H           -1.26034524863796        0.37445381151386       -1.49581955070481
H           -1.23827174578254       -0.94246999950187        0.71770873974501
O            1.09176199082910       -4.12780601358421       -3.03866723794247
H            1.73647705833049       -3.69991970507962       -2.49943126701583
H            0.31032974901348       -4.21578590090459       -2.48155138872158
O           -2.80680127216426       -2.66470046265088       -4.14354302312026
H           -2.11224519309143       -2.75671952857112       -4.82796397931318
H           -2.56612567844408       -3.29597008097411       -3.45316703761388
O            3.15805205456716       -2.56421552020449       -4.40643038103740
H            3.17607934281957       -1.83018483551804       -5.03874524866895
H            2.61583203053600       -3.26643065123656       -4.79492338859581
O           -0.11654329225098       -2.73434910299404       -5.09311842844868
H            0.40180404405910       -1.91637631014614       -5.12904818657752
H            0.30416254851368       -3.26153048327198       -4.37619449767832
O           -3.08076258884515       -3.12859891536968        0.45544038312601
H           -3.38833072350894       -3.89556149232254       -0.03384298938070
H           -3.81451719208477       -2.84601460446585        1.00587612778664
O           -2.14711074036493        0.90983156768430       -3.71552837218260
H           -2.64738641005032        1.71816692890743       -3.89398413254398
H           -2.41225118631787        0.26490847975040       -4.39011240565550
O           -1.19679263421529       -3.68634013734050       -1.51900617606772
H           -1.61699532363829       -2.82807362666342       -1.57853615864305
H           -1.03551269198980       -3.84150016762267       -0.59521739914853
34
 energy: -56.670057866371 gnorm: 0.029917805809 xtb: 6.7.1 (edcfbbe)
H            1.46332129437255       -0.39249180160414       -0.62509451443195
C            0.39208582549711       -0.59783424816245       -0.69095218616284
H            0.16117255225291        0.75224939721566       -2.29323738784877
H            0.23475056352402       -1.52688575185533       -1.24152135721077
N           -0.25257125907920        0.53712248870335       -1.38300915949103
H            0.33596224573325       -1.45944452077330        1.30439301102272
C           -0.17582893274433       -0.69481136317548        0.72019398070926
O            0.25824800425158        1.67511801261156        0.89002936275638
C           -0.05430850344762        0.63279846505654        1.52465370527432
H           -0.09398630852609        1.32213493714623       -0.68080678377972
O           -0.24588781428791        0.56272077196077        2.75667798746386
H           -1.25638804310514        0.38622013252477       -1.51832396016446
H           -1.23742419032517       -0.95362199251579        0.70550877220352
O            1.05045390673365       -4.13876741313514       -3.05731340443830
H            1.77119741496497       -3.74009334303806       -2.55000425960098
H            0.28420522576287       -4.18583411616989       -2.46204301869597
O           -2.79279540368695       -2.65712277748983       -4.14979414989985
H           -2.06681495825883       -2.75200854497202       -4.80271974743568
H           -2.58723329383658       -3.30220441659367       -3.45511964443640
O            3.16932058391886       -2.54626390745634       -4.39990128480167
H            3.22765075861758       -1.82813807092628       -5.04059677424791
H            2.65869541091759       -3.24235101745784       -4.81127089726898
O           -0.12168136480972       -2.74188728453869       -5.10549707775084
H            0.39778509922060       -1.94386475735340       -5.13941392196424
H            0.29335616999320       -3.28092530670770       -4.40889511147314
O           -3.11332951626156       -3.10024772807530        0.45677677822118
H           -3.43169161869228       -3.88266640338915       -0.00268891043210
H           -3.83003629833463       -2.81957852760653        1.03155274430402
O           -2.11278046595607        0.88698444247977       -3.67302847653020
H           -2.58824392922268        1.70450865343349       -3.85177860789231
H           -2.39294886952152        0.25735144836726       -4.34088793970365
O           -1.19069226442166       -3.68673888020136       -1.50875145162254
H           -1.62523790396564       -2.83817045319087       -1.58046525066083
H           -1.08502411727566       -3.84722012310239       -0.55962206400842
34