46
 energy: -75.110492092944 gnorm: 0.079592118233 xtb: 6.7.1 (edcfbbe)
N           -1.18931235390000        0.54539779140000        2.07704581180000
C            0.17939258980000        0.33230262330000        1.58508905600000
C            0.31212648300000        0.77386912160000        0.13670746670000
C           -0.38779331140000       -0.16886571470000       -0.85249961690000
C            0.47011258260000       -1.37151901580000       -1.16542139240000
O            1.18933095220000       -1.34298949120000       -2.20474008390000
O            0.47046959570000       -2.35878373080000       -0.38640667140000
H           -1.25845729940000        0.21563673090000        3.05971894820000
H           -1.44748688620000        1.54541874010000        2.10207940730000
H            0.85632449950000        0.91354898860000        2.20371015000000
H            0.44228607670000       -0.71790826640000        1.69036086150000
H            1.36411613780000        0.85378091010000       -0.13286020390000
H           -0.13202437480000        1.75867197260000        0.03278250170000
H           -1.33781575610000       -0.50984814140000       -0.45252436010000
H           -0.56732332610000        0.34673362670000       -1.78932055760000
H           -1.86934352710000        0.03579409170000        1.50135604050000
O           -1.49688186660000       -5.08644259470000       -0.41182673380000
H           -2.33029589800000       -4.58521192420000       -0.29508025770000
H           -1.38759887680000       -5.17201080180000       -1.37993409180000
O            1.27857645620000       -3.04265411500000        2.19723978600000
H            0.76759260440000       -3.86971762010000        2.23160778610000
H            1.24330208870000       -2.77540744050000        1.26786910200000
O            1.35404463040000        1.11396237290000       -3.41616794080000
H            1.29225974930000        0.95870586250000       -4.37837329670000
H            1.33023438550000        0.23848421950000       -2.98257080590000
O           -2.26229136660000        2.91324744660000        3.02284534900000
H           -2.79493028080000        2.48359567660000        3.72143598680000
H           -1.85954903020000        3.67682037380000        3.45510298570000
O           -1.18193627200000       -0.08565829620000        4.75105085050000
H           -0.65686074240000       -0.91364177710000        4.83267610080000
H           -2.11987649760000       -0.34053152030000        4.89628429050000
O            3.35861647070000       -1.17377658010000       -3.90767909060000
H            4.06079302480000       -0.82366724220000       -3.32166450690000
H            2.59967027230000       -1.29935340050000       -3.31230114540000
O           -3.48575913030000        0.34432365970000        0.35437177240000
H           -4.28649288670000        0.04326817940000       -0.11177050690000
H           -3.71495016850000        1.25834897260000        0.66050209610000
O           -1.78105497940000       -2.10134515290000        1.26087722770000
H           -1.67067626130000       -2.53229735680000        2.12771149850000
H           -0.98487760250000       -2.30776614070000        0.74138386880000
O            0.29843545740000       -3.21749848150000       -3.92349002290000
H           -0.40469596760000       -2.62877739080000       -4.29595473110000
H            0.67253948270000       -2.67878152640000       -3.19914984110000
O            2.49854849510000       -4.00632048060000       -0.87888197270000
H            2.67173216480000       -4.22129735290000       -1.81425938670000
H            1.68571393470000       -3.43699476160000       -0.84977079290000
46
 energy: -75.118154966873 gnorm: 0.043058834776 xtb: 6.7.1 (edcfbbe)
N           -1.18580286903887        0.54427209497427        2.07994749900083
C            0.18503022501630        0.34462461561439        1.58533985220817
C            0.30942376946861        0.79007602971145        0.13513292071851
C           -0.39315576767303       -0.15208646680957       -0.85327982217167
C            0.47798573294228       -1.35322776103915       -1.15392980269693
O            1.18245185441188       -1.33376155455426       -2.20118560124547
O            0.45878346293261       -2.34330384041453       -0.38237592335769
H           -1.24515294931378        0.21357859954150        3.06555214959791
H           -1.45424307822560        1.54270352645578        2.10120740079179
H            0.86647631704221        0.92626798645061        2.20382421230644
H            0.45159059109585       -0.70746542048810        1.68290524668055
H            1.36259347967498        0.86309434591665       -0.13894571587235
H           -0.12988513282224        1.77979119631182        0.02572494521932
H           -1.34633294285295       -0.49442510329721       -0.45590617197229
H           -0.56476292087579        0.37049159325765       -1.79210951962646
H           -1.86327010373487        0.02267518981613        1.50452472398193
O           -1.51977330831199       -5.09622458654126       -0.40687972420551
H           -2.33122213126691       -4.57597750476720       -0.30766808298336
H           -1.37851466355406       -5.17406060517332       -1.35983739698710
O            1.19344734410355       -2.99810020643708        2.22103027577344
H            0.82715396263219       -3.90615738517125        2.23911778594819
H            1.25068046434464       -2.81025488722062        1.26529083230852
O            1.30975327217600        1.13724476383096       -3.41967035257132
H            1.33145127418903        0.97381073129484       -4.37413406068882
H            1.31877925531378        0.25656157765321       -2.99574571443189
O           -2.27668706226796        2.92368058317590        3.01866103315108
H           -2.78812981080254        2.50414166291363        3.72448477394150
H           -1.84508539540445        3.67911414613521        3.43140937676496
O           -1.21082198455852       -0.11043779932371        4.73358478049997
H           -0.65154181209540       -0.89264902980056        4.86893948972493
H           -2.11831009028535       -0.38425227358215        4.94678185396865
O            3.38397668043326       -1.18441396788276       -3.90813126219986
H            4.07599421750809       -0.82482341929000       -3.33571288944444
H            2.62726406266182       -1.32010370449612       -3.31590678575075
O           -3.49530710746491        0.36126760071419        0.36917818447566
H           -4.27121896331624        0.03529039684093       -0.10203759565159
H           -3.72606843416331        1.26608227398609        0.64049458810509
O           -1.79545279217467       -2.12559875300225        1.27453871422401
H           -1.65976326523248       -2.56906733861721        2.12024206777730
H           -1.01294645721300       -2.32589193346281        0.73254080356008
O            0.24138299031754       -3.25609915798119       -3.89398203020012
H           -0.39093356289265       -2.65557526441075       -4.33174833482946
H            0.70188284328393       -2.66292053430005       -3.25635105563825
O            2.51444839711628       -4.03258704158762       -0.88787695070238
H            2.65038227590404       -4.21689936867342       -1.82569803966540
H            1.72138360497258       -3.44555896287125       -0.82417974333571
46
 energy: -75.121315596895 gnorm: 0.028198716435 xtb: 6.7.1 (edcfbbe)
N           -1.17931421252831        0.53967425137181        2.08835828490255
C            0.19199661299463        0.35963831896891        1.58388599629429
C            0.30786878676161        0.80977641361543        0.13173156206509
C           -0.39841034009798       -0.13075844861801       -0.85751398543906
C            0.46307310627713       -1.34533863128557       -1.16317581878509
O            1.17591224408880       -1.32308052314910       -2.20229884457028
O            0.45233341189639       -2.31981228392237       -0.37739597245796
H           -1.22498229715142        0.20981593136678        3.07973293330660
H           -1.46503408472840        1.53423428584877        2.10021373699780
H            0.87675170696618        0.94353962907176        2.20116142697628
H            0.46561830199056       -0.69348274335865        1.67210833057767
H            1.36185405592971        0.87671039024886       -0.14793123783549
H           -0.12391491633955        1.80603089282838        0.02031692370039
H           -1.35547859266919       -0.46825120859448       -0.46113337038442
H           -0.56264251117984        0.40263086844305       -1.79551602989526
H           -1.85219675642152       -0.00027005258402        1.51740763169070
O           -1.55393784143049       -5.11208131760306       -0.39722106645664
H           -2.33574422075596       -4.55933400585978       -0.32073180900331
H           -1.36178192913762       -5.17283850927626       -1.33349863872035
O            1.21026151979437       -3.03540726983803        2.23353034618770
H            0.81488420652619       -3.90040241084988        2.26260995766439
H            1.21628145508783       -2.80665958612741        1.29883122511574
O            1.27279880467740        1.16672028242211       -3.42719389585259
H            1.37315051761324        0.99728391723891       -4.37135093202078
H            1.30071015340004        0.28135360756576       -3.01338896564131
O           -2.29041637459314        2.93913298847106        3.00761284577497
H           -2.78491533966945        2.53874996996002        3.72303722404304
H           -1.82285636959105        3.68821155511097        3.38993507364780
O           -1.24758561551192       -0.14443371628399        4.73021184299359
H           -0.64831416807104       -0.87509620336793        4.90530658383334
H           -2.12245332341014       -0.44000046571635        5.00167810988590
O            3.41313639253915       -1.19727454830509       -3.91035311250471
H            4.10776612264413       -0.83399942805402       -3.36298984813375
H            2.66717573937787       -1.34399471246938       -3.31185718004103
O           -3.50183127443333        0.38922570434896        0.37751924159933
H           -4.25417928628384        0.02215620289716       -0.08538041674696
H           -3.73727447000943        1.28148639610008        0.61944054032161
O           -1.81751692056466       -2.16948044484713        1.28595223182845
H           -1.64145756834611       -2.61709997657547        2.11300339340397
H           -1.03885655606398       -2.33997165631350        0.72764375593915
O            0.27149244061753       -3.24797407337566       -3.93065890757744
H           -0.41509335727056       -2.74403122847936       -4.35731262239592
H            0.65796328515717       -2.65120139978768       -3.27056550436487
O            2.53696615972044       -4.04961056502458       -0.89303492177931
H            2.62842654298041       -4.22214730108359       -1.83022822667327
H            1.75770023121748       -3.45949385172924       -0.80333695697042
46
 energy: -75.123720502772 gnorm: 0.031153838789 xtb: 6.7.1 (edcfbbe)
N           -1.17549397597864        0.53139090192826        2.09718109236052
C            0.19509394066124        0.36979490675191        1.58248230632091
C            0.30632329069280        0.82634702515774        0.13176275243398
C           -0.40076868700421       -0.11119067667801       -0.85980990208417
C            0.45843382042741       -1.33039691559221       -1.16995831764685
O            1.16916581708959       -1.30594969688580       -2.21051613178242
O            0.45389561668746       -2.29960606516854       -0.37791367659294
H           -1.21615259393886        0.20129185230190        3.09048340598834
H           -1.47711703268843        1.52104183582107        2.10293587712499
H            0.87676130084307        0.95720347689815        2.19899754334334
H            0.48021601519810       -0.68074672841975        1.66243753703483
H            1.35951905387741        0.89524003952565       -0.15057720943231
H           -0.12420013007035        1.82338221905939        0.02525489468254
H           -1.35902083486242       -0.44599191549301       -0.46527418174103
H           -0.56358618841806        0.42458377557810       -1.79613991800604
H           -1.84285820065301       -0.01951942488780        1.53139158805622
O           -1.59535251329033       -5.13941076042860       -0.37918010604364
H           -2.34570555315389       -4.52863725107079       -0.33765379457356
H           -1.33379759296175       -5.17230311462370       -1.30868328038352
O            1.13756561292748       -3.00758729045756        2.26439194237401
H            0.88088584750031       -3.95549753641516        2.28322888683817
H            1.18202800514140       -2.81376901586375        1.31903258233862
O            1.25846230392608        1.18824093355895       -3.43815368145455
H            1.40453047565819        1.02033139461763       -4.37853204527660
H            1.28079160764498        0.30313978879955       -3.02611650990845
O           -2.29296181835430        2.94906010675785        2.99152195334460
H           -2.78400552449220        2.57197953481056        3.72429692441072
H           -1.80169915493269        3.70026994630635        3.34361967341509
O           -1.27588391803613       -0.17118327063149        4.73839613385651
H           -0.62756586728772       -0.86081288054043        4.93919256084135
H           -2.13023326310025       -0.49967188254081        5.04511806571444
O            3.43065899049081       -1.20714942295745       -3.91404386409948
H            4.14081250368811       -0.84271226368986       -3.38405247363004
H            2.69414985695681       -1.35354235024302       -3.30478057050529
O           -3.50464547672048        0.40388097475538        0.39808916975168
H           -4.23887689694795       -0.00173467575950       -0.06853828773916
H           -3.75037326011178        1.31074606178697        0.59034825843392
O           -1.82845688343343       -2.19833555537629        1.29006923806674
H           -1.62246906084896       -2.66148310751678        2.10553519928308
H           -1.05445028418201       -2.34216747255407        0.71528654100333
O            0.26654431607477       -3.27648466276756       -3.91607951558705
H           -0.41315867205452       -2.80946243953215       -4.41261251659815
H            0.63839130024662       -2.62964409242777       -3.29024024563821
O            2.54572533555792       -4.05636361584790       -0.89872446567311
H            2.60979652669729       -4.23315909719983       -1.83946301478104
H            1.77701531753338       -3.46056654944703       -0.79684948333996
46
 energy: -75.123881240935 gnorm: 0.050087590951 xtb: 6.7.1 (edcfbbe)
N           -1.17075586940787        0.51782397762572        2.11109270388181
C            0.19859750090252        0.37955255940527        1.58404329122676
C            0.30157025404724        0.84696248488519        0.13624950248855
C           -0.40402249471667       -0.08555941836367       -0.85988679184625
C            0.46681658738285       -1.30079573988033       -1.16706752622500
O            1.15283312488471       -1.28319530721044       -2.22552627533777
O            0.45364738428316       -2.27589364843940       -0.38125156300267
H           -1.20878188671821        0.18783446514714        3.10505819218201
H           -1.49220499853752        1.50095515531921        2.11002962033383
H            0.87449096986325        0.97265846814618        2.19932999658402
H            0.49998133201819       -0.66666192117272        1.65366329760088
H            1.35333080588029        0.92167935359348       -0.14869052361576
H           -0.13139503171911        1.84243429045153        0.03752296776192
H           -1.36277367211580       -0.42088475698065       -0.46905539741779
H           -0.56586527676767        0.44966053094469       -1.79516919575185
H           -1.83166452589509       -0.04448826816172        1.55250550217401
O           -1.62131212384731       -5.14140065747386       -0.36266142786077
H           -2.35827752738555       -4.51217170719200       -0.34099421313369
H           -1.32614600216653       -5.18548598290304       -1.28211858945075
O            1.13426819368540       -3.03853173192790        2.28069350962429
H            0.85519871949654       -3.95522374073117        2.32444932191280
H            1.14535347892189       -2.82489071385287        1.34110284624374
O            1.25757622446906        1.21102145837730       -3.45625289637776
H            1.42925542232884        1.05017188701806       -4.38943741427012
H            1.25986250070808        0.32777128967751       -3.04330941207664
O           -2.28906635960878        2.95984579732332        2.96639652481918
H           -2.78342471961308        2.61528279670750        3.71970599984581
H           -1.77840042295432        3.71655813815348        3.28164827539960
O           -1.29695126666129       -0.20722062198694        4.75942712511439
H           -0.61030411943033       -0.85921993522712        4.96660903213916
H           -2.13309391853300       -0.55941235911850        5.08977297944562
O            3.44941016111844       -1.21884368425586       -3.91957110891842
H            4.18105514754388       -0.85858279920586       -3.40596702050525
H            2.72035005420530       -1.35616417076838       -3.29938887583479
O           -3.50874405866318        0.41536659954466        0.42745502555672
H           -4.22255993145945       -0.03187435600095       -0.04369038360030
H           -3.76518430551648        1.34653596589275        0.54824161253854
O           -1.83489693488852       -2.22614609820371        1.28920630198795
H           -1.60051177142919       -2.70794403328973        2.09241997032764
H           -1.06442068922683       -2.33997817882620        0.70142280025678
O            0.20906911531097       -3.34484212387529       -3.85554924741835
H           -0.37866077815581       -2.85770786457608       -4.49292386123020
H            0.65005281081408       -2.60831896984939       -3.33615365500645
O            2.54844968213035       -4.06802457459850       -0.90807451095475
H            2.58519122790786       -4.24931727897999       -1.85381785260184
H            1.80099145951313       -3.45048953176187       -0.79432772250808
46
 energy: -75.125830951955 gnorm: 0.018143072675 xtb: 6.7.1 (edcfbbe)
N           -1.16832138191028        0.50947180173018        2.11795304350049
C            0.20066534367723        0.38223762857894        1.58658376358257
C            0.29798904068489        0.85507956325358        0.13995407896945
C           -0.40433324651922       -0.07623418847453       -0.85920208006731
C            0.47062934709649       -1.29007277649426       -1.16454038059624
O            1.13784409927073       -1.28320322302582       -2.23646777504175
O            0.45571510444410       -2.26591736147206       -0.37905989249322
H           -1.20677301832884        0.17979347617795        3.11103687413996
H           -1.49843546131081        1.48973171903139        2.11498485451971
H            0.87300673717062        0.97917546455208        2.20139971473775
H            0.51030959817429       -0.66147532639224        1.65203851709633
H            1.34910465280228        0.93481418018478       -0.14524102959823
H           -0.13907727741280        1.84869827723639        0.04536457108377
H           -1.36304489707801       -0.41206859067597       -0.46895500506716
H           -0.56699812730585        0.45799456639260       -1.79437818337394
H           -1.82703429555362       -0.05696436875397        1.56252743807138
O           -1.62354789548163       -5.12929284033426       -0.35676553908409
H           -2.36344060407617       -4.51535970718551       -0.33092142632933
H           -1.33832149689968       -5.19324425918137       -1.26986311861039
O            1.09919268076751       -3.03143182696697        2.29732452548606
H            0.86759520687943       -3.96884597731603        2.34717249890587
H            1.13066134247789       -2.84093714324220        1.34774958923698
O            1.25409076908225        1.21649327062298       -3.46411618231559
H            1.44457628068419        1.06397069976499       -4.39497978457232
H            1.25161372634992        0.33157126231576       -3.05390803490164
O           -2.28026629184232        2.96581454465215        2.94916776699465
H           -2.78342792620637        2.63615033506301        3.70462576672807
H           -1.77175185816135        3.72501270586273        3.25379283392575
O           -1.29689005291423       -0.22510688730301        4.77436858625824
H           -0.61347466688172       -0.87000975034036        4.97325030817432
H           -2.12946708839239       -0.57220062223792        5.10392495128721
O            3.45339261240712       -1.22465167907710       -3.92456187458027
H            4.19609655780650       -0.87432309250808       -3.41660693385614
H            2.72676818122201       -1.35234296179532       -3.29901023203983
O           -3.50367742967003        0.42380268491255        0.41868859976996
H           -4.22163472474213       -0.02859306311614       -0.03473396973953
H           -3.76205681706253        1.35046851214158        0.54141650322582
O           -1.83021880925189       -2.23125087883037        1.28504982734356
H           -1.59541459803137       -2.72216992499052        2.08198962469212
H           -1.06187616219680       -2.34099606185103        0.69688545228677
O            0.25114157390685       -3.31782834212616       -3.91492754496655
H           -0.40338882709060       -2.86828497632499       -4.45728589281096
H            0.63513603758850       -2.64305572341599       -3.32950276764704
O            2.54917848471092       -4.07080286008507       -0.91225816034732
H            2.57458087812786       -4.25923254422292       -1.85792247984268
H            1.81151817098745       -3.44153869133458       -0.79488046763435
46
 energy: -75.126383530327 gnorm: 0.036842574514 xtb: 6.7.1 (edcfbbe)
N           -1.16719186108402        0.49529752686124        2.12345989411993
C            0.20283050376268        0.38321974163119        1.59183223116464
C            0.29249150352003        0.86554783496569        0.14716133493509
C           -0.40702115615026       -0.06299446043907       -0.85746281684690
C            0.44787942985423       -1.28660450979872       -1.18297596678266
O            1.12574842530487       -1.26917076335556       -2.24561814847188
O            0.47074964397194       -2.24469388792855       -0.37526534105652
H           -1.20704744179910        0.16281920270969        3.11345139421317
H           -1.50750612420098        1.47248249176263        2.12089603779997
H            0.86969250598873        0.98463407024347        2.20888385310470
H            0.52184775277449       -0.65794175231900        1.65161045004907
H            1.34289245971566        0.95320229744524       -0.13871717330788
H           -0.15048657804711        1.85799051409125        0.06138042775891
H           -1.36613923109689       -0.39766242990638       -0.46672116555053
H           -0.57082549126771        0.47742945848920       -1.78927794855782
H           -1.82135167046250       -0.07686244696243        1.56825912023933
O           -1.67144648556008       -5.16905237185601       -0.33600745482979
H           -2.36562791961716       -4.47968160867831       -0.33716104517449
H           -1.32248533323305       -5.18409449691602       -1.24263840633252
O            1.06183946768393       -3.03009504920161        2.31858252196984
H            0.88714159552178       -3.98944747679242        2.36958929502996
H            1.09836610408547       -2.84627143081228        1.36764646386300
O            1.23322949476880        1.23099916917155       -3.47378793032597
H            1.48385307582265        1.08771301595334       -4.40402089228353
H            1.24245702755157        0.34109798934412       -3.07152227786321
O           -2.26540694822939        2.97448624154817        2.92239762354222
H           -2.78043174945837        2.66070833318984        3.67311197035954
H           -1.75995902835547        3.73282249933897        3.22127158213046
O           -1.30470337971062       -0.25079170023288        4.77713322819942
H           -0.59336230007775       -0.86617983861946        5.00379653217440
H           -2.12208436340972       -0.61683525029572        5.13947236799982
O            3.46105683096601       -1.22626848622167       -3.92939293702651
H            4.21251376671286       -0.90292422394091       -3.42068679891616
H            2.73221757877473       -1.33905716185868       -3.30405971268770
O           -3.49070266647225        0.44073749629044        0.38252067473181
H           -4.22832753317199       -0.00901654635596       -0.02659226053730
H           -3.75171585329640        1.34002362708544        0.55404816628617
O           -1.82040966514331       -2.23898824950679        1.27391312878575
H           -1.58924622921350       -2.73229072510807        2.06532468155942
H           -1.04933294293110       -2.34162234148405        0.69226952020830
O            0.25038953239764       -3.33495674918227       -3.90904126702533
H           -0.38946744111091       -2.89546935091673       -4.47297612008144
H            0.62439485423472       -2.65190282444562       -3.33247313347395
O            2.54674780148679       -4.06991365126958       -0.91920032449481
H            2.56405136977089       -4.27501882206183       -1.85887235230180
H            1.81782214042735       -3.43255786025545       -0.80638009179415
46
 energy: -75.126727016420 gnorm: 0.041819941507 xtb: 6.7.1 (edcfbbe)
N           -1.16526086698344        0.47939732019049        2.13261492803329
C            0.20489781149936        0.38473068990703        1.59864600454072
C            0.28587927338020        0.87835793632086        0.15677940968872
C           -0.40838080249209       -0.04656816977452       -0.85489543684494
C            0.43991828304231       -1.27173566962517       -1.19246591759813
O            1.11303332963319       -1.25078224013846       -2.25688422467906
O            0.48602797554249       -2.22181064312238       -0.37450180406490
H           -1.20420379195370        0.14414793666872        3.11971332508761
H           -1.51662941033111        1.45313031882884        2.13016572759050
H            0.86550800857695        0.99100613157238        2.21785733822285
H            0.53538288428531       -0.65312152373589        1.65164492094206
H            1.33518367190902        0.97701547270929       -0.13000400415011
H           -0.16616188344029        1.86783782684017        0.08076146973671
H           -1.36839455947191       -0.38319373316399       -0.46746598754781
H           -0.57154825728700        0.49931634842057       -1.78389516513994
H           -1.81382813467352       -0.09990727926452        1.57830536677873
O           -1.65883696602575       -5.12497851560391       -0.32952239295248
H           -2.38534434472112       -4.50895968107915       -0.31099746080469
H           -1.35506582876296       -5.19527204616689       -1.22929143200662
O            1.02471682459466       -3.03519894202375        2.33846401074281
H            0.89555459284277       -4.00870485655920        2.38997176438052
H            1.06455823642105       -2.85260267957219        1.38760253737208
O            1.26799236455706        1.24440523010258       -3.49021478781849
H            1.46318801286393        1.11143312848844       -4.40803703465067
H            1.24288371492991        0.35591677019682       -3.08618690593549
O           -2.25303455251330        2.98036092049084        2.89080311842553
H           -2.77542901073960        2.69000679690667        3.64602461349723
H           -1.74172850079374        3.73976800513637        3.17527241317433
O           -1.30340964763270       -0.28131662606061        4.79003618535445
H           -0.58278007107192       -0.87865620491710        5.02689574222121
H           -2.11186851117852       -0.65071827352129        5.16512227291554
O            3.46887518496734       -1.22654271221482       -3.93441137055645
H            4.23010669087986       -0.93508080386352       -3.42158327999531
H            2.73664759633334       -1.32453619638365       -3.31054080873852
O           -3.48366271029129        0.45113210706297        0.37651147647862
H           -4.22573024903070       -0.01186991009822       -0.01030471440864
H           -3.75195585243793        1.35037974627639        0.53557023723847
O           -1.81287761096267       -2.24874171590570        1.26223667027333
H           -1.57569169220953       -2.74689629201915        2.04770920569326
H           -1.03858867747685       -2.33224434939965        0.68156994585324
O            0.24430433049429       -3.36127496938205       -3.89048518702665
H           -0.37075290256856       -2.93131645046070       -4.50334602442961
H            0.61249354800637       -2.65047739107055       -3.33779875303751
O            2.54113965935158       -4.06932840929752       -0.92839454707609
H            2.54790086852769       -4.29323578207484       -1.86313756892974
H            1.82290544440939       -3.42042557622028       -0.81875294134655
46
 energy: -75.127378265395 gnorm: 0.038110837947 xtb: 6.7.1 (edcfbbe)
N           -1.16366661839009        0.46599842606706        2.14184991329639
C            0.20568869744411        0.38552803697404        1.60531822480683
C            0.27959171395825        0.88857775080375        0.16655987035414
C           -0.40618732699714       -0.03425385129760       -0.85138201710631
C            0.46455441032559       -1.24501564074189       -1.17829848634952
O            1.10204235339182       -1.24038966935584       -2.26750390211008
O            0.49614825474188       -2.20723647449085       -0.37552183226191
H           -1.19958727101349        0.12854541854387        3.12666289963450