166
 energy: -277.051256347115 gnorm: 0.605574260181 xtb: 6.7.1 (edcfbbe)
N            0.00260500000000        0.26833900000000        2.34949800000000
C            0.00561000000000       -0.53426800000000        1.12782400000000
C           -0.01360500000000        0.36044200000000       -0.11757000000000
C           -0.00658000000000       -0.48411400000000       -1.39958300000000
C            0.00530900000000        0.34606300000000       -2.65559300000000
O            0.01598000000000        1.56658800000000       -2.61114500000000
O            0.01013600000000       -0.27058000000000       -3.85192000000000
H            0.84383000000000        0.88923800000000        2.37341700000000
H           -0.86762500000000        0.84621600000000        2.39703300000000
H           -0.88589600000000       -1.19861800000000        1.12403900000000
H            0.91775600000000       -1.17084600000000        1.11100500000000
H            0.88289000000000        1.01613200000000       -0.10393900000000
H           -0.92488100000000        0.99783100000000       -0.09978000000000
H           -0.91002800000000       -1.12912700000000       -1.41351300000000
H            0.89428700000000       -1.13411000000000       -1.40682800000000
H            0.03021100000000       -0.36918600000000        3.17705500000000
O            0.68958700000000       -3.95813800000000       -1.63189100000000
H            1.48648400000000       -3.43972000000000       -1.90903700000000
H           -0.06117300000000       -3.54193400000000       -2.12559900000000
O           -3.85373500000000        0.33743000000000       -3.19681500000000
H           -3.91007500000000        1.12982800000000       -2.60559400000000
H           -3.35267000000000        0.65469500000000       -3.98984000000000
O            2.76344200000000        3.84996500000000        3.82108000000000
H            2.44322600000000        3.85754300000000        2.88405500000000
H            3.75032500000000        3.81831900000000        3.74576300000000
O            0.52219500000000       -2.59492500000000       -3.96615800000000
H            0.77989800000000       -2.06552300000000       -3.16995800000000
H            0.96481600000000       -3.47105900000000       -3.83543600000000
O           -3.29783600000000        3.23747300000000        2.06781100000000
H           -3.86082900000000        3.95520300000000        2.45318500000000
H           -3.94479700000000        2.59631200000000        1.67926600000000
O            1.90670200000000        3.28279300000000       -3.97392200000000
H            2.71460200000000        3.82142400000000       -3.77954000000000
H            1.15260100000000        3.84801800000000       -3.66984000000000
O           -0.03212500000000        2.48410900000000        1.55823800000000
H            0.79366600000000        2.83656300000000        1.97591800000000
H           -0.74841700000000        3.09020800000000        1.87475500000000
O           -2.48179900000000        0.56843200000000       -1.27750600000000
H           -3.01239200000000       -0.24154900000000       -1.48490100000000
H           -1.85433600000000        0.65560300000000       -2.03862600000000
O            3.83709000000000        3.12386400000000       -1.44355600000000
H            3.82192300000000        2.24723700000000       -1.90388700000000
H            3.90134000000000        3.78749000000000       -2.17573400000000
O            2.80707100000000        1.08754300000000       -0.63206100000000
H            2.59257300000000        2.01123400000000       -0.34675800000000
H            2.31867600000000        0.97181400000000       -1.48569400000000
O           -3.83858200000000       -2.35178800000000       -3.20530800000000
H           -3.80250900000000       -1.56516500000000       -3.80575300000000
H           -3.85622100000000       -3.13027700000000       -3.81707400000000
O            3.86560600000000        3.59733900000000        1.47863400000000
H            3.87547500000000        3.25417900000000        0.54978800000000
H            3.89410500000000        2.78462400000000        2.04369600000000
O           -3.75303600000000        0.31947100000000        3.10411700000000
H           -3.83859000000000       -0.32599300000000        3.85021900000000
H           -4.03619700000000       -0.18869100000000        2.30274100000000
O           -3.91591500000000        3.62135400000000       -3.75875800000000
H           -2.99882100000000        3.85582800000000       -4.04956800000000
H           -3.97768300000000        2.64283600000000       -3.89768800000000
O           -2.74564300000000       -3.92295800000000        1.30684400000000
H           -3.56264800000000       -4.06418100000000        1.84829500000000
H           -2.01669900000000       -3.84709000000000        1.97280100000000
O            0.84660100000000        2.21484800000000        3.86918800000000
H           -0.11925300000000        1.99841900000000        3.83928900000000
H            0.87768000000000        3.20261300000000        3.93217900000000
O           -2.95863700000000       -2.09920800000000       -0.78740900000000
H           -3.91987800000000       -1.93592800000000       -0.96051500000000
H           -2.55831300000000       -2.20126100000000       -1.68737400000000
O            3.87284400000000       -0.54002100000000       -2.11286300000000
H            3.89592400000000        0.35333400000000       -2.53947100000000
H            4.06667500000000       -0.36398700000000       -1.15784700000000
O            2.64440000000000        1.10128400000000       -3.89800100000000
H            1.84483400000000        1.38041400000000       -3.38478400000000
H            3.28494400000000        1.84795700000000       -3.78488000000000
O            1.35311700000000        3.51549100000000        0.19024800000000
H            0.51102200000000        4.00051000000000        0.38062700000000
H            2.01197600000000        3.90663200000000        0.81756500000000
O           -1.80682600000000       -1.62806400000000       -3.83525900000000
H           -1.21755400000000       -2.04554800000000       -3.15770800000000
H           -2.01610300000000       -0.73384600000000       -3.46486600000000
O           -1.45748600000000        2.10031500000000       -3.85202600000000
H           -1.41281000000000        1.11419500000000       -3.93065600000000
H           -2.16235800000000        2.26361200000000       -3.17593200000000
O           -2.87540800000000        1.83579400000000        4.05480600000000
H           -2.23607900000000        1.97840200000000        3.31215300000000
H           -3.72793600000000        2.21645900000000        3.72480300000000
O            3.30240400000000        0.88459800000000        1.91234000000000
H            3.90248900000000        0.33993900000000        2.48142400000000
H            3.81970000000000        1.03802600000000        1.08199200000000
O           -3.83517900000000       -0.40943400000000        0.32681000000000
H           -3.90838200000000        0.55530200000000        0.11577400000000
H           -2.86742200000000       -0.55829100000000        0.47480000000000
O           -3.23208400000000       -3.05988200000000        3.64615000000000
H           -3.84344600000000       -2.32021700000000        3.89057500000000
H           -3.75351500000000       -3.88236200000000        3.82573300000000
O            3.92720500000000       -3.25892700000000        1.67738200000000
H            3.20453000000000       -3.85295100000000        2.00216800000000
H            3.76717900000000       -2.39791900000000        2.13962500000000
O            1.96760000000000        3.77639700000000       -1.69255000000000
H            1.02762400000000        4.08791300000000       -1.68894700000000
H            1.91951200000000        2.84652500000000       -2.02965500000000
O            2.80786700000000       -0.65137100000000        0.74295500000000
H            3.71838700000000       -1.03625900000000        0.68441700000000
H            2.41304900000000       -0.81109300000000       -0.15103600000000
O           -3.44151100000000        2.88817100000000       -1.78090500000000
H           -3.91895400000000        2.39521600000000       -1.06700400000000
H           -3.84614700000000        3.79193900000000       -1.77159700000000
O           -0.90811400000000        3.04105700000000       -0.78908100000000
H           -1.54944300000000        2.47365200000000       -1.28643300000000
H           -0.03416100000000        2.59102700000000       -0.90863400000000
O           -1.96650400000000       -3.76730000000000       -3.84607100000000
H           -0.98518400000000       -3.89958300000000       -3.85715200000000
H           -2.20533500000000       -3.76228400000000       -2.88505700000000
O            2.49845900000000       -1.02828800000000        3.75206500000000
H            3.48328500000000       -1.13116200000000        3.76411900000000
H            2.28692400000000       -0.77453900000000        2.81853500000000
O            0.37024300000000       -3.81601400000000        1.39491100000000
H            0.03062700000000       -2.90644700000000        1.58974000000000
H            1.20999600000000       -3.88404100000000        1.91529600000000
O           -0.66387000000000       -3.31543700000000       -0.23877400000000
H           -0.01502900000000       -2.57979600000000       -0.37459800000000
H           -1.42838700000000       -2.88953800000000        0.22462400000000
O            2.90434200000000       -3.70201300000000       -3.41663300000000
H            3.82166100000000       -3.79531300000000       -3.77778600000000
H            2.75487500000000       -2.72427900000000       -3.36859200000000
O           -2.15601500000000        1.82925200000000        1.23182400000000
H           -2.67108600000000        1.06733300000000        1.59896600000000
H           -2.57533700000000        2.01195300000000        0.35352900000000
O           -2.64531600000000        3.92564200000000       -0.18310800000000
H           -2.04325800000000        3.91598500000000        0.60305000000000
H           -3.55683100000000        3.88733900000000        0.20197100000000
O            3.81912300000000       -2.70992900000000       -1.67689800000000
H            3.57916000000000       -3.66025000000000       -1.53576900000000
H            2.99418800000000       -2.20987900000000       -1.45318700000000
O           -0.46238100000000       -3.94959700000000        3.21369100000000
H            0.30983200000000       -4.04900900000000        3.82558600000000
H           -1.24118700000000       -3.83269000000000        3.81403000000000
O            0.77813600000000       -2.00344000000000        4.03907400000000
H           -0.20185900000000       -2.14151400000000        4.00505900000000
H            1.10642700000000       -2.33940600000000        3.16731500000000
O           -1.26835100000000        4.04087500000000       -3.08538800000000
H           -1.95436700000000        4.08204800000000       -2.37243800000000
H           -0.55522000000000        3.46507200000000       -2.71054300000000
O            2.20217500000000       -0.84665200000000       -3.85442300000000
H            2.05153000000000       -0.54769500000000       -2.92246800000000
H            3.18735900000000       -0.86541800000000       -3.95277500000000
O            2.79328400000000        1.87088400000000        3.57289700000000
H            3.75370000000000        1.82184100000000        3.80913200000000
H            2.44021200000000        0.96945700000000        3.78118300000000
O           -3.55812600000000       -2.07891400000000        1.93414100000000
H           -3.82759200000000       -2.27897500000000        1.00249000000000
H           -2.57928200000000       -1.93749600000000        1.88436400000000
O           -3.51678800000000       -3.96888800000000       -1.15439200000000
H           -3.95012400000000       -3.80980800000000       -0.27830700000000
H           -2.55246000000000       -4.04774800000000       -0.94352100000000
O            2.88934800000000       -3.03768500000000        3.81359000000000
H            3.80232000000000       -3.41887500000000        3.85586600000000
H            2.29227600000000       -3.82696400000000        3.77960100000000
O           -1.87432500000000        3.93847100000000        3.28228300000000
H           -2.57805300000000        3.83089100000000        3.97061600000000
H           -1.02610500000000        3.77812100000000        3.76748900000000
O            2.61129100000000       -3.30168600000000        0.17508300000000
H            2.28564400000000       -2.57928300000000        0.76896700000000
H            1.81498700000000       -3.86763700000000        0.01318100000000
O           -1.95525500000000       -0.60556800000000        3.23710200000000
H           -1.89171300000000        0.10050600000000        3.92850100000000
H           -2.05498700000000       -1.44676900000000        3.74998300000000
166
 energy: -277.402581808997 gnorm: 0.376268714257 xtb: 6.7.1 (edcfbbe)
N            0.01519345937197        0.25829044017643        2.34765253399030
C            0.00493573770354       -0.53997084263857        1.12459187325375
C           -0.00962760971862        0.35297576597971       -0.11616211595096
C           -0.00238994437807       -0.49384742449772       -1.39432093726255
C            0.02361619752057        0.33426123781724       -2.66231670401720
O            0.07642067659770        1.56622499871111       -2.58038097308695
O            0.00802916767693       -0.24128423448050       -3.83178895497953
H            0.84091342888975        0.88319574788850        2.36943690977788
H           -0.84998334722187        0.83808860379049        2.38608515435670
H           -0.88394065231357       -1.19044517150069        1.12471015476456
H            0.90915128594082       -1.16504705510948        1.11225732786780
H            0.87026553858425        1.00803078730736       -0.09718171338652
H           -0.90744326050435        0.98570099827860       -0.09516341039504
H           -0.90085122095281       -1.12755101327732       -1.41305458720400
H            0.89138469442030       -1.13545143969719       -1.40849567643203
H            0.03835011178407       -0.36707614598402        3.17327239229525
O            0.70949693783552       -3.97607547431885       -1.66642682555752
H            1.49029392261340       -3.44990675651481       -1.91389244502901
H           -0.04836504853429       -3.55174631454314       -2.12324467832227
O           -3.86976088376614        0.35139469378824       -3.21934155009860
H           -3.91012432358873        1.12623079925384       -2.61218160010025
H           -3.35762210377308        0.65461162396992       -3.98925524294765
O            2.76806610027240        3.93111920098838        3.82252416807245
H            2.45074974219655        3.86199637264034        2.89405660925713
H            3.73718133907879        3.82966120634169        3.74648456187726
O            0.51664423981410       -2.61738319555985       -3.96230919011304
H            0.77585801877688       -2.06949828897847       -3.18944854015473
H            0.97215424104970       -3.47130102128087       -3.84043611250727
O           -3.35829924802059        3.25618833643628        2.06544550369929
H           -3.88135570850514        3.96747056975783        2.45471907516000
H           -3.96402071333838        2.60125457727431        1.68179765212915
O            1.90449666141558        3.30965509296773       -4.00368899856493
H            2.70568872850792        3.82536950894881       -3.78451409837379
H            1.15564442910793        3.84759529121611       -3.68251466580587
O           -0.03943223132026        2.49900304207635        1.57963112341821
H            0.78608112668794        2.82963236874321        1.97834268214300
H           -0.74713877935262        3.09053521118666        1.87705700678523
O           -2.47668001762983        0.57194113480154       -1.28946625630447
H           -3.00362010381953       -0.23374619520352       -1.48338614926093
H           -1.85813253540790        0.65844472597295       -2.02996910633544
O            3.90767797437503        3.11936143124132       -1.45186820447808
H            3.83092454523357        2.25306394019528       -1.90082579799767
H            3.90742692135787        3.78391597636814       -2.16545016170110
O            2.80245983906649        1.10843367540914       -0.64564885562671
H            2.58527146666948        2.01135103064393       -0.34609061536022
H            2.31630198974946        0.97709037450291       -1.47859536922978
O           -3.88696071636376       -2.35537842248159       -3.21360148979027
H           -3.80837611749624       -1.57493572093744       -3.79846079071867
H           -3.85646865055897       -3.12248942297682       -3.81277589078811
O            3.87387302188434        3.59438261314711        1.47217949089683
H            3.87913499190750        3.26063061344326        0.55281792880874
H            3.88625777883460        2.78760218839205        2.03358308053118
O           -3.84300445269756        0.31440784280816        3.08829404564222
H           -3.85019648591031       -0.31762216606255        3.83496009172351
H           -4.04772342927848       -0.20810118687348        2.29291666155337
O           -3.92642228646523        3.62984266411945       -3.80635172762611
H           -3.00328174352272        3.85395917143413       -4.04760229187565
H           -3.98016012092778        2.65684847203270       -3.90285620487984
O           -2.73142240185777       -3.98288130191022        1.30736751626806
H           -3.54735487855729       -4.06944477366442        1.84066533661833
H           -2.01693142281917       -3.85793550209684        1.96471315274214
O            0.80940554311278        2.22485233299640        3.89371712952616
H           -0.13406743433790        2.00446768297197        3.84524505407388
H            0.87602191646123        3.19383859703158        3.93904626087184
O           -2.93793144556429       -2.03436495585547       -0.79986607237068
H           -3.90187200641559       -1.93604053269638       -0.96199807575719
H           -2.56651937999654       -2.19888847491116       -1.68710999298858
O            3.89462978553020       -0.52557680928156       -2.10920085383085
H            3.90155232638145        0.34911883919807       -2.53833403364490
H            4.07022195144698       -0.36065462294458       -1.16323358508730
O            2.66695934606765        1.12928773209187       -3.88548560194167
H            1.85018263998621        1.38684937716641       -3.40359861260074
H            3.28818633964639        1.86669771150230       -3.78946667483995
O            1.35875224073449        3.52864812341167        0.23222880062268
H            0.51810444021088        3.99937774086528        0.38349185215032
H            2.01727299145757        3.91457092534948        0.82454997310110
O           -1.80552561200307       -1.60570215351506       -3.83366991905320
H           -1.22140921003619       -2.03088113852668       -3.17249756766849
H           -2.01549270328260       -0.73208111834262       -3.46601101279346
O           -1.51655322281412        2.08407585476067       -3.89938572027705
H           -1.41122735834194        1.11362483433465       -3.94740751767143
H           -2.16315465316317        2.25824410713165       -3.17906769884118
O           -2.85483087946749        1.87461727799606        4.09130120477520
H           -2.24718449638574        1.97874391357210        3.32074678680041
H           -3.71087953111196        2.20636879793240        3.73919326265022
O            3.34698522131597        0.90195771040579        1.90209128734582
H            3.90767274689977        0.34404609618248        2.46913048044801
H            3.82533760592616        1.03404820355856        1.07305064019379
O           -3.85295496138052       -0.37656266704562        0.35367608402258
H           -3.91178563607497        0.55895278991336        0.11564283316909
H           -2.88638999171936       -0.54850614474769        0.47099088436930
O           -3.22825053277956       -3.08083708768793        3.72007046977866
H           -3.84088392876154       -2.33433867049106        3.89026291273930
H           -3.75523750011422       -3.88463570908452        3.83423446736179
O            3.97853072472841       -3.26437402691876        1.72102941525771
H            3.22824633582641       -3.84477906547750        1.99210060052674
H            3.77060408199992       -2.40228204907159        2.13764680099640
O            1.94361773453037        3.80001261801333       -1.74810004675142
H            1.01809493453972        4.09037559665804       -1.69553877337328
H            1.90442854098735        2.86126249925482       -2.02870038565067
O            2.79932041291664       -0.72147280299723        0.72886773299926
H            3.71389415169727       -1.04578364238018        0.67588403249785
H            2.41646064611802       -0.82223379890217       -0.15604863056466
O           -3.47471400840049        2.86333207519225       -1.78989019288274
H           -3.92133092612165        2.39329639132974       -1.06609879092199
H           -3.84189864886814        3.77368239083899       -1.77646237233088
O           -0.88878851762661        3.03437653569375       -0.80038749225475
H           -1.53800716619691        2.47937732311280       -1.27686296805754
H           -0.03460121712396        2.58797029868394       -0.90949941212245
O           -1.96321105000156       -3.81745268865199       -3.84282688535732
H           -0.99017036267806       -3.89958330172458       -3.86209288923541
H           -2.20533679915021       -3.77036033283112       -2.89350724541917
O            2.52864681905099       -0.96659047097509        3.74803936886537
H            3.48637805676259       -1.11980830986491        3.76381971054164
H            2.29666911231382       -0.76751562327785        2.81601351193997
O            0.41426686836345       -3.81532741948561        1.38887071526435
H            0.04256839520706       -2.92357318211687        1.58935675750746
H            1.21817176550444       -3.88912045061101        1.92388467185373
O           -0.71113519266469       -3.28750000243414       -0.26904990795210
H           -0.03275597085685       -2.58503918479268       -0.37066302473990
H           -1.44196032262367       -2.88443734107117        0.22481132466771
O            2.89745033364095       -3.71216045202532       -3.45541643348664
H            3.81205032734862       -3.79723393179686       -3.77739294829290
H            2.75728580618820       -2.73700497304348       -3.38020860851626
O           -2.14962973228010        1.78236194718301        1.21533404483844
H           -2.67446781962570        1.05948873070670        1.59926818820119
H           -2.56280609205455        2.00528292635281        0.35989364404193
O           -2.65589362322892        3.97756260359257       -0.15257468234200
H           -2.04914457863038        3.92587663663446        0.60705594131170
H           -3.55497655080420        3.90199786677600        0.21279207518482
O            3.83765365469777       -2.71039496545929       -1.65740939440332
H            3.58919967493865       -3.64905390160360       -1.53377004596088
H            3.01140408419769       -2.21926756180060       -1.45363787026366
O           -0.48755197864591       -3.97099052011168        3.25547406684628
H            0.29637521264478       -4.05179106990560        3.83304838810272
H           -1.25098928324764       -3.83545846287769        3.83338160558645
O            0.74726077575369       -2.00188254305492        4.04192373399934
H           -0.21162005752418       -2.14272290796093        4.00593020758436
H            1.09438196818472       -2.33023305130992        3.18295871210415
O           -1.25465243103006        4.08981776871210       -3.07285506772867
H           -1.94314818657508        4.08708990679323       -2.37453837249004
H           -0.56885469918503        3.47411175581753       -2.71866067680688
O            2.21185462459985       -0.90522846944095       -3.84915881194368
H            2.05872751379404       -0.56111284475799       -2.93845945875144
H            3.18263904914931       -0.87327492411482       -3.95598658564492
O            2.80951876281275        1.84940827882577        3.63226199469470
H            3.75801120107494        1.81266946599691        3.82048403062580
H            2.44697609047806        0.95720868570330        3.78941406647629
O           -3.57970016875898       -2.02893489006236        1.90662137962275
H           -3.82654474389115       -2.26534518713200        0.99985989477694
H           -2.60002314223971       -1.93139888663139        1.88294863539126
O           -3.53281356598351       -4.05743815222845       -1.15594621402783
H           -3.94484247838127       -3.82494252522492       -0.29375910039567
H           -2.56840522880623       -4.05903118717781       -0.94359631188383
O            2.89531122198881       -3.07877957107960        3.83672730416496
H            3.80180839590747       -3.42904317134000        3.86088637023946
H            2.29807581513682       -3.84043500006942        3.78606192972894
O           -1.84435052829991        3.97197327711885        3.31010999854346
H           -2.55818210805291        3.83510571340385        3.96935339046440
H           -1.01820842027780        3.78327014696866        3.77886755488509
O            2.56683098389121       -3.30631702435307        0.15115329044609
H            2.27972059465744       -2.58606890973224        0.75648611216945
H            1.79703001929526       -3.87106888881776        0.00649502962738
O           -1.90238109011016       -0.63419611001667        3.26345896420306
H           -1.89477025075672        0.08939277579259        3.92598214985316
H           -2.05327123797382       -1.45114926114416        3.75595870791705
166
 energy: -277.624197076470 gnorm: 0.236191813599 xtb: 6.7.1 (edcfbbe)
N            0.03206370664635        0.24776515419845        2.34356118063757
C            0.00599089587626       -0.54887549551636        1.12129808814177
C           -0.00357177581724        0.34209183511791       -0.11442710252097
C            0.00594838533925       -0.50116850123758       -1.39136590697820
C            0.04091251227891        0.32873484872630       -2.67655427726477
O            0.13585049467468        1.57476089072498       -2.55424845343544
O            0.00631566153036       -0.20827043397648       -3.80785705664542
H            0.84167610338631        0.87727917705436        2.36280366760773
H           -0.82618581242528        0.83011118908133        2.37049260731823
H           -0.88384224044197       -1.18060284011883        1.12641916084556
H            0.90148343208758       -1.16239628581889        1.11266950276522
H            0.85911764078753        0.99875643199604       -0.08783760157476
H           -0.88850967291081        0.97042264587961       -0.08924586282149
H           -0.88771534727129       -1.12540040391644       -1.41373224085504
H            0.89096455740312       -1.13909921567466       -1.41075019728921
H            0.05057379410484       -0.36506162001222        3.16970394231220
O            0.72900287801139       -4.00060779125304       -1.69878439316449
H            1.49636295498221       -3.46421197448605       -1.91864812395462
H           -0.03479703070028       -3.56785335854479       -2.11868542648647
O           -3.89206532555233        0.36764484943394       -3.24668370054618
H           -3.91184549920399        1.12287425944211       -2.62090029782896
H           -3.36390635612841        0.65647466531700       -3.99424546454648
O            2.76973418441668        3.99973374364966        3.82088848113820
H            2.45864888545782        3.86882830072927        2.90390873483529
H            3.72198950111881        3.84511296388820        3.74932288628774
O            0.49904928143473       -2.64788807752120       -3.95906799994900
H            0.76958400300978       -2.07392957414954       -3.21858784151765
H            0.98448132916191       -3.47375221861935       -3.85069042796671
O           -3.42095057178305        3.27152116357622        2.06962647207421
H           -3.90483249817027        3.98322219105273        2.45772261553289
H           -3.98754275688018        2.60183557573332        1.68817732735861
O            1.90170891931439        3.34525590984387       -4.05720170165220
H            2.69587597912006        3.83372748016073       -3.79445436002227
H            1.15598452631890        3.84841858094433       -3.70384440152701
O           -0.05342930969939        2.51338649374205        1.60783259310275
H            0.77749725134183        2.82094396795382        1.98223307370592
H           -0.75245286240675        3.09696013055064        1.88309777746332
O           -2.47384870221468        0.57962562431188       -1.30374417945024
H           -2.99275096075222       -0.22691460752223       -1.47986977595572
H           -1.85793944945200        0.66509898739653       -2.02347509539129
O            3.97427295884060        3.12021269361618       -1.46036062009296
H            3.84081510871635        2.26171317007764       -1.89528782047212
H            3.91511548457971        3.78519281362172       -2.15381820445517
O            2.79556928292355        1.12904745827988       -0.65704298256419
H            2.57420982029064        2.01345707685467       -0.34199089400984
H            2.30982197270433        0.98281963460524       -1.47153374306995
O           -3.94156801379421       -2.36041577124648       -3.22160674349005
H           -3.81783687436305       -1.58443700598772       -3.78967462606348
H           -3.85772927869278       -3.11751563461930       -3.80932526412514