34
 energy: -56.603352596783 gnorm: 0.179618974761 xtb: 6.7.1 (edcfbbe)
H            1.42053100000000       -0.69343900000000       -0.45759400000000
C            0.31562500000000       -0.64091500000000       -0.57275600000000
H            0.37944700000000        0.34125600000000       -2.37510200000000
H           -0.02020400000000       -1.57726700000000       -1.06978300000000
N           -0.04283300000000        0.48932200000000       -1.43082700000000
H           -0.10434400000000       -1.52577500000000        1.34227500000000
C           -0.35607200000000       -0.58177200000000        0.80987700000000
O           -0.15503900000000        1.84564400000000        1.27779400000000
C            0.09900500000000        0.57829600000000        1.65429800000000
H            0.33459400000000        1.38391400000000       -1.05046800000000
O            0.66999200000000        0.37333800000000        2.71201200000000
H           -1.08151800000000        0.54834700000000       -1.53303300000000
H           -1.45918500000000       -0.54094800000000        0.69330800000000
O            1.52577700000000       -3.38471600000000        2.38419600000000
H            1.47199700000000       -4.11567800000000        1.71830300000000
H            1.72733200000000       -2.57611900000000        1.84925700000000
O            3.91669400000000       -1.54151100000000        1.77137600000000
H            3.20204200000000       -0.85964200000000        1.70110800000000
H            3.76477200000000       -2.14076400000000        0.99779400000000
O           -2.05967600000000       -1.98916600000000        3.75460800000000
H           -1.60419500000000       -2.78553700000000        4.12735700000000
H           -2.63836800000000       -1.66706300000000        4.49080000000000
O            0.84510500000000       -4.67742200000000       -3.66139000000000
H            1.32356900000000       -3.81495500000000       -3.74990400000000
H           -0.05995400000000       -4.49704100000000       -4.02047600000000
O           -2.76101600000000       -2.49671400000000       -1.16769600000000
H           -2.44043200000000       -3.37703400000000       -0.84695500000000
H           -3.15605900000000       -2.06954400000000       -0.36639700000000
O           -3.05659300000000        1.11409500000000       -0.42592300000000
H           -3.83983600000000        0.61508600000000       -0.08222000000000
H           -3.43943700000000        1.76878200000000       -1.06265600000000
O           -1.78239900000000       -3.36705400000000       -2.97042700000000
H           -1.05732000000000       -2.71951200000000       -2.78184900000000
H           -2.35976400000000       -2.90762700000000       -3.63087300000000
34
 energy: -56.630868919149 gnorm: 0.092490936222 xtb: 6.7.1 (edcfbbe)
H            1.40379392181297       -0.68655116591374       -0.45618984137104
C            0.31308946054892       -0.65144138049833       -0.57607795243635
H            0.36526968495294        0.37032892656337       -2.36920003307503
H           -0.02239514898701       -1.57540367493777       -1.06514779728859
N           -0.04763742011969        0.49006743005844       -1.42974958865413
H           -0.11945761066657       -1.49777203102457        1.35710177205748
C           -0.35273290868710       -0.58075630920074        0.80036082975198
O           -0.12085632765503        1.79299154285564        1.22098966317822
C            0.08455421816944        0.59125650905912        1.66604610654816
H            0.30153120830325        1.37299311205596       -1.01907156910528
O            0.69957341995191        0.38037837324122        2.71991276501438
H           -1.07789710810348        0.55348882992749       -1.50626876555676
H           -1.44111746484713       -0.52636603281819        0.68528333217807
O            1.50588452269955       -3.39704189377192        2.37409534592953
H            1.47649779188230       -4.11184032158559        1.71482148240340
H            1.73139639359182       -2.59275842649942        1.87582395903194
O            3.91763274028524       -1.53376706621762        1.75625519628381
H            3.21145908006877       -0.86672325121548        1.71872562842453
H            3.76959844537241       -2.12504942757956        0.99766031827523
O           -2.06798244091854       -2.00009290475596        3.76615744426578
H           -1.61187142775906       -2.77763804701627        4.12854802257442
H           -2.63187593618247       -1.67617222821172        4.48748440215778
O            0.85054832916612       -4.67208874360506       -3.67150160855907
H            1.32227588107035       -3.82769869365051       -3.76385425119429
H           -0.05391591470464       -4.49924093031685       -3.99081503198667
O           -2.76512315341849       -2.46940158350617       -1.10791616516035
H           -2.47178751801310       -3.35515181833781       -0.83378339851643
H           -3.17119509144102       -2.07339191230423       -0.32169457285685
O           -3.05915894148034        1.07597105471319       -0.48361072534627
H           -3.83059345537579        0.64019570517618       -0.07888019224943
H           -3.44283745439113        1.77669475811508       -1.04373540264973
O           -1.70627081555477       -3.41148910039822       -3.10008169415243
H           -1.07433526657150       -2.72279006567555       -2.79673138462235
H           -2.36182569299922       -2.90287423272428       -3.62692229329333
34
 energy: -56.639662011947 gnorm: 0.046228827271 xtb: 6.7.1 (edcfbbe)
H            1.39221750284181       -0.68541982378146       -0.46390775456210
C            0.31216428886466       -0.66726531845361       -0.57927906959063
H            0.34183236394640        0.41424486215417       -2.35560410799154
H           -0.03046567845640       -1.57667524013734       -1.06292290748591
N           -0.06221016638169        0.49213298766832       -1.41815075204905
H           -0.13861697522706       -1.48020041267223        1.37302805934862
C           -0.34223300878761       -0.58486665138407        0.79103001124220
O           -0.14147157633091        1.74227493910544        1.19038571458062
C            0.17064579668042        0.61893631977787        1.61327215472342
H            0.25224176813596        1.36007156868851       -0.95772136581286
O            0.70620555032561        0.38622557042799        2.72221298239321
H           -1.08728340561706        0.55609438674607       -1.46197657088251
H           -1.41988093201097       -0.48699362737210        0.68498033152905
O            1.47957373536329       -3.42011286323847        2.36550223735606
H            1.47884426671072       -4.11591768432989        1.70557242018633
H            1.73746028514784       -2.61095120478959        1.91798763371376
O            3.91815938308792       -1.52642972895685        1.74244175182611
H            3.22212702983074       -0.86820072479013        1.74789734149092
H            3.78044132702327       -2.10140604620847        0.98799755093818
O           -2.08204516620844       -2.01516688416337        3.78088779600061
H           -1.61713608945105       -2.77407921230247        4.13091392930230
H           -2.63052229865790       -1.68435073983178        4.49018312092243
O            0.86923997394474       -4.67455429557817       -3.69765204933503
H            1.33005572551593       -3.84159439007343       -3.78628350765469
H           -0.05452087952971       -4.50308181173706       -3.93233698110349
O           -2.76148174526825       -2.43031364827442       -1.05818859868996
H           -2.49613376882127       -3.33040335554866       -0.84796374912798
H           -3.17958832827314       -2.07769636632741       -0.27873624570390
O           -3.06211289616451        1.05547910310736       -0.53451044532734
H           -3.81166738459230        0.65438602378627       -0.09032366993878
H           -3.43927799361213        1.77933348653567       -1.04380408274939
O           -1.68177837367914       -3.41938518994050       -3.16605285107409
H           -1.08550557001300       -2.74449062996409       -2.82714650508688
H           -2.34503876033718       -2.92875839814172       -3.65369782138710
34
 energy: -56.646847688278 gnorm: 0.052671505208 xtb: 6.7.1 (edcfbbe)
H            1.38867608372522       -0.68241128687213       -0.46849759991070
C            0.30700603103568       -0.67565373634675       -0.57192136663622
H            0.31474193259562        0.45895219382785       -2.33048882163401
H           -0.03360403302325       -1.57944541957069       -1.06759757668194
N           -0.08925803971470        0.49762357785468       -1.38947831304084
H           -0.14888306022816       -1.48422797300338        1.39029536336171
C           -0.34489770577517       -0.59492630473183        0.79931175273032
O           -0.05108980824829        1.74802758023435        1.09871137667158
C            0.14179295449059        0.63902137496086        1.61763850982345
H            0.20010731529135        1.35694183063632       -0.88943943072138
O            0.75986267433631        0.40862177686620        2.68382316796183
H           -1.11640364279913        0.54961873254144       -1.41823409991490
H           -1.41931586813906       -0.47838601957982        0.68627805422263
O            1.43024867675877       -3.44983958036440        2.36464132804708
H            1.49064449396388       -4.12791863214777        1.68169479802017
H            1.75675247373661       -2.62456348082272        1.97319596512221
O            3.92963972693063       -1.51890207766082        1.73288660094003
H            3.22462505579881       -0.86740608325686        1.78857202622415
H            3.78772715759402       -2.07421847271834        0.96446772427695
O           -2.10309499503982       -2.03359601819816        3.78909104135555
H           -1.61705982308189       -2.78133998266051        4.13755447746945
H           -2.63801536420769       -1.68987200363199        4.50397486908392
O            0.89352522995037       -4.68797526692127       -3.73079479837171
H            1.34574576824845       -3.84940291514632       -3.81566025419083
H           -0.06654481311182       -4.50319228449697       -3.85700751064419
O           -2.72638316827039       -2.39993606306258       -1.03822410711787
H           -2.51475328015931       -3.33203394653760       -0.87636382148920
H           -3.18524945230650       -2.09024156757137       -0.25605053178908
O           -3.04876259513301        1.00822620501975       -0.62476896146795
H           -3.79162275815930        0.67488246835242       -0.08292209166906
H           -3.43767004704035        1.80486981454394       -1.04303594429000
O           -1.65485044739427       -3.43114796791525       -3.22754276689026
H           -1.10274368183878       -2.74047701532611       -2.83114261879336
H           -2.35865499078599       -2.93880645629366       -3.66493244005634
34
 energy: -56.646421428121 gnorm: 0.088411553844 xtb: 6.7.1 (edcfbbe)
H            1.38205811737322       -0.68405348092287       -0.47832422389874
C            0.29541636033204       -0.68703025331199       -0.56436568638179
H            0.28214340484088        0.51473548415174       -2.29514923188697
H           -0.04412201270909       -1.58740325675644       -1.07393910301949
N           -0.12730657631274        0.50217876562395       -1.35200400767312
H           -0.16211875646448       -1.48815067248601        1.41586558509711
C           -0.34649869446307       -0.60424055658663        0.81251125707089
O            0.06234001926983        1.76450722409765        0.98157579163634
C            0.14696798301788        0.66002335792756        1.60473526560872
H            0.13209045312425        1.34918912469609       -0.79846297975652
O            0.80065740338797        0.44411492948093        2.65112664219143
H           -1.15833040818869        0.53381417916617       -1.37328853424272
H           -1.41986725743576       -0.46491647012458        0.69326929027681
O            1.37943272993927       -3.48203260079721        2.36572843902505
H            1.50643369348069       -4.14447548317694        1.66236369438712
H            1.77516475351251       -2.64698367738275        2.03159063373206
O            3.93390481519641       -1.51558931699194        1.73194383843429
H            3.22749669057623       -0.86258550342218        1.83546622227325
H            3.79485813485685       -2.03170784024728        0.92850609574941
O           -2.13301560856904       -2.05431431690011        3.79952857829443
H           -1.61730140885484       -2.79051736348718        4.14593396209832
H           -2.65019553075387       -1.69729057392080        4.52829491227024
O            0.88927262916711       -4.69120510606180       -3.71370871145216
H            1.36907347618309       -3.86737449452250       -3.84799391014929
H           -0.05805789600989       -4.50222421440141       -3.82902409009683
O           -2.69068098873739       -2.37397055874689       -1.01742589656414
H           -2.52111020730361       -3.32525657027044       -0.89604194360031
H           -3.19420231393992       -2.10349075437039       -0.23531663528778
O           -3.05757927011152        1.10246843756696       -0.56585048140676
H           -3.75167473371453        0.63040847079031       -0.16218537173898
H           -3.40849910038322        1.75963451842627       -1.12487599533635
O           -1.61218216947528       -3.45274725329487       -3.31500472488728
H           -1.12485513920583       -2.73602744666922       -2.83452506508756
H           -2.37747459162602       -2.95662172707549       -3.68291961567726
34
 energy: -56.653554659099 gnorm: 0.037830966534 xtb: 6.7.1 (edcfbbe)
H            1.37217080066601       -0.68720883350532       -0.48961992319596
C            0.28227818500669       -0.68976377587106       -0.56630500361676
H            0.26342102656940        0.54078385051779       -2.27702486390231
H           -0.05885793188322       -1.59233049358553       -1.07592323696420
N           -0.15135499599630        0.50446891530699       -1.33573332964622
H           -0.16260284401809       -1.48020996195726        1.42635429727712
C           -0.34358222978807       -0.59722763886690        0.81768370701612
O            0.08904508497953        1.77169368173305        0.96884875999052
C            0.21003521911121        0.66374332775804        1.57379993922856
H            0.09856868898169        1.34360896327433       -0.75396269867238
O            0.80795619205275        0.45845057274264        2.64624385979697
H           -1.18403829488585        0.52402145793152       -1.36162786363876
H           -1.41974656511646       -0.45183798804270        0.71103268923915
O            1.39435574020058       -3.49506551101898        2.37302247914095
H            1.49830684501454       -4.15334164926898        1.67183229227654
H            1.76367563726432       -2.66514170327497        2.04013635523381
O            3.92443312200464       -1.52048349146459        1.74565224667029
H            3.23252958593189       -0.85465375011269        1.84676155098853
H            3.79757027855421       -2.00147626327640        0.91035230937857
O           -2.14923665933192       -2.06701952939865        3.80387111396487
H           -1.61805055708899       -2.79591961546083        4.15234734497047
H           -2.65380180125032       -1.70474462864680        4.54379634309427
O            0.89316726768895       -4.69928579581608       -3.71312197280523
H            1.38076700143477       -3.87819999099124       -3.86425623340828
H           -0.05056070714767       -4.49864202441049       -3.81126034515187
O           -2.70534596547396       -2.36581479003164       -1.00411371078454
H           -2.51071450519386       -3.30370609954547       -0.89183614440644
H           -3.19043932804170       -2.09862914720218       -0.21413419465064
O           -3.03480553973310        1.06748933360240       -0.64056384728727
H           -3.72926560043141        0.63832762551764       -0.15239055162912
H           -3.41497517571748        1.78597506150714       -1.13201714377956
O           -1.63368891123264       -3.44104676172781       -3.31241345975494
H           -1.11293464983268       -2.76377874263047       -2.87722707310781
H           -2.36204041329825       -2.98216960378470       -3.73016969186279
34
 energy: -56.647200873335 gnorm: 0.118353036464 xtb: 6.7.1 (edcfbbe)
H            1.34911949695793       -0.68843046504642       -0.51193013489359
C            0.25743193378742       -0.68665946333309       -0.57317188537119
H            0.23574452615800        0.57520788774749       -2.25230307293938
H           -0.08829148855518       -1.59345962344505       -1.07171798184788
N           -0.18886714879392        0.50759633493451       -1.32243859829270
H           -0.15327916994073       -1.45761286255921        1.43474736043865
C           -0.33642810344953       -0.57767251521202        0.82260381516295
O            0.11212103335236        1.76911715165695        0.98908206985174
C            0.31877675030519        0.66645729201655        1.52659917584377
H            0.04581646657531        1.33072681383929       -0.69226514668806
O            0.82218564137793        0.46883314185791        2.64357741705776
H           -1.22172453076633        0.51130990391449       -1.36031833504139
H           -1.41546713978720       -0.43085001271626        0.74591518770926
O            1.35180353177411       -3.51421245890092        2.37544267951793
H            1.50543152079943       -4.16449602376943        1.67116092423031
H            1.79404284375257       -2.69640186089091        2.07925180965096
O            3.90550346186447       -1.52453922457935        1.76695032341021
H            3.24308843704109       -0.83803628895153        1.84411174782973
H            3.79971090881481       -1.96067478972498        0.90146559345455
O           -2.16728618003170       -2.08552526009834        3.80895638073006
H           -1.62226707740536       -2.80116569278347        4.16055623932681
H           -2.65319343119796       -1.71511641716612        4.55753242486452
O            0.90751364546903       -4.71684287497582       -3.73996976965675
H            1.38873055789497       -3.89337132652751       -3.88123554225681
H           -0.04934247921466       -4.48492233677910       -3.76207357403882
O           -2.68459571448695       -2.37698994201396       -1.01229568323026
H           -2.50362227727267       -3.31217394926057       -0.90908746865441
H           -3.16577088714228       -2.11017723781409       -0.22841435761473
O           -2.99202454456669        0.97372464002748       -0.79217881777743
H           -3.69861187539504        0.67075513004763       -0.12414095662543
H           -3.42214082461875        1.84626363603511       -1.11287869287176
O           -1.59230942125921       -3.46209500998048       -3.38605943493286
H           -1.16648536860288       -2.72420454874851       -2.83584258199928
H           -2.39307509343841       -2.99349674680055       -3.73159711434376
34
 energy: -56.658481862657 gnorm: 0.032649478008 xtb: 6.7.1 (edcfbbe)
H            1.34084305828079       -0.68710033997064       -0.51975461193988
C            0.25033881481844       -0.68541439749261       -0.57302742695163
H            0.22498306430994        0.58665923724243       -2.24634487195443
H           -0.09815941167568       -1.59067649637342       -1.06967600034942
N           -0.20055707398993        0.50978558787881       -1.31917793954822
H           -0.14600749103781       -1.45340137851620        1.43823379701511
C           -0.33332970457689       -0.57612561531097        0.82743534482866
O            0.15745048306786        1.76841151620784        0.96619951201411
C            0.28175951166980        0.66851147770225        1.55323857498622
H            0.02669220931782        1.32884892046057       -0.67949942650535
O            0.85596041528252        0.47199544205511        2.63430755713939
H           -1.23252609699262        0.51083745139118       -1.35772431205265
H           -1.41014496795880       -0.42937176340926        0.75516085434833
O            1.35575686361217       -3.52144007679077        2.37750316608580
H            1.49943131391374       -4.17060947475827        1.67688010895788
H            1.79670290023147       -2.70558083404511        2.08616786144507
O            3.89878619785126       -1.52579514803448        1.76899288378661
H            3.24605896461351       -0.82982758950702        1.84621405807756
H            3.79989753024820       -1.94916462435461        0.89938627785278
O           -2.17293496836990       -2.09076099128504        3.81284450346451
H           -1.62446580922274       -2.80144363115042        4.16267874067817
H           -2.65293655370155       -1.71767492740533        4.56079892205557
O            0.91180665814415       -4.71943913150202       -3.74056403121742
H            1.39340704752089       -3.89982907845634       -3.88818217989716
H           -0.04410798843720       -4.48744321131609       -3.75685679989995
O           -2.68028308699486       -2.35902210507779       -0.99636652426731
H           -2.51220517145577       -3.30834424462375       -0.91820500602719
H           -3.16619897673893       -2.11036270489987       -0.20784903082338
O           -3.00310123953649        1.03649665572654       -0.72832195494028
H           -3.69178349789439        0.64593644123994       -0.17763213768311
H           -3.39994808887699        1.80811903250348       -1.15770177848275
O           -1.62052554968032       -3.44272657782391       -3.36179078194259
H           -1.15127056743284       -2.75083319151845       -2.87794655138400
H           -2.37715078830970       -3.01234922878629       -3.76138679686642
34
 energy: -56.657353073126 gnorm: 0.086273271953 xtb: 6.7.1 (edcfbbe)
H            1.31958647447044       -0.68832491119172       -0.54353092847837
C            0.22658047754557       -0.68285878757945       -0.56897050023478
H            0.18693867022212        0.62117838373082       -2.22263082396386
H           -0.13608399145949       -1.58764051732068       -1.05827507609226
N           -0.24007700123069        0.51625130735038       -1.29932556041497
H           -0.13380618367678       -1.44903135982951        1.45822737129219
C           -0.32528774513145       -0.57274047345137        0.84681364079348
O            0.25204263822774        1.77281239455351        0.90568547072703
C            0.30486971990263        0.67531494970253        1.55256608136471
H           -0.02336190729189        1.32261625438413       -0.63365695687064
O            0.89668275096430        0.49375228834091        2.62647546511768
H           -1.27285484427697        0.50819647356706       -1.34159258645685
H           -1.40283606713263       -0.41365470490048        0.79228475483017
O            1.37398413754682       -3.54082175698570        2.38918824848125
H            1.49149336089732       -4.19114305574691        1.69886632125861
H            1.79612552465854       -2.73532865993884        2.10563842748299
O            3.87465513954406       -1.53909760686545        1.78211865338940
H            3.25655027382768       -0.80305010787901        1.86948698920303
H            3.79226378884868       -1.89995630127074        0.87160448913025
O           -2.19639504908090       -2.10996943023996        3.82294855598025
H           -1.62507123558898       -2.80771243629090        4.16854919155927
H           -2.65528391667909       -1.72891603303275        4.58225349171079
O            0.87927514824643       -4.70311882151568       -3.64796236433657
H            1.41523528847197       -3.92578732025135       -3.92270129787729
H           -0.00122189496822       -4.50629516987585       -3.82667174596196
O           -2.67055686936475       -2.35455513441231       -0.98903819360240
H           -2.48845268470152       -3.29259116244634       -0.92467736397551
H           -3.16139099289483       -2.11939427806894       -0.19836059280839
O           -2.98794217741244        1.02662693183637       -0.78312958473338
H           -3.67101145799918        0.65836515399468       -0.20538870091537
H           -3.37802798673187        1.80998961045295       -1.19399864383471
O           -1.60826366373010       -3.44577078282315       -3.39323731899556
H           -1.17506974557791       -2.74105063712661       -2.90222293666269
H           -2.39104997844561       -3.05542929887081       -3.78930197610275
34
 energy: -56.662432869960 gnorm: 0.031909583943 xtb: 6.7.1 (edcfbbe)
H            1.30102346404879       -0.68950608178400       -0.56553454191563
C            0.20739999681862       -0.67755511180045       -0.57017031122611
H            0.16044552798663        0.63811962972366       -2.21108584693528
H           -0.16916103712466       -1.58395254215196       -1.04630812007181
N           -0.26620810795553        0.52002765358914       -1.29314555547358
H           -0.11499163824696       -1.43929668910271        1.46704075617319
C           -0.31459071036823       -0.56236654383059        0.85865184103546
O            0.28943545878004        1.77023230101781        0.90368635810209
C            0.34263803726527        0.67611184438264        1.54762342272246
H           -0.04864737078379        1.31607234876550       -0.61488542432998
O            0.92636238965875        0.50204580432422        2.62686233656280
H           -1.29862424655376        0.50929284369078       -1.34108411926706
H           -1.39358306226638       -0.40044246601398        0.82704376210895
O            1.32175642701224       -3.55437214032168        2.39077067734855
H            1.50930204146051       -4.20304380397301        1.69596999054842
H            1.84132952296052       -2.75853744044116        2.14743116299284
O            3.86509275201889       -1.53221036322244        1.78048954775699
H            3.25780712516320       -0.78461856123012        1.87111330866966
H            3.77889215137062       -1.87978884041277        0.87617598859313
O           -2.21172039817644       -2.12282645392181        3.82876249653291
H           -1.62785866515183       -2.81102479226231        4.17134934548133
H           -2.65529069079488       -1.73678792129024        4.59411325093781
O            0.92116384772767       -4.73201608857252       -3.72232949759447
H            1.41630339118232       -3.93077069671135       -3.91523440260182
H           -0.01308672854051       -4.49754516641177       -3.76342645454047
O           -2.65528745506941       -2.34797020729213       -0.98177000425875
H           -2.48321120904463       -3.29069806594951       -0.93882840083025
H           -3.15207371790425       -2.13005774033794       -0.18799574219409
O           -2.98221344662832        1.03472137749288       -0.79931481517992
H           -3.66539353969445        0.65993177731268       -0.23887989244965
H           -3.35968875517125        1.80681187570544       -1.22635621229015
O           -1.60227906137782       -3.44702904868343       -3.41877056298709
H           -1.19944229183888       -2.73030855261860       -2.91382223545090
H           -2.40336200076293       -3.07977713766979       -3.81010810596629
34
 energy: -56.653346841347 gnorm: 0.131059312727 xtb: 6.7.1 (edcfbbe)
H            1.27314675785556       -0.69360235636445       -0.60101901194775
C            0.18104371565602       -0.66760805205321       -0.57548105507339
H            0.12608446198199        0.65423064679476       -2.20290974003216
H           -0.22087140412288       -1.57598228921925       -1.02685279390089
N           -0.29631197732301        0.52555492349581       -1.29227871204628
H           -0.07468210452550       -1.42172485109042        1.46829317892200
C           -0.29227021271346       -0.54057178394825        0.87231300692811
O            0.31146510114589        1.76292592134224        0.94403414419541
C            0.39241283480736        0.67495922675002        1.54948402209943
H           -0.06490021644872        1.30724080754709       -0.60639294213761
O            0.98261825987915        0.50374286277352        2.62547776062608
H           -1.32829907087795        0.51739126790409       -1.34584905082167
H           -1.37243301794888       -0.38265234847979        0.88195713820617
O            1.43322227264845       -3.56995567768796        2.41203279859834
H            1.48145847663237       -4.22549619689123        1.74543799285689
H            1.79820399710374       -2.78812495569654        2.13899386205299
O            3.82459347867008       -1.52577923193082        1.79405141388840
H            3.23993027292756       -0.76486767682712        1.85940487480605
H            3.77633334757879       -1.84317730932417        0.88555100829648
O           -2.22722040912952       -2.13917153164312        3.83589783081383
H           -1.63199515168269       -2.81571158666790        4.17096261962952
H           -2.65075973205948       -1.74634039196716        4.60553134313505
O            0.96695428948499       -4.76798557842744       -3.80523001816450
H            1.42970948758948       -3.94899085050786       -3.94275446256384
H           -0.03601926668126       -4.47884227761226       -3.65934796644242
O           -2.60835870181933       -2.33168821406120       -0.97054709723505
H           -2.50670566278036       -3.31511838206345       -0.98279627127420
H           -3.12444150646450       -2.15231862144229       -0.17206730440196
O           -2.98783957387590        1.04479453575210       -0.82514203076384
H           -3.67047080816824        0.66339971080693       -0.28992499153446
H           -3.34649514847390        1.81507945701115       -1.26121614326972
O           -1.58828539069634       -3.45252983251501       -3.46282704293006
H           -1.25445249344893       -2.70126413415316       -2.89655957750764
H           -2.41212690472166       -3.10895022960571       -3.84219278300290
34