37
 energy: -59.774695561798 gnorm: 0.176934887994 xtb: 6.7.1 (edcfbbe)
N            0.06495200000000       -0.17036600000000        2.24069000000000
C           -0.42508700000000       -0.28387700000000        0.86827900000000
C            0.36773000000000        0.64114900000000       -0.07116600000000
C           -0.13442900000000        0.59759400000000       -1.52314500000000
C            0.09666800000000       -0.71348800000000       -2.23073300000000
O            0.72724600000000       -1.73996500000000       -1.62853300000000
O           -0.27063500000000       -0.83895900000000       -3.38700000000000
H            1.07233000000000       -0.44720500000000        2.28653100000000
H           -0.04872800000000        0.81071300000000        2.58374800000000
H           -1.50104700000000       -0.00273500000000        0.84068300000000
H           -0.33838800000000       -1.34087900000000        0.54567800000000
H            1.44982600000000        0.38979400000000       -0.04170700000000
H            0.24571000000000        1.68308900000000        0.29572000000000
H           -1.21792700000000        0.84024100000000       -1.53588800000000
H            0.40005500000000        1.38331800000000       -2.09874700000000
H           -0.48827700000000       -0.80842500000000        2.85559100000000
O           -0.64573700000000        2.47086200000000        7.10096300000000
H            0.30322600000000        2.68189900000000        6.91243500000000
H           -1.14839600000000        2.91766100000000        6.37410800000000
O           -1.46691100000000       -0.74049900000000       -6.64133500000000
H           -2.35042700000000       -0.37528200000000       -6.89945500000000
H           -1.64191500000000       -1.69410200000000       -6.43976700000000
O            1.15271300000000       -3.35201400000000        2.44085700000000
H            1.70805200000000       -2.53632000000000        2.52363800000000
H            1.54146600000000       -3.98439400000000        3.09628000000000
O            0.76184900000000       -1.56826400000000        7.81151400000000
H            0.38359100000000       -2.23785200000000        7.18766700000000
H            1.24414600000000       -0.93002200000000        7.22786200000000
O           -1.90748100000000       -2.06849300000000        5.81866300000000
H           -2.58095800000000       -1.34716100000000        5.90063800000000
H           -2.31182400000000       -2.71478200000000        5.18665800000000
O            2.84125000000000       -1.62881100000000        4.18018500000000
H            3.58132300000000       -1.10429400000000        4.57740600000000
H            3.18429600000000       -2.55721000000000        4.14846300000000
O           -1.37091200000000       -3.59801000000000       -3.36796100000000
H           -1.66924900000000       -3.42866100000000       -2.43902200000000
H           -2.17973100000000       -3.44864700000000       -3.91942700000000
37
 energy: -59.796296220874 gnorm: 0.086132816318 xtb: 6.7.1 (edcfbbe)
N            0.06464025434829       -0.17291674462904        2.24868898701505
C           -0.42474475747880       -0.28356306164133        0.86468630966695
C            0.36425423945022        0.64971902068097       -0.05329587061265
C           -0.12497679902670        0.59611695671726       -1.50039510906047
C            0.11529487001643       -0.71695084527916       -2.23193025216424
O            0.70797564817367       -1.68091515667244       -1.60568518728357
O           -0.27815544179047       -0.83259769042288       -3.39976468821566
H            1.05989840006891       -0.44047274590721        2.29568311041966
H           -0.04147524980388        0.79503334242311        2.59136250619843
H           -1.48654821664003       -0.01007639671353        0.82923673146017
H           -0.32151873898144       -1.31887778498061        0.51781870957575
H            1.42755337202222        0.38007320292749       -0.04461291856576
H            0.25584964643094        1.68457213829579        0.29762898384346
H           -1.19932520721223        0.82173984428945       -1.54862229298849
H            0.38794896985583        1.36591357430777       -2.09407498544999
H           -0.46790653241699       -0.80873297730539        2.86088540262461
O           -0.63738655582254        2.47162369631583        7.09005136149490
H            0.29159444701766        2.69909247011484        6.92049630557541
H           -1.14338424432591        2.92495532333215        6.39494284470890
O           -1.47396518246931       -0.74069025342498       -6.67664768148941
H           -2.35355132362641       -0.38371339068760       -6.89122156665558
H           -1.62556729116218       -1.67025083310683       -6.43823726624973
O            1.14190321688622       -3.32970393139521        2.45604830784759
H            1.73146510372548       -2.55876538368377        2.54042608683503
H            1.51082474359647       -3.98791893635070        3.06874648592567
O            0.78188619452688       -1.58548820251059        7.80669656066098
H            0.36096183971426       -2.21735897701712        7.19744478426306
H            1.23272467497554       -0.94695298846810        7.23036415356655
O           -1.90119952435287       -2.05635881227926        5.77841356006662
H           -2.58078906911935       -1.37365300582101        5.91712089496606
H           -2.32497000058141       -2.72096741925974        5.20818191601402
O            2.85912360534321       -1.62945004437033        4.15867158173107
H            3.56789970451475       -1.10077344464147        4.55923178307052
H            3.19568441268587       -2.54001910901507        4.16678566063447
O           -1.40325984465836       -3.65736475589307       -3.37146696505241
H           -1.65100091734501       -3.42448299522193       -2.45875874987954
H           -2.18938844653963       -3.44422068270406       -3.90452849449667
37
 energy: -59.803656095926 gnorm: 0.026078321572 xtb: 6.7.1 (edcfbbe)
N            0.06467039958691       -0.18115282994265        2.25673810356717
C           -0.42217464167391       -0.28023415828215        0.86102847191685
C            0.36782763251927        0.65618015621679       -0.04354532863274
C           -0.12851733369692        0.60551758191355       -1.48244174271269
C            0.10446913834251       -0.73692223396821       -2.20859162882748
O            0.72484799651851       -1.62677495870885       -1.60424618343559
O           -0.28167313891730       -0.80518396526315       -3.39590365743743
H            1.05314779401657       -0.44175800827846        2.30112781415904
H           -0.03688178347436        0.77749317912778        2.60147387451834
H           -1.47700977198150       -0.01801870509552        0.82596658137599
H           -0.29629691402209       -1.29973784338621        0.49778668942924
H            1.41798055089836        0.36789641751309       -0.04811093603632
H            0.27143010549903        1.68485091555392        0.30095263497217
H           -1.19788246368876        0.81676648748184       -1.55001715936260
H            0.37740733212966        1.36057820788349       -2.08957758501947
H           -0.45105086016292       -0.82211755591006        2.86435733540129
O           -0.62967888539682        2.47995565027553        7.08125878630870
H            0.28506226474692        2.72733269498041        6.93066238584801
H           -1.14855066504354        2.93465358299147        6.41335052519351
O           -1.48003325553968       -0.73132888355345       -6.72832592785227
H           -2.36693489241504       -0.38824876760469       -6.88769799984258
H           -1.59150445796969       -1.64293067865602       -6.44163269641969
O            1.12501466709705       -3.29811829313004        2.46592418035822
H            1.75935268550459       -2.57528910328217        2.56876551350734
H            1.45449190789816       -4.00176029536539        3.03590527116296
O            0.79881826997165       -1.60867880646746        7.80619032853679
H            0.32512679318335       -2.20185000396181        7.20948532375940
H            1.22805172489294       -0.96580819856438        7.23862518612180
O           -1.89956062484733       -2.05601116450620        5.75104898224681
H           -2.57077299078072       -1.39122930079606        5.93000664968831
H           -2.33345614026537       -2.73316551315931        5.22430198549500
O            2.88195508494973       -1.62798772521946        4.12805865501870
H            3.55908146042729       -1.07662466528824        4.52464790682713
H            3.21798890683504       -2.52582837761365        4.18948247644693
O           -1.44019481381658       -3.72498121817087       -3.38010185120150
H           -1.62416506095382       -3.43730076734374       -2.47535020267491
H           -2.21201602037268       -3.45657985241563       -3.89123176240252
37
 energy: -59.805922329090 gnorm: 0.071831400343 xtb: 6.7.1 (edcfbbe)
N            0.06893337729375       -0.19169717826480        2.26035894231133
C           -0.41511780040364       -0.27765887514269        0.85824578422809
C            0.37142051104344        0.66902524762714       -0.03857609395961
C           -0.12771288464141        0.62411911612848       -1.47691149541316
C            0.15975992039869       -0.72336136830938       -2.20997309182880
O            0.70744289757158       -1.62216958710592       -1.57175094313847
O           -0.31193636758713       -0.80221624952646       -3.37244345636242
H            1.05824810656914       -0.44723462549708        2.30067114016248
H           -0.03537612607737        0.76268388529389        2.61287826031002
H           -1.47119908846326       -0.02566364462714        0.82574178198264
H           -0.27306098960591       -1.29041306746847        0.48518841785127
H            1.41765880796908        0.37007327631745       -0.05159684968774
H            0.28357288622166        1.69437364608370        0.31372014829027
H           -1.20151938869457        0.80820370516554       -1.54958217360222
H            0.36772490233342        1.38206544376727       -2.08461242269649
H           -0.43748033919383       -0.84440068208496        2.86260484632867
O           -0.61657557849911        2.46403871024141        7.06665136416365
H            0.28733838379944        2.78079114292286        6.95227101915230
H           -1.16037865403993        2.95756342596265        6.44320323032608
O           -1.47568791216902       -0.71802868450799       -6.82262614704884
H           -2.39585286901782       -0.39180927574429       -6.87196228987954
H           -1.54311189341634       -1.60924110229670       -6.43106683140285
O            1.09124957952670       -3.24559794218787        2.48296426688103
H            1.80561179836994       -2.58768867709983        2.61168920171369
H            1.38094387173495       -4.03010796531927        2.98745591190908
O            0.83897350148334       -1.65628117349017        7.81141926564124
H            0.26243482247020       -2.18172274871361        7.21513200331262
H            1.21247538342710       -0.97527956781519        7.24268341902170
O           -1.86967704030254       -2.03416646225856        5.67777998999148
H           -2.57444046590326       -1.42046569314829        5.96835057713676
H           -2.36406848249114       -2.76951681889158        5.25777357987646
O            2.90965277184781       -1.62625929250567        4.06776761284661
H            3.54404327930292       -1.03314145953430        4.48279107852141
H            3.25003292354449       -2.52120547483878        4.23504914118205
O           -1.48599290654131       -3.83170178584977       -3.39244031956073
H           -1.58376528944420       -3.44545637576680       -2.48996776442546
H           -2.24619364841879       -3.45484882150656       -3.87851010413076
37
 energy: -59.808265504003 gnorm: 0.050024918426 xtb: 6.7.1 (edcfbbe)
N            0.07308966018862       -0.20295051285656        2.26319443600051
C           -0.41017614076283       -0.27673070019830        0.85901357965379
C            0.37157690751640        0.68030418793966       -0.03341731511792
C           -0.13294502355299        0.63702802806471       -1.47205409824439
C            0.16283825905240       -0.72218531738362       -2.19994384197935
O            0.71920318184080       -1.61799814042520       -1.54968525573070
O           -0.31624143253414       -0.79843573284873       -3.35918779763831
H            1.06520571252732       -0.45599477808024        2.29864011174332
H           -0.03608751216619        0.74861064683079        2.62631208828644
H           -1.46934886764759       -0.03163592868651        0.82882137568495
H           -0.25999518685182       -1.28663099931132        0.47887313820139
H            1.41717495038048        0.37359472502629       -0.05464262334799
H            0.29379030302971        1.70477621420244        0.32902954824861
H           -1.20824203505358        0.81031390306228       -1.54241824285051
H            0.36020083223841        1.39376758758429       -2.08307723152084
H           -0.42804034398427       -0.86843194923945        2.85956765392232
O           -0.61105444807655        2.45391803440996        7.04514488721408
H            0.28300143501719        2.83161849830745        6.95860138208197
H           -1.17780295339051        2.98023407081631        6.45888472723850
O           -1.48179934506909       -0.69697313593767       -6.83435605612147
H           -2.39886415906400       -0.39302292850542       -6.89481150688320
H           -1.51054985953594       -1.58899841464044       -6.45997143743219
O            1.08332255017975       -3.22935503713549        2.47180366733927
H            1.79840272973714       -2.58729650599662        2.64516300091324
H            1.32742991865818       -4.02947942389804        2.97121741305450
O            0.82751061977266       -1.67244539395605        7.81705774700015
H            0.25715321278425       -2.18893473335792        7.22491815373882
H            1.20375425883910       -0.98149855245962        7.26177243953847
O           -1.89427757928438       -2.07364411404518        5.72416139482831
H           -2.54419216424865       -1.41383957047213        5.95361746837854
H           -2.34219714775961       -2.76303884963906        5.24264501205715
O            2.92880172192880       -1.62875289446796        4.03702866149307
H            3.54155344280666       -0.99590419197749        4.43725677680258
H            3.28731291774484       -2.51125481530962        4.24865794207818
O           -1.49437267161615       -3.80498642509236       -3.40547205262997
H           -1.58555614945135       -3.52658153290860       -2.49918033591140
H           -2.27120959419569       -3.51156231740868       -3.87279381008494
37
 energy: -59.808865532663 gnorm: 0.054287570587 xtb: 6.7.1 (edcfbbe)
N            0.08120158117482       -0.21291552077451        2.26406329233924
C           -0.40428121376809       -0.27471174607229        0.86310595732221
C            0.37278708220415        0.69008086699032       -0.02890531889012
C           -0.14351975387171        0.64359397344382       -1.46672507986884
C            0.09054001901764       -0.74204685809332       -2.17166942862384
O            0.77672584024960       -1.60590676541748       -1.55363312903785
O           -0.28471672777233       -0.78684438800741       -3.35935855544179
H            1.07797960156630       -0.46644942745529        2.29235046914633
H           -0.03572823315254        0.73645017902133        2.64208596292437
H           -1.46845385061698       -0.03354453134638        0.83532595482384
H           -0.25371682654862       -1.28525886518545        0.47858333281486
H            1.42137446789878        0.38065182185116       -0.05743884087889
H            0.30480179976502        1.71595779063654        0.34506780389157
H           -1.21592893440441        0.82649539127339       -1.52553580062373
H            0.35748429653192        1.39297638353066       -2.08565782576056
H           -0.41767596971895       -0.89383609254892        2.85236077172054
O           -0.61090471354421        2.50534353825191        7.07309017127077
H            0.27939794849044        2.83834577061459        6.95728967380832
H           -1.18446804506985        2.98067990967389        6.46583328536729
O           -1.48499942674574       -0.67689471926141       -6.84483581044505
H           -2.39348430464869       -0.38997110331424       -6.91793940434844
H           -1.48065849844525       -1.56586617810077       -6.49532263076639
O            1.08154268222113       -3.23404329466883        2.45635551414821
H            1.74652059327639       -2.57896363706106        2.66738798438052
H            1.29778283144759       -4.00059397050495        2.97455931808414
O            0.80016300084308       -1.69183919566047        7.81514108984960
H            0.25665486853426       -2.20399389332013        7.22665222420696
H            1.18721276462694       -0.98703604162614        7.28231734432885
O           -1.88010252381377       -2.07703228552960        5.69898057222339
H           -2.52889208028452       -1.42678529294979        5.97437655534029
H           -2.35388774006293       -2.78695151878985        5.26233459191723
O            2.93484008927397       -1.63046717124781        4.05888344543156
H            3.56213895013874       -0.96982500725322        4.38640005991964
H            3.32343547953578       -2.48420466454815        4.21272708458481
O           -1.53422674422069       -3.89008445524163       -3.42818028270276
H           -1.53058094284611       -3.55018550874610       -2.51515898761455
H           -2.31798736726565       -3.50872049255274       -3.85454036483548
37
 energy: -59.812894880406 gnorm: 0.036681318058 xtb: 6.7.1 (edcfbbe)
N            0.08626544322701       -0.22055913161962        2.26658861221939
C           -0.40002507643839       -0.27536963437779        0.86549078721079
C            0.37743176932009        0.69124177029196       -0.02222328484595
C           -0.13852011592611        0.64704500658652       -1.45800862627395
C            0.11778446826406       -0.72777674738021       -2.17868005116095
O            0.74775984467711       -1.60660598027901       -1.55493303419860
O           -0.30162084929227       -0.78198384291731       -3.35109602200599
H            1.08210185442104       -0.47218327308297        2.29121069163422
H           -0.03255084375909        0.72431668684027        2.65142978886444
H           -1.46308730367373       -0.03561219893015        0.83923460820294
H           -0.24762198884353       -1.28246046261262        0.47565988418720
H            1.42563521341761        0.38746255367936       -0.05288788795196
H            0.30451223303502        1.71468851367610        0.35174783902542
H           -1.21258461316096        0.82230261107087       -1.51784416331425
H            0.35464858323097        1.40065011560134       -2.07536290726789
H           -0.40862032836921       -0.90705781704063        2.84937129246036
O           -0.60600045538020        2.51294513088974        7.07333670374855
H            0.27781871449345        2.86702981427014        6.96542301014844
H           -1.18892983294210        2.99018171127744        6.47818829604290
O           -1.47891199248393       -0.66370282014913       -6.90862030073450
H           -2.41467857067839       -0.39404310744783       -6.90422915035312
H           -1.44207288904677       -1.54124013111457       -6.49470850892092
O            1.06277019449739       -3.19124721704276        2.45973941178341
H            1.77123548149132       -2.57422977766035        2.71887226026851
H            1.24166098118765       -4.01627345420699        2.93901192776188
O            0.83138912085027       -1.73410872755850        7.82140715360174
H            0.20489100496001       -2.18656633264072        7.22094212263532
H            1.17271130958389       -0.99300589027520        7.29603725512605
O           -1.86377848008024       -2.07288781066711        5.67146301742370
H           -2.52203385455768       -1.43941148894555        5.99244120996306
H           -2.36800017574613       -2.80613382299324        5.28186495365501
O            2.95273975086115       -1.62567444394185        4.02218493285476
H            3.56191388928248       -0.95189703552123        4.35139935601217
H            3.34520739578073       -2.47704098061192        4.22827062877897
O           -1.54223805235138       -3.89775116038441       -3.43637014858187
H           -1.52795217487932       -3.58890253257530       -2.52525966074168
H           -2.33087965497737       -3.53853509219490       -3.85072099725000
37
 energy: -59.807398541309 gnorm: 0.105737349044 xtb: 6.7.1 (edcfbbe)
N            0.09447189820291       -0.23435627948601        2.27089426426078
C           -0.39262819946235       -0.27863294520164        0.86969239261946
C            0.38457892226866        0.69006717559523       -0.01229195047593
C           -0.12951540968257        0.65143491075255       -1.44490537947502
C            0.18940484752905       -0.69414441433793       -2.20124083970344
O            0.69121870653322       -1.61258374441555       -1.55648393483148
O           -0.35179139795747       -0.78339552256342       -3.33269546474602
H            1.08809859905970       -0.48272159586647        2.28997230295676
H           -0.02719371784134        0.70255247920825        2.66624293649263
H           -1.45298641777275       -0.03900095507292        0.84582352035081
H           -0.23920996057897       -1.28031219203497        0.47183537697256
H            1.43246722755209        0.39777111338983       -0.04386689959929
H            0.30000953799752        1.70936103203292        0.36024776310667
H           -1.20861794052759        0.80959690324117       -1.50481228411296
H            0.34582958927173        1.41651244819873       -2.05749259056678
H           -0.39396610914713       -0.92881650034429        2.84453410799135
O           -0.59716749495231        2.48375303258481        7.04226567465897
H            0.27108011240339        2.94284738956836        6.98389260347820
H           -1.20676249385967        3.01821061149551        6.50457842245818
O           -1.47556304493668       -0.64468750656176       -6.93118252760136
H           -2.40228648710259       -0.38343030593751       -6.92930143860191
H           -1.41982988198776       -1.51371884310472       -6.52502032938470
O            1.02326815965319       -3.14808560199348        2.48408779529032
H            1.76845329515249       -2.56918731302443        2.75634902191242
H            1.20146573528729       -4.01150956691225        2.90717499345942
O            0.75130233647704       -1.71644869903006        7.81477777591702
H            0.22301692948299       -2.21986198829511        7.22850990746793
H            1.18289310396767       -1.02668311078145        7.32509685494544
O           -1.87149114762081       -2.09677331004247        5.69889967886649
H           -2.50389709903898       -1.44701679495224        5.99333847226124
H           -2.34521713449451       -2.80778478600943        5.28360875990998
O            2.98831910850141       -1.61471916289046        3.94543060558855
H            3.55969571708705       -0.92410015454379        4.29650846679632
H            3.37939348140888       -2.46693085169548        4.26756623863561
O           -1.58763259649620       -4.02681118305425       -3.45171611316155
H           -1.47590238237827       -3.58603786275448       -2.54917018768037
H           -2.36493839200388       -3.52875290515121       -3.83077699644693
37
 energy: -59.815564524868 gnorm: 0.032332852452 xtb: 6.7.1 (edcfbbe)
N            0.09921339927703       -0.23887220489156        2.27121833867398
C           -0.38876077231354       -0.27965544886819        0.87185770213556
C            0.38581725165766        0.69178056664152       -0.01097824647288
C           -0.13186417423422        0.65380317158790       -1.44411430206356
C            0.14393862634410       -0.70362963018956       -2.18819506298924
O            0.71354745225530       -1.60919728684819       -1.56210301858004
O           -0.33858047006575       -0.77396557376371       -3.33734531061107
H            1.09468133924580       -0.48691904898084        2.28825774460916
H           -0.02573127375821        0.69707890875542        2.67222140071137
H           -1.45062839971682       -0.03905271287468        0.84844412029226
H           -0.23799612691873       -1.28226324301124        0.47224769349245
H            1.43555329819434        0.39923181490483       -0.04181954126765
H            0.30254962527857        1.71205160391338        0.36528514558554
H           -1.20916710772820        0.81884479348688       -1.49775250783556
H            0.34779313817153        1.41726814564570       -2.05812222122846
H           -0.38874960852406       -0.93851651009254        2.84200379352653
O           -0.59711065922605        2.51637147111737        7.06395576267231
H            0.27050841474404        2.93401944231604        6.98277487437808
H           -1.20484475994868        3.01764802957582        6.50776864807249
O           -1.47130146358705       -0.63946640952237       -6.95732955208220
H           -2.40101487544224       -0.37970665540282       -6.93052067409850
H           -1.40928321856783       -1.49942473537517       -6.52836282637560
O            1.01185821514222       -3.14880824631366        2.49539296749591
H            1.74218811036976       -2.56735409658716        2.75235395479122
H            1.20634243131556       -3.99013344860652        2.91242131504048
O            0.77193824668760       -1.74827981808675        7.81885865557165
H            0.18666158156279       -2.20821674904117        7.21962588728467
H            1.17332284018469       -1.02779388057201        7.33361699004775
O           -1.84998579316620       -2.08186635812050        5.66181140626127
H           -2.50822327193102       -1.46144061817102        6.01453131772164
H           -2.36061476259288       -2.82829905957944        5.30522030847686
O            2.98675035296389       -1.61548533995662        3.96762409285100
H            3.57435388590665       -0.91894868738419        4.27744248065890
H            3.39171319875410       -2.45077198490647        4.23260874401377
O           -1.57226733135695       -3.96992150833227       -3.44690869375331
H           -1.51007290147813       -3.63179010174865       -2.55361667150798
H           -2.35416443750628       -3.58271559070434       -3.84000371548859
37
 energy: -59.797740387389 gnorm: 0.153775398553 xtb: 6.7.1 (edcfbbe)
N            0.10455320625164       -0.24913044063744        2.27311625917354
C           -0.38512295523977       -0.28377377813489        0.87627571799141
C            0.38489570203773        0.69309393243117       -0.00789423820683
C           -0.14101782395306        0.65441345609087       -1.44170163884850
C            0.04793161246099       -0.73003643813714       -2.15792235791077
O            0.76539588481431       -1.59932887929044       -1.57169744929922
O           -0.31548758959575       -0.76079360048263       -3.34542760544626
H            1.10344006517255       -0.49511349324418        2.28741475369840
H           -0.02629745566950        0.68503004466750        2.68361275545635
H           -1.44954451480529       -0.04194694958505        0.85423617567477
H           -0.23873778131334       -1.28790502614355        0.47362670224286
H            1.43718347488384        0.39719322912755       -0.03928164569005
H            0.30706597558340        1.71546799698243        0.37480395670713
H           -1.21361947234543        0.83659489100702       -1.48442541753459
H            0.34947448963158        1.41109938741710       -2.06060157783478
H           -0.38166096149659       -0.95800710678863        2.83973288132328
O           -0.59808763820454        2.54707361613784        7.06076782296585
H            0.26379838043066        2.94486098893136        6.97072756888751
H           -1.20892750165610        3.02913345768046        6.50001027829427
O           -1.46630401537855       -0.62980670835627       -7.02363210125459
H           -2.41742096418132       -0.38220896317705       -6.91771224571495
H           -1.37549410227585       -1.47240768300838       -6.52173044588009
O            0.98661645817867       -3.09144021778396        2.51349079579914
H            1.77675900982310       -2.56428528265157        2.81030796795213
H            1.15121210791440       -4.00938304710581        2.86038169419472
O            0.90234620562114       -1.86224921441724        7.84946683611650
H            0.07731307988328       -2.14561072833791        7.19932067297369
H            1.12809936462327       -0.99905428708571        7.36177568202669
O           -1.88537175399538       -2.12637001109152        5.74107556068412
H           -2.48096638290297       -1.44538736846626        5.98261303881915
H           -2.31878734908350       -2.80951818778752        5.28370070444804
O            2.99734240350021       -1.62128633736284        3.95345970609687
H            3.58288379570537       -0.90427274011464        4.23854151259689
H            3.41431223553112       -2.43845928644706        4.21386914411054
O           -1.60133708483239       -4.03924029211803       -3.46037031702247
H           -1.46267607256585       -3.63444939314978       -2.56714460173485
H           -2.38539203255822       -3.57689253955781       -3.82241554584496
37
 energy: -59.817544104951 gnorm: 0.040032395035 xtb: 6.7.1 (edcfbbe)
N            0.10736574101665       -0.25111609772001        2.27368345664163
C           -0.38381675920786       -0.28391559603852        0.87679159447646
C            0.38668817069579        0.69177616677250       -0.00587535475666
C           -0.13975006505661        0.65408690601176       -1.43701541631762