34
 energy: -56.585104951686 gnorm: 0.179496792101 xtb: 6.7.1 (edcfbbe)
H            1.42053100000000       -0.69343900000000       -0.45759400000000
C            0.31562500000000       -0.64091500000000       -0.57275600000000
H            0.37944700000000        0.34125600000000       -2.37510200000000
H           -0.02020400000000       -1.57726700000000       -1.06978300000000
N           -0.04283300000000        0.48932200000000       -1.43082700000000
H           -0.10434400000000       -1.52577500000000        1.34227500000000
C           -0.35607200000000       -0.58177200000000        0.80987700000000
O           -0.15503900000000        1.84564400000000        1.27779400000000
C            0.09900500000000        0.57829600000000        1.65429800000000
H            0.33459400000000        1.38391400000000       -1.05046800000000
O            0.66999200000000        0.37333800000000        2.71201200000000
H           -1.08151800000000        0.54834700000000       -1.53303300000000
H           -1.45918500000000       -0.54094800000000        0.69330800000000
O            0.98837200000000        0.15950500000000       -6.93473300000000
H            0.59585400000000        1.02894200000000       -6.66899100000000
H            0.40826300000000       -0.51696000000000       -6.50289800000000
O           -1.45599500000000        1.59033300000000       -5.10286400000000
H           -0.77226200000000        0.93199300000000       -4.82053600000000
H           -2.13164300000000        1.57217800000000       -4.37913600000000
O            1.09961500000000       -4.06071400000000       -3.69541000000000
H            0.25461800000000       -4.21984100000000       -4.18660200000000
H            1.02928600000000       -3.12562200000000       -3.37718000000000
O           -0.47569300000000       -3.18145200000000        3.69095300000000
H           -0.34839900000000       -4.14947800000000        3.85627800000000
H           -0.50410800000000       -2.77708800000000        4.59444300000000
O            2.72837000000000        3.08100800000000       -1.29346600000000
H            2.16726900000000        3.89386600000000       -1.36445200000000
H            2.71663200000000        2.69117200000000       -2.20368700000000
O            2.32795200000000       -3.14227600000000        3.30001200000000
H            2.65354500000000       -2.70631900000000        2.47264200000000
H            1.63410500000000       -3.77692000000000        2.98950200000000
O            1.74688700000000        0.43229400000000       -4.89187700000000
H            2.41465100000000        0.02510500000000       -4.28450500000000
H            1.36699600000000        1.18573900000000       -4.37359500000000
34
 energy: -56.615134486440 gnorm: 0.091896428982 xtb: 6.7.1 (edcfbbe)
H            1.40364425777671       -0.68726839624106       -0.44737364901498
C            0.31440885940224       -0.65279295964062       -0.57532265370639
H            0.37806460570246        0.36300076085248       -2.36774483648038
H           -0.01375537579931       -1.57782391308613       -1.06629318919706
N           -0.04034149886412        0.49025331259945       -1.43183831263899
H           -0.11422661802622       -1.49961581420448        1.35518268549372
C           -0.35504130679056       -0.58334638515923        0.80003611006072
O           -0.14751671358762        1.78862262434376        1.21931118533418
C            0.08776553286804        0.59137517814949        1.66199230893696
H            0.31423615503797        1.37188262995434       -1.01938979102135
O            0.68192306790833        0.38680648113980        2.72625928230446
H           -1.06644728000117        0.55543941895514       -1.52195553459296
H           -1.44606063101349       -0.53659913022101        0.68987465761656
O            0.91953296881487        0.15621738947493       -7.04277625401134
H            0.58255093629299        1.01158401277667       -6.71581046189277
H            0.40581793468363       -0.50882257899051       -6.54836575234705
O           -1.43674783767855        1.59917499754655       -5.08275994506746
H           -0.78908997290216        0.91822348315530       -4.82616787975492
H           -2.12843039267249        1.56972394627506       -4.39969833845982
O            1.08751720582525       -4.06220045492629       -3.69193766098784
H            0.26272330550053       -4.22195514820703       -4.18059285648381
H            1.02913666147758       -3.14332896694140       -3.38350307000706
O           -0.49721481502312       -3.19952497426772        3.69485427935119
H           -0.36358143047870       -4.14571870114926        3.87207331359155
H           -0.49429698962273       -2.77735885160043        4.56974181624802
O            2.68181680896453        3.05617990512532       -1.29477632283892
H            2.18945980278645        3.89383685043004       -1.36518757024351
H            2.73813114831272        2.72150563093071       -2.20987128603348
O            2.36460077799951       -3.16687215079626        3.28764055832194
H            2.65658504531152       -2.70088858144606        2.48720548531104
H            1.64480148384949       -3.75036631363114        2.98673864074104
O            1.72484072354682        0.40578159527340       -4.78407780711245
H            2.45204009848330        0.05318759047412       -4.23977002586951
H            1.41746748191514        1.21715351305215       -4.33179812554911
34
 energy: -56.627214864585 gnorm: 0.050928354347 xtb: 6.7.1 (edcfbbe)
H            1.39621397956565       -0.68556001362526       -0.43959022270386
C            0.31765820722390       -0.66800423394237       -0.57489206299861
H            0.38157469419465        0.39601486886280       -2.35333930745462
H           -0.00904702662399       -1.58025363922043       -1.06702695772939
N           -0.03835543553649        0.49262760707829       -1.42348448776984
H           -0.12691555220629       -1.49006469578583        1.36715515961486
C           -0.35138291501497       -0.59351722694553        0.79158594928893
O           -0.17113315546708        1.74198542434647        1.17322176599993
C            0.13415825067656        0.61858868981623        1.62181858536404
H            0.28817281360220        1.35881775094734       -0.96211968200282
O            0.66318745351142        0.40089034266740        2.73126593037955
H           -1.05571923708386        0.56156377020867       -1.50189402021843
H           -1.43442384594533       -0.51918095697611        0.69095800063806
O            0.89615203400871        0.16499879035270       -7.09305008287315
H            0.56409072203168        1.00403866776218       -6.76922491840418
H            0.40698596963544       -0.50173296888008       -6.61059118560994
O           -1.40868311655524        1.60652372145715       -5.06131027305464
H           -0.80229182860733        0.89382337597979       -4.82848581883451
H           -2.12857311103583        1.57237602022246       -4.42496101273217
O            1.07276496253465       -4.07220517540653       -3.68498287047318
H            0.26646752522795       -4.23415402470241       -4.17778100525851
H            1.03251881464961       -3.16303470715183       -3.38716117690266
O           -0.50118645404573       -3.22480181856321        3.69266495774561
H           -0.39332290243477       -4.15671180914975        3.89428614373019
H           -0.48804411536270       -2.76938214216058        4.53664399353970
O            2.63472696066047        3.03024079305406       -1.30232784361987
H            2.20461991373261        3.89185049250197       -1.35584205825906
H            2.76272531284268        2.75524767855608       -2.22450500337050
O            2.40647143061917       -3.19305947065873        3.27703245884262
H            2.67819139574131       -2.69029018948051        2.50650487856529
H            1.65315125496817       -3.71991268090636        2.98158457227857
O            1.65744956809813        0.37084993709247       -4.67676004254402
H            2.47562706995515        0.08080426997979       -4.22618357952033
H            1.46048436243925        1.25608955266986       -4.29530978365253
34
 energy: -56.634483576741 gnorm: 0.059452272668 xtb: 6.7.1 (edcfbbe)
H            1.39478733610878       -0.68191611800140       -0.42479090991447
C            0.31959404136092       -0.68078422620541       -0.56496455139099
H            0.39120096730944        0.43419952096201       -2.32915960742127
H            0.00350502799294       -1.58489842232321       -1.07349483094096
N           -0.04023312780472        0.49564057102289       -1.40300726890191
H           -0.13697556563920       -1.49366988045217        1.38512764083488
C           -0.35985524212102       -0.61131916256947        0.79483674100897
O           -0.10047505627554        1.73183499186088        1.05635057542403
C            0.07653438873905        0.64691221725263        1.62743233774641
H            0.25670409153883        1.34880800586380       -0.89261434657573
O            0.67395582429155        0.43377767752759        2.70525340541729
H           -1.05463557854629        0.56135366165554       -1.48038716058150
H           -1.43753135893642       -0.52832279253222        0.68615647815329
O            0.87172620124902        0.18368225763220       -7.15413487859872
H            0.54462498468714        1.01151543137995       -6.80979496427225
H            0.42402288981692       -0.50118010201618       -6.66013125251968
O           -1.35749115512744        1.63471306974110       -5.02827494414382
H           -0.81780118362316        0.84952043220336       -4.83176400563806
H           -2.13965067833161        1.56811492695941       -4.46159621176374
O            1.05326557371662       -4.09481951873952       -3.66712954716737
H            0.26338531006803       -4.25167693732648       -4.18176079630132
H            1.04094720631698       -3.17952977288331       -3.39366701965408
O           -0.50405878538074       -3.26248697921214        3.67802137800052
H           -0.42527808390034       -4.18508894222968        3.92998892239904
H           -0.46754008535270       -2.74720209581562        4.48920650643824
O            2.56549750521981        2.98710509364098       -1.30643422774467
H            2.22536194538478        3.89822983594344       -1.34023474684164
H            2.79403612634583        2.79639258991263       -2.24752400127148
O            2.48064225093695       -3.24258542927210        3.26494161125742
H            2.70729856747421       -2.65941748018769        2.52765838892848
H            1.65334541568560       -3.67589252181979        2.97381482350086
O            1.62819562504581        0.38530505130838       -4.59445257532876
H            2.45891597823800        0.08688638895949       -4.20801041232142
H            1.45829264351118        1.26226465776027       -4.24156154981447
34
 energy: -56.635007397998 gnorm: 0.100711799841 xtb: 6.7.1 (edcfbbe)
H            1.39970741211455       -0.68687539335745       -0.41534167425208
C            0.32250823809898       -0.69491007086293       -0.55788721908808
H            0.40988114342432        0.47471471074116       -2.30268971771276
H            0.01496405684488       -1.59577346735053       -1.08390318542457
N           -0.04066593247598        0.49639438084638       -1.37968298246586
H           -0.14552240006301       -1.49767957956272        1.40673217490581
C           -0.36310938890672       -0.62505800683924        0.79930223051058
O           -0.04252413182106        1.74078900635130        0.94410701689160
C            0.07305214141920        0.67349781554069        1.60317273198537
H            0.22854753382997        1.33715182548365       -0.81969121996054
O            0.64745634799461        0.47916456205619        2.69439765863930
H           -1.05648239744957        0.55410826881972       -1.46706769163034
H           -1.44069419908429       -0.53128472638174        0.68229626161686
O            0.83898085047100        0.20548302342298       -7.22938662186001
H            0.52604396110861        1.02546672458156       -6.82756480722970
H            0.44985122178112       -0.50919588221700       -6.70192448395882
O           -1.32338546832604        1.63380953242829       -5.01372019458384
H           -0.81462175127643        0.82907262254776       -4.82569308528493
H           -2.13914854033965        1.56882558504657       -4.49098915169403
O            1.03037511886462       -4.13057274552136       -3.63229270662055
H            0.26116844081835       -4.26848359521234       -4.19436092187539
H            1.05938878481406       -3.19289057710696       -3.40783103082660
O           -0.48860742821547       -3.30206535841801        3.65666005439126
H           -0.47319489542829       -4.22116543987436        3.97582384210700
H           -0.45204458952853       -2.72242210417977        4.43518813992603
O            2.61601931937191        3.02638825111549       -1.35312678628838
H            2.20006102968096        3.87279431325203       -1.31652666539779
H            2.74943832210661        2.78030220170478       -2.24051021958203
O            2.50449348059947       -3.25348143649367        3.26039910485423
H            2.74204850175750       -2.64718619969806        2.54928112814328
H            1.66201426095673       -3.65088213694634        2.97573962960088
O            1.52313396422298        0.33783121025298       -4.47854995866693
H            2.46280251245306        0.11079636761002       -4.20440791254330
H            1.50237848018140        1.31880231822091       -4.21605273662423
34
 energy: -56.638848642633 gnorm: 0.088652007024 xtb: 6.7.1 (edcfbbe)
H            1.40416110102823       -0.69554865713711       -0.41515166604437
C            0.32225674511145       -0.70292553843118       -0.55904785108116
H            0.42632211927245        0.49968021617528       -2.28790793520574
H            0.01857188736625       -1.60709126795478       -1.09154401836045
N           -0.04194892888340        0.49378096845775       -1.36819035556032
H           -0.14988310430765       -1.49526753114413        1.41799613789366
C           -0.36175177331468       -0.62544705806512        0.79909076538729
O           -0.04213956148167        1.75273497937649        0.91629624852422
C            0.14754612747541        0.68470106114436        1.55064324857255
H            0.20911251579768        1.32598506956615       -0.77303076782984
O            0.59945222462811        0.50582148889816        2.70237057470315
H           -1.06128103057134        0.54266949368951       -1.47070845199832
H           -1.44416840428889       -0.52494533203386        0.68335418187798
O            0.81992840660773        0.22030783063204       -7.28779163442264
H            0.51881354058595        1.03957945677906       -6.84335438401431
H            0.47162111848319       -0.51073690377238       -6.72679298325457
O           -1.31244770370791        1.61591390625821       -5.01298795291078
H           -0.80499712483980        0.82831176208643       -4.82105741229767
H           -2.12809368258118        1.57289164032565       -4.50428189935488
O            1.01702413941738       -4.15557497208185       -3.60867318920893
H            0.25843077956480       -4.27911235513282       -4.20395386506239
H            1.07084809787704       -3.20067100055960       -3.41811697387599
O           -0.46972316755728       -3.31932387941365        3.64438170770310
H           -0.50233654038221       -4.23750183717505        3.99520661151067
H           -0.44904199406791       -2.72106596838418        4.40878711931806
O            2.58565761909610        3.00303593448022       -1.36660009478947
H            2.20606633392868        3.86961455140946       -1.29217487815147
H            2.76584423118203        2.80794035604014       -2.26241724640361
O            2.50125315539827       -3.24956006017710        3.25713662680487
H            2.76517953239064       -2.64536092781012        2.56466699647057
H            1.66943242895650       -3.63883844282432        2.98282934149878
O            1.57736990686262        0.40781626298821       -4.45301562561591
H            2.40729386018527        0.08623203191537       -4.16335848492124
H            1.44994114476804        1.28742072187418       -4.16870288989942
34
 energy: -56.627572886214 gnorm: 0.142020591652 xtb: 6.7.1 (edcfbbe)
H            1.40344050211012       -0.70187932307613       -0.41905596578748
C            0.31797999289568       -0.69878517882888       -0.56422878768417
H            0.43446089842350        0.50127555648193       -2.28274472655303
H            0.01654284644035       -1.61137166318085       -1.08915195108427
N           -0.04666801164852        0.48885728865621       -1.36959871003243
H           -0.14650451707277       -1.48134457161848        1.41314359486350
C           -0.36440684725277       -0.60795380887160        0.79545644090442
O           -0.03820370238849        1.76866922790355        0.95884064533607
C            0.18228511904864        0.67610438845738        1.53103151407233
H            0.19570344356481        1.32137006863286       -0.76554109474924
O            0.58382856641790        0.51145994628560        2.69810313222440
H           -1.06767174910255        0.52587140367245       -1.49133617968034
H           -1.45140231128719       -0.52640810717087        0.68466367437433
O            0.84635532573512        0.21988332550820       -7.25462468316982
H            0.50834146160900        1.03904955833923       -6.86935558063276
H            0.44452872560607       -0.50033935000801       -6.76662999231056
O           -1.29153828347346        1.62961252589758       -5.00230054677385
H           -0.80911335642310        0.80921937255605       -4.82148826999166
H           -2.12502085104669        1.57022246117054       -4.51505895132844
O            1.02291415417047       -4.15899521274034       -3.61884725283238
H            0.25437907206716       -4.28616637566480       -4.19602824628813
H            1.06372943329172       -3.21365846261670       -3.41286186715805
O           -0.46308810706846       -3.31683991854730        3.64181674557200
H           -0.48538562415729       -4.22791866073558        3.97106841707164
H           -0.45035951070223       -2.75255390849271        4.41469093809087
O            2.43058580842030        2.88022294212238       -1.31850816446987
H            2.25099109394538        3.89921790056385       -1.26921337250113
H            2.87153693733264        2.90401889393617       -2.33746755541686
O            2.53155447954164       -3.27411075482235        3.25496673895962
H            2.77497593106878       -2.63178181695443        2.57196820086220
H            1.65310828720695       -3.61208375723980        2.98444900323722
O            1.51340011767181        0.37166032627516       -4.40520020027730
H            2.41594239141473        0.09417319634686       -4.16280479715165
H            1.46709228363962        1.32676848776214       -4.16425314969366
34
 energy: -56.645133424902 gnorm: 0.070752095468 xtb: 6.7.1 (edcfbbe)
H            1.39885777100275       -0.70343133899093       -0.42251204962874
C            0.31883168813080       -0.69902018568437       -0.56818486730705
H            0.43726776383091        0.50571878749407       -2.27866075206242
H            0.01772076702399       -1.60934193214277       -1.08602420005753
N           -0.04700954786269        0.48733857309757       -1.37365003874170
H           -0.14148122184883       -1.46747411050596        1.40902171262426
C           -0.36161461411154       -0.59953550747726        0.79032569703182
O            0.00256835403069        1.76066221177070        0.95159677974368
C            0.11535205073742        0.67781957185881        1.56587921355653
H            0.18253468623765        1.31760317702219       -0.75973538822445
O            0.60766194142717        0.51630293838422        2.68262498912591
H           -1.06210491343781        0.51964105212305       -1.49980552543897
H           -1.44377643663779       -0.52832012457336        0.68336116288447
O            0.85720067101367        0.22470068079306       -7.23991202802318
H            0.50053369634886        1.03234521087275       -6.89081975463871
H            0.43948042473272       -0.48817149027283       -6.79137441408396
O           -1.28045828637569        1.63416097874724       -4.99756946336639
H           -0.80912907700644        0.79871729177583       -4.82061122750343
H           -2.12177814295250        1.57016042907840       -4.52237433654587
O            1.02183083229099       -4.15737155077944       -3.62778230822278
H            0.25584050535354       -4.29006862916122       -4.18722727694273
H            1.05892668837300       -3.22812839066688       -3.41207232950540
O           -0.46063379935394       -3.32390895194359        3.64207334775952
H           -0.48271628212931       -4.22322236880313        3.96313978439437
H           -0.44928925948888       -2.76331608007205        4.41034308780093
O            2.56369395321623        2.98062891011047       -1.35822581935274
H            2.18739932554709        3.85633450464102       -1.26722326186960
H            2.79808124266249        2.84512313114717       -2.30384486711624
O            2.54495488138862       -3.28109118521518        3.25572461283796
H            2.78085199166521       -2.62954932833239        2.57641109236658
H            1.64765658540468       -3.59842587856385        2.98710858532437
O            1.49612914688887        0.37318647378902       -4.38133267293810
H            2.41464947366352        0.09613678791294       -4.15831382904980
H            1.45628114023380        1.32926234256660       -4.14645465482891
34
 energy: -56.642410323170 gnorm: 0.109983194780 xtb: 6.7.1 (edcfbbe)
H            1.40243677284554       -0.70458423774340       -0.42633735922868
C            0.32269251607204       -0.70625920526211       -0.56670477050778
H            0.45735159352201        0.53072005318028       -2.26911656927455
H            0.02004285341594       -1.61398415652698       -1.08797090741381
N           -0.04492264871922        0.48684075995940       -1.37089675801237
H           -0.14077849117784       -1.47048728722342        1.42324968282280
C           -0.35292664409384       -0.61062340986956        0.79417665365695
O            0.05670317681721        1.75858821392349        0.85820952210798
C            0.11883387432825        0.69550096282528        1.55671404302600
H            0.15676763560021        1.30935048988600       -0.72653878486791
O            0.57280919378269        0.54329602444210        2.70462318428845
H           -1.05774389000603        0.50946075774060       -1.51230181628371
H           -1.43376008654553       -0.51923097235911        0.68130225646903
O            0.82735236925127        0.25592351214596       -7.31860019889316
H            0.47445269093082        1.04716187547552       -6.87722680375663
H            0.49589867331992       -0.51432445251580       -6.80580761647750
O           -1.28470954825276        1.58643605379708       -5.01239536080675
H           -0.77752049506815        0.82591290067601       -4.80245548699106
H           -2.10349940003245        1.57759577800020       -4.53183412265608
O            0.99931947438105       -4.19025801038540       -3.59037247019809
H            0.25667862247485       -4.29823453309360       -4.20333157519321
H            1.08735851360667       -3.23211984894124       -3.43414724715268
O           -0.41632727507655       -3.35835279751947        3.61990693897778
H           -0.54963385827153       -4.26290769559349        4.01862482377712
H           -0.44208121922517       -2.72007951931834        4.35891471144920
O            2.55198126267077        2.96693294009601       -1.39081697165526
H            2.23714819481136        3.86672274938035       -1.26023411252686
H            2.76310369855316        2.85121647258739       -2.29455908551613
O            2.46385801522264       -3.21334635568271        3.26492561318842
H            2.79818334065677       -2.65978371715495        2.59003962393210
H            1.68199992396173       -3.62488219805453        3.01045708245189
O            1.48554845880835        0.38957472870266       -4.32198120221065
H            2.37209550512416        0.10074276761916       -4.12398792062500
H            1.44560119631156        1.33294735680541       -4.12962799589862
34
 energy: -56.650179676057 gnorm: 0.055139280400 xtb: 6.7.1 (edcfbbe)
H            1.40024110851450       -0.70535985039989       -0.43034197891804
C            0.31844845118991       -0.70460070971936       -0.56904552794763
H            0.46519606539304        0.53524026677887       -2.26604082284316
H            0.01461368756174       -1.61727660625054       -1.08382597587258
N           -0.04954018478460        0.48351449287997       -1.37391997819775
H           -0.13923295901411       -1.46216222015561        1.42447719792918
C           -0.35387422691628       -0.60205691855565        0.79369150520958
O            0.05047683881051        1.76432860136220        0.87886186146698
C            0.15068146220371        0.69549030833347        1.53755332777837
H            0.14102983025096        1.30500005659500       -0.71921596839865
O            0.55310307750402        0.54965466472504        2.71030298236718
H           -1.06195110446854        0.49672439548011       -1.53140133984787
H           -1.43715511060387       -0.51435426854149        0.68407075802826
O            0.83278959020574        0.26509606747986       -7.31946460309587
H            0.45864387299851        1.05153289539899       -6.88624131962271
H            0.49182285173825       -0.51028219331281       -6.82898531621870
O           -1.23359357123444        1.62757894559992       -4.98374462819015
H           -0.79316096820389        0.77992021151472       -4.79703144044730
H           -2.11853148548080        1.57004824535833       -4.56498514132395
O            0.99682473162893       -4.19844822327015       -3.59281237010313
H            0.25072685028235       -4.30659706528962       -4.20049828575106
H            1.08407014026307       -3.24423538413851       -3.43113854690882
O           -0.44181963144796       -3.36814950373443        3.61463696748876
H           -0.50714248341815       -4.25916423055185        3.98992423241109
H           -0.42222457360977       -2.74479284570960        4.35780628924556
O            2.54285714663728        2.95830416521101       -1.39222727929748
H            2.22362106714767        3.85470970759539       -1.24867700948424
H            2.77480486294891        2.87169829932140       -2.31072700201793
O            2.55371808139890       -3.28153026064821        3.25897032907047
H            2.82049079247351       -2.62878898607606        2.60148893341524
H            1.63880192840477       -3.56174897612362        3.00246542057469
O            1.46154735115204        0.39538060966028       -4.28730423457667
H            2.35926439372958        0.11070984101821       -4.11006016711882
H            1.41876611674366        1.33008246816398       -4.10266186880106
34
 energy: -56.646114838582 gnorm: 0.110224983091 xtb: 6.7.1 (edcfbbe)
H            1.40039015735045       -0.70458438703519       -0.43813473572961
C            0.31787395947493       -0.69887199431629       -0.57603785372533
H            0.47537017519237        0.53314618360104       -2.26505155714110
H            0.01562005147301       -1.61909203217335       -1.07845453107099
N           -0.05100567604629        0.47833816838914       -1.38387444635865
H           -0.12780029946461       -1.44260222531119        1.41445977573767
C           -0.35446422955192       -0.58158803416515        0.78716502707769
O            0.07630660658735        1.77262892987973        0.92022402462101
C            0.13781416970260        0.69204748939099        1.54086102807639
H            0.12808479411855        1.29939757874328       -0.72256706827404
O            0.57690827277487        0.55470581119151        2.67934699195298
H           -1.05991648158596        0.48067368595003       -1.56115690973508
H           -1.43854724434374       -0.51805448507944        0.68513583667033
O            0.86900573817492        0.25915196632505       -7.27887499804038
H            0.46204596534408        1.04634400686900       -6.93659791324562
H            0.44907245091522       -0.47315236563581       -6.87920823426247
O           -1.27209600754017        1.56703477164837       -5.02474085059871
H           -0.76465851122728        0.79943986934195       -4.80186991336188
H           -2.06070018920311        1.59810257644934       -4.52806275816372
O            1.01434836890633       -4.19445945115123       -3.62625085509127
H            0.25106149080863       -4.32232031122602       -4.18434985028448
H            1.07102242591567       -3.27362491658020       -3.41447854266439
O           -0.43154807197746       -3.36340511492058        3.61623427239499
H           -0.50601199902630       -4.24403437185329        3.95694474123748
H           -0.43425498073247       -2.78875109071222        4.36443311456222
O            2.52887739116564        2.94422431670947       -1.38367543398141
H            2.18183707610032        3.82336776528817       -1.23204353072709
H            2.83446041255550        2.91697664794607       -2.35408237635885
O            2.53336174178584       -3.26709998452931        3.27956054050896
H            2.81527166104276       -2.62004045771616        2.61719532076944
H            1.64428807482989       -3.57344640380103        3.01559135758659
O            1.39860154125591        0.37096787568552       -4.21709332990003
H            2.34796371321546        0.11940655918711       -4.08164623424430
H            1.41573145200799        1.36463942360976       -4.08500110823539
34