
                                 *****************
                                 * O   R   C   A *
                                 *****************

                                            #,                                       
                                            ###                                      
                                            ####                                     
                                            #####                                    
                                            ######                                   
                                           ########,                                 
                                     ,,################,,,,,                         
                               ,,#################################,,                 
                          ,,##########################################,,             
                       ,#########################################, ''#####,          
                    ,#############################################,,   '####,        
                  ,##################################################,,,,####,       
                ,###########''''           ''''###############################       
              ,#####''   ,,,,##########,,,,          '''####'''          '####       
            ,##' ,,,,###########################,,,                        '##       
           ' ,,###''''                  '''############,,,                           
         ,,##''                                '''############,,,,        ,,,,,,###''
      ,#''                                            '''#######################'''  
     '                                                          ''''####''''         
             ,#######,   #######,   ,#######,      ##                                
            ,#'     '#,  ##    ##  ,#'     '#,    #''#        ,####,   ,####,        
            ##       ##  ##   ,#'  ##            #'  '#       #'       #'  '#        
            ##       ##  #######   ##           ,######,      #####,   #    #        
            '#,     ,#'  ##    ##  '#,     ,#' ,#      #,     #,   #   #,  ,#        
             '#######'   ##     ##  '#######'  #'      '#     '####' # '####'        



                #########################################################
                #                        -***-                          #
                #          Department of theory and spectroscopy        #
                #                                                       #
                #                      Frank Neese                      #
                #                                                       #
                #     Directorship, Architecture, Infrastructure        #
                #                    SHARK, DRIVERS                     #
                #        Core code/Algorithms in most modules           #
                #                                                       #
                #        Max Planck Institute fuer Kohlenforschung      #
                #                Kaiser Wilhelm Platz 1                 #
                #                 D-45470 Muelheim/Ruhr                 #
                #                      Germany                          #
                #                                                       #
                #                  All rights reserved                  #
                #                        -***-                          #
                #########################################################


                         Program Version 6.0.1  -  RELEASE   -


 With contributions from (in alphabetic order):
[Max-Planck-Institut fuer Kohlenforschung]                               
  Daniel Aravena         : Magnetic Suceptibility                        
  Michael Atanasov       : Ab Initio Ligand Field Theory (pilot matlab implementation)
  Alexander A. Auer      : GIAO ZORA, VPT2 properties, NMR spectrum      
  Ute Becker             : All parallelization in ORCA, NUMFREQ, NUMCALC 
  Giovanni Bistoni       : ED, misc. LED, open-shell LED, HFLD           
  Martin Brehm           : Molecular dynamics                            
  Dmytro Bykov           : pre 5.0 version of the SCF Hessian            
  Marcos Casanova-Páez   : Triplet and SCS-CIS(D). UHF-(DLPNO)-IP/EA/STEOM-CCSD. UHF-CVS-IP/STEOM-CCSD   
  Vijay G. Chilkuri      : MRCI spin determinant printing, contributions to CSF-ICE 
  Pauline Colinet        : FMM embedding                                 
  Dipayan Datta          : RHF DLPNO-CCSD density                        
  Achintya Kumar Dutta   : EOM-CC, STEOM-CC                              
  Nicolas Foglia         : Exact transition moments, OPA infrastructure, MCD improvements    
  Dmitry Ganyushin       : Spin-Orbit,Spin-Spin,Magnetic field MRCI      
  Miquel Garcia-Rates    : C-PCM and meta-GGA Hessian, CCSD/C-PCM, Gaussian charge scheme 
  Tiago L. C. Gouveia    : GS-ROHF, GS-ROCIS                             
  Yang Guo               : DLPNO-NEVPT2, F12-NEVPT2, CIM, IAO-localization        
  Andreas Hansen         : Spin unrestricted coupled pair/coupled cluster methods 
  Ingolf Harden          : AUTO-CI MPn and infrastructure                
  Benjamin Helmich-Paris : MC-RPA, TRAH-(SCF,CASSCF), AVAS, COSX integrals, SCF dyn. polar. 
  Lee Huntington         : MR-EOM, pCC                                   
  Robert Izsak           : Overlap fitted RIJCOSX, COSX-SCS-MP3, EOM     
  Riya Kayal             : Wick's Theorem for AUTO-CI, AUTO-CI UHF-CCSDT 
  Emily Kempfer          : AUTO-CI, RHF CISDT and CCSDT                  
  Christian Kollmar      : KDIIS, OOCD, Brueckner-CCSD(T), CCSD density, CASPT2, CASPT2-K, improved NEVPT2 
  Axel Koslowski         : Symmetry handling                             
  Simone Kossmann        : meta-GGA functionals, TD-DFT gradient, OOMP2, (MP2 Hessian; deprecated post 5.0) 
  Lucas Lang             : DCDCAS                                        
  Marvin Lechner         : AUTO-CI (C++ implementation), FIC-MRCC        
  Spencer Leger          : CASSCF response                               
  Dagmar Lenk            : GEPOL surface, SMD, ORCA-2-JSON               
  Dimitrios Liakos       : Extrapolation schemes; Compound Job, initial MDCI parallelization 
  Dimitrios Manganas     : Further ROCIS development; embedding schemes. LFT, Crystal Embedding 
  Dimitrios Pantazis     : SARC Basis sets                               
  Anastasios Papadopoulos: AUTO-CI, single reference methods and gradients 
  Taras Petrenko         : pre 6.0 DFT Hessian and TD-DFT gradient, (ASA, deprecated), ECA, 1-Electron XAS/XES, NRVS 
  Peter Pinski           : DLPNO-MP2, DLPNO-MP2 Gradient                 
  Christoph Reimann      : Effective Core Potentials                     
  Marius Retegan         : Local ZFS, SOC                                
  Christoph Riplinger    : Optimizer, TS searches, QM/MM, DLPNO-CCSD(T), (RO)-DLPNO pert. Triples 
  Michael Roemelt        : Original ROCIS implementation                 
  Masaaki Saitow         : Open-shell DLPNO-CCSD energy and density      
  Barbara Sandhoefer     : DKH picture change effects                    
  Kantharuban Sivalingam : CASSCF convergence/infrastructure, NEVPT2 and variants, FIC-MRCI 
  Bernardo de Souza      : ESD, SOC TD-DFT                               
  Georgi L. Stoychev     : AutoAux, RI-MP2 NMR, DLPNO-MP2 response, X2C  
  Van Anh Tran           : RI-MP2 g-tensors                              
  Willem Van den Heuvel  : Paramagnetic NMR                              
  Zikuan Wang            : NOTCH, Electric field optimization            
  Frank Wennmohs         : Technical directorship and infrastructure     
  Hang Xu                : AUTO-CI-Response properties                   
                                                                         
[FACCTs GmbH]                                                            
  Markus Bursch, Miquel Garcia-Rates, Christoph Riplinger, Bernardo de Souza, Georgi L. Stoychev 
                                                                 
  APM, Basis sets (HGBS, AHGBS, def-TZVP (Ac-Lr), def2-XVPD (La-Lu)), CI-OPT, improved COSX, DLPNO-Multilevel,           
  DOCKER, DRACO, updates on ESD, GOAT, IRC, LR-CPCM, MBIS, meta-GGA TD-DFT gradient, ML-optimized integration grids, 
  MM, NACMEs, nearIR, NEB, NEB-TS, NL-DFT gradient (VV10), 2- and 3-layer-ONIOM, interface openCOSMO-RS, QMMM,   
  Crystal-QMMM, SF, symmetry and pop. for TD-DFT, r2SCAN hybrids, SOLVATOR                                   
                                                                         
[Other institutions]                                                     
  V. Asgeirsson          : NEB                                           
  Christoph Bannwarth    : sTDA-DFT, sTD-DFT, PBEh-3c, B97-3c, D3        
  Sebastian Ehlert       : rSCAN, r2SCAN, r2SCAN-3c, D4, dhf basis sets  
  Marvin Friede          : D4 for Fr, Ra, Ac-Lr                          
  Lars Goerigk           : TD-DFT with DH, B97 family of functionals     
  Stefan Grimme          : VdW corrections, initial TS optimization, DFT functionals, gCP, sTDA/sTD-DF 
  Waldemar Hujo          : DFT-NL                                        
  H. Jonsson             : NEB                                           
  Holger Kruse           : gCP                                           
  Marcel Mueller         : wB97X-3c, vDZP basis set                      
  Hagen Neugebauer       : wr2SCAN                                       
  Tobias Risthaus        : range-separated hybrid DFT                    
  Lukas Wittmann         : regularized MP2, r2SCAN double-hybrids, wr2SCAN        
                                                                         
We gratefully acknowledge several colleagues who have allowed us to      
interface, adapt or use parts of their codes:                            
  Ed Valeev, F. Pavosevic, A. Kumar             : LibInt (2-el integral package), F12 methods 
  Garnet Chan, S. Sharma, J. Yang, R. Olivares  : DMRG                   
  Ulf Ekstrom                                   : XCFun DFT Library      
  Mihaly Kallay                                 : mrcc  (arbitrary order and MRCC methods)
  Frank Weinhold                                : gennbo (NPA and NBO analysis)           
  Simon Mueller                                 : openCOSMO-RS                            
  Christopher J. Cramer and Donald G. Truhlar   : smd solvation model                     
  S Lehtola, MJT Oliveira, MAL Marques          : LibXC Library                           
  Liviu Ungur et al                             : ANISO software                          


 Your calculation uses the libint2 library for the computation of 2-el integrals
 For citations please refer to: http://libint.valeyev.net

 Your ORCA version has been built with support for libXC version: 6.2.2
 For citations please refer to: https://libxc.gitlab.io

 This ORCA versions uses:
   CBLAS   interface :  Fast vector & matrix operations
   LAPACKE interface :  Fast linear algebra routines
   SCALAPACK package :  Parallel linear algebra routines
   Shared memory     :  Shared parallel matrices
   BLAS/LAPACK       :  OpenBLAS 0.3.27  USE64BITINT DYNAMIC_ARCH NO_AFFINITY SkylakeX SINGLE_THREADED
        Core in use  :  SkylakeX
   Copyright (c) 2011-2014, The OpenBLAS Project


NOTE: MaxCore=5000 MB was set to SCF,MP2,MDCI,CIPSI,MRCI and CIS
      => If you want to overwrite this, your respective input block should be placed after the MaxCore statement
Your calculation utilizes the atom-pairwise dispersion correction
based on EEQ partial charges (D4)


Warning: RI is on but no J-basis has been assigned. Assigning Def2/J (nothing to worry about!)
================================================================================

----- Orbital basis set information -----
Your calculation utilizes the basis: def2-TZVP
   F. Weigend and R. Ahlrichs, Phys. Chem. Chem. Phys. 7, 3297 (2005).

----- AuxJ basis set information -----
Your calculation utilizes the auxiliary basis: def2/J
   F. Weigend, Phys. Chem. Chem. Phys. 8, 1057 (2006).

================================================================================
                                        WARNINGS
                       Please study these warnings very carefully!
================================================================================

WARNING: Old DensityContainer found on disk!
         Will remove this file - 
         If you want to keep old densities, please start your calculation with a different basename. 


WARNING: Geometry Optimization
  ===> : Switching off AutoStart
         For restart on a previous wavefunction, please use MOREAD

================================================================================
                                       INPUT FILE
================================================================================
NAME = 02_Alanine_zwitterion.inp
|  1> ! Opt B3LYP D4 def2-TZVP TightSCF TightOpt CPCM(water)
|  2> 
|  3> %maxcore 5000
|  4> 
|  5> %pal
|  6> nprocs 15
|  7> end
|  8> 
|  9> %geom
| 10> 	MaxIter 1000
| 11> end
| 12> 
| 13> * xyz 0 1
| 14>   O           2.73005640130158     -1.03999702881985     -3.48945052034487
| 15>   H           2.39356500372782     -0.13695684151983     -3.31368198058518
| 16>   H           1.94923857248868     -1.62026976261762     -3.60044482966887
| 17>   O          -1.81861484954360     -2.96171986262542     -4.14627999269655
| 18>   H          -2.63038793531090     -2.83313215616653     -3.64114740393117
| 19>   H          -1.93805348236596     -2.47323532307901     -4.96945522431909
| 20>   O          -5.26856878255026     -1.15745862153584     -0.82387263390012
| 21>   H          -4.49613766582778     -1.72855453115257     -0.92130190592596
| 22>   H          -5.35753295740352     -0.72633451994718     -1.68282656759045
| 23>   O          -0.57739700046574     -2.31428362920309     -0.62306647542873
| 24>   H          -0.86401739769533     -2.13983203590136      0.28377215388044
| 25>   H           0.24871173032093     -2.80841394223360     -0.54312184606420
| 26>   O           0.37323026654001      4.91267107402556     -2.60121638722673
| 27>   H          -0.44164918132267      5.42685806075872     -2.57161085051790
| 28>   H           0.17341362583382      4.11352882254079     -2.08222322416334
| 29>   O           2.14597622985128      1.59156119983659     -2.93494557204407
| 30>   H           1.88384308652228      1.98201498228039     -2.07692804509969
| 31>   H           1.79400215482778      2.18052482460568     -3.61220382243372
| 32>   O           1.92153116951880      2.36064219525795     -0.16683081782809
| 33>   H           0.97258472893259      2.51874015051561     -0.31416058040794
| 34>   H           1.96719384607459      1.44203177756639      0.17624076551108
| 35>   O          -2.18268102194126      0.75971799839609      2.14451191289849
| 36>   H          -1.48199512590513      0.10159861296617      2.24352160167729
| 37>   H          -2.53221885833416      0.61219930555478      1.25607702323139
| 38>   O           0.90920581633516     -3.08840150176273     -3.68566532157575
| 39>   H          -0.06943064124078     -3.08034114454425     -3.72304702829958
| 40>   H           1.13461268463456     -3.60720937349221     -2.90476925042528
| 41>   H           2.45022636544440     -0.84095269962092      0.11869345478807
| 42>   O           1.99834741344644     -0.25326244505970      0.77025031757059
| 43>   H           1.10039014041378     -0.59247816492125      0.85560657784543
| 44>   H          -2.35732474302383      0.02631000121396     -5.42969814449131
| 45>   O          -3.28139248763590      0.23856194094339     -5.61141571163391
| 46>   H          -3.30772986289828      1.20342576907660     -5.62083683370807
| 47>   H          -1.53658570105116      3.60809765266505      0.97005755789582
| 48>   O          -1.23007338135928      3.47485694524135      1.88887746524350
| 49>   H          -1.48201555404818      2.55156983192766      2.06809987910356
| 50>   H          -3.95525098609412      2.87673917170938      0.04703960651937
| 51>   O          -4.78117092088857      2.55521713268763      0.47434223374599
| 52>   H          -4.54116687278412      2.41284691987035      1.39649555919023
| 53>   H           3.17887396997762     -2.77292359122077     -0.87502176367764
| 54>   O           3.38658696677323     -1.83574779306365     -0.95722135420471
| 55>   H           3.20142839981628     -1.59447927075008     -1.89695921589275
| 56>   H          -2.42641873668393     -0.14607475079720     -1.11552043090216
| 57>   C          -2.22579770912539      0.17922987636357     -2.13438604148882
| 58>   H          -0.50668131964341     -0.95788987858391     -1.86264269491294
| 59>   H          -2.81368943137762     -0.43402269137133     -2.81067340190962
| 60>   N          -0.77750969434620     -0.10948629366050     -2.38968135842335
| 61>   H          -3.63675016571634      1.76997557360701     -2.14311794255987
| 62>   C          -2.56895391301343      1.65138254933550     -2.31783495482005
| 63>   O          -0.51895605162609      2.45407320091793     -1.42205928474526
| 64>   C          -1.78102900347207      2.57468066429264     -1.39091226722286
| 65>   H          -0.22917657599829      0.70525769014387     -2.06700448650392
| 66>   O          -2.40139766635258      3.39424236389032     -0.67438268983527
| 67>   H          -0.58741487083995     -0.25412953279391     -3.37948530849776
| 68>   H          -2.36665802489565      1.95169109825327     -3.34951194319336
| 69> *
| 70> 
| 71>                          ****END OF INPUT****
================================================================================

                       *****************************
                       * Geometry Optimization Run *
                       *****************************

Geometry optimization settings:
Update method            Update   .... BFGS
Choice of coordinates    CoordSys .... (2022) Redundant Internals
Initial Hessian          InHess   .... Almloef's Model
Max. no of cycles        MaxIter  .... 1000

Convergence Tolerances:
Energy Change            TolE     ....  1.0000e-06 Eh
Max. Gradient            TolMAXG  ....  1.0000e-04 Eh/bohr
RMS Gradient             TolRMSG  ....  3.0000e-05 Eh/bohr
Max. Displacement        TolMAXD  ....  1.0000e-03 bohr
RMS Displacement         TolRMSD  ....  6.0000e-04 bohr
Strict Convergence                .... False

------------------------------------------------------------------------------
                        ORCA OPTIMIZATION COORDINATE SETUP
------------------------------------------------------------------------------

The optimization will be done in redundant internal coordinates (2022)
Making redundant internal coordinates   ...  (2022 redundants) done
Evaluating the initial hessian          ...  (Almloef) done
Evaluating the coordinates              ...  done
Calculating the B-matrix                .... done
Calculating the G-matrix                .... done
Diagonalizing the G-matrix              .... done
Small eigenvalue found = 1.389e-02
Small eigenvalue found = 1.624e-02
Small eigenvalue found = 2.215e-02
Small eigenvalue found = 2.721e-02
The first mode is                       ....  591
The number of degrees of freedom        ....  159

    -----------------------------------------------------------------
                    Redundant Internal Coordinates


    -----------------------------------------------------------------
         Definition                    Initial Value    Approx d2E/dq
    -----------------------------------------------------------------
      1. B(H   1,O   0)                  0.9796         0.483846   
      2. B(H   2,O   0)                  0.9791         0.484654   
      3. B(H   4,O   3)                  0.9647         0.511033   
      4. B(H   5,O   3)                  0.9646         0.511198   
      5. B(H   7,O   6)                  0.9656         0.509456   
      6. B(H   8,O   6)                  0.9652         0.510144   
      7. B(H  10,O   9)                  0.9669         0.506898   
      8. B(H  11,O   9)                  0.9659         0.508761   
      9. B(H  13,O  12)                  0.9640         0.512374   
     10. B(H  14,O  12)                  0.9736         0.494606   
     11. B(O  15,H   1)                  1.7868         0.024941   
     12. B(H  16,O  15)                  0.9784         0.485884   
     13. B(H  17,O  15)                  0.9641         0.512228   
     14. B(O  18,H  16)                  1.9476         0.013812   
     15. B(H  19,H  16)                  2.0557         0.001985   
     16. B(H  19,O  18)                  0.9732         0.495267   
     17. B(H  20,O  18)                  0.9816         0.480211   
     18. B(H  20,H  16)                  2.3185         0.000756   
     19. B(H  22,O  21)                  0.9664         0.507917   
     20. B(H  23,O  21)                  0.9661         0.508525   
     21. B(O  24,H   2)                  1.8012         0.023652   
     22. B(H  25,O   3)                  1.8036         0.023448   
     23. B(H  25,H   5)                  2.3268         0.000733   
     24. B(H  25,O  24)                  0.9794         0.484219   
     25. B(H  26,O  24)                  0.9642         0.511910   
     26. B(H  26,H   2)                  2.2573         0.000946   
     27. B(H  27,H  20)                  2.3342         0.000713   
     28. B(O  28,H  20)                  1.7966         0.024054   
     29. B(O  28,H  27)                  0.9870         0.470918   
     30. B(H  29,H  20)                  2.3135         0.000770   
     31. B(H  29,O  28)                  0.9637         0.512973   
     32. B(H  30,H   5)                  2.5759         0.000294   
     33. B(H  30,O   3)                  3.2963         0.000097   
     34. B(O  31,H  30)                  0.9654         0.509766   
     35. B(O  31,H   5)                  3.0936         0.000205   
     36. B(H  32,O  31)                  0.9653         0.509988   
     37. B(O  34,H  33)                  0.9777         0.487190   
     38. B(H  35,H  23)                  2.3502         0.000673   
     39. B(H  35,O  21)                  1.9255         0.014983   
     40. B(H  35,O  34)                  0.9737         0.494470   
     41. B(H  35,H  22)                  2.4562         0.000456   
     42. B(O  37,H  36)                  0.9839         0.476208   
     43. B(H  38,O  37)                  0.9635         0.513406   
     44. B(H  39,H  11)                  2.9491         0.000075   
     45. B(O  40,H  39)                  0.9634         0.513443   
     46. B(O  40,H  27)                  1.7390         0.029729   
     47. B(H  41,H   1)                  2.1873         0.001224   
     48. B(H  41,O  40)                  0.9877         0.469605   
     49. B(H  41,H   2)                  2.1144         0.001600   
     50. B(H  41,O   0)                  1.7509         0.028453   
     51. B(H  42,H   8)                  3.0414         0.000053   
     52. B(H  42,H   7)                  2.6126         0.000257   
     53. B(H  42,O   6)                  3.0308         0.000258   
     54. B(H  42,H  23)                  2.4921         0.000399   
     55. B(C  43,H  42)                  1.0882         0.362501   
     56. B(C  43,H   8)                  3.2912         0.000111   
     57. B(C  43,H   7)                  3.2040         0.000153   
     58. B(C  43,H  30)                  3.3015         0.000107   
     59. B(H  44,O   9)                  1.8388         0.020598   
     60. B(H  45,C  43)                  1.0858         0.365638   
     61. B(H  45,O   6)                  3.2399         0.000120   
     62. B(H  45,H   7)                  2.8419         0.000111   
     63. B(H  45,H   8)                  2.7980         0.000130   
     64. B(H  45,H  32)                  3.2897         0.000021   
     65. B(H  45,O  31)                  2.9181         0.000391   
     66. B(H  45,H  30)                  2.6980         0.000187   
     67. B(N  46,C  43)                  1.4987         0.375377   
     68. B(N  46,H  42)                  2.0842         0.008365   
     69. B(N  46,H  45)                  2.1044         0.007765   
     70. B(N  46,H  44)                  1.0348         0.394961   
     71. B(H  47,H   8)                  3.0667         0.000048   
     72. B(C  48,H  47)                  1.0885         0.362122   
     73. B(C  48,C  43)                  1.5227         0.383716   
     74. B(O  49,H  14)                  1.9155         0.015545   
     75. B(O  49,H  19)                  1.8591         0.019120   
     76. B(C  50,O  49)                  1.2682         0.875369   
     77. B(C  50,C  48)                  1.5272         0.377369   
     78. B(H  51,O  49)                  1.8863         0.017300   
     79. B(H  51,N  46)                  1.0337         0.396584   
     80. B(O  52,H  33)                  1.8702         0.018354   
     81. B(O  52,H  36)                  1.7896         0.024681   
     82. B(O  52,C  50)                  1.2530         0.925733   
     83. B(H  53,N  46)                  1.0182         0.419839   
     84. B(H  53,H  30)                  2.7230         0.000171   
     85. B(H  54,C  48)                  1.0934         0.355664   
     86. B(H  54,O  31)                  2.9812         0.000310   
     87. B(H  54,H  30)                  2.8345         0.000114   
     88. B(H  54,H  32)                  2.5699         0.000300   
     89. A(H   2,O   0,H  41)           97.4761         0.207723   
     90. A(H   1,O   0,H   2)          107.0219         0.314455   
     91. A(H   1,O   0,H  41)          102.7804         0.207678   
     92. A(O  15,H   1,H  41)          123.9543         0.113078   
     93. A(O   0,H   1,H  41)           51.3218         0.136109   
     94. A(O   0,H   1,O  15)          167.8050         0.204192   
     95. A(O  24,H   2,H  41)          112.9558         0.114278   
     96. A(O   0,H   2,H  41)           55.1914         0.139071   
     97. A(H  26,H   2,H  41)           88.6342         0.098870   
     98. A(O   0,H   2,O  24)          161.5985         0.202860   
     99. A(O  24,H   2,H  26)           24.3218         0.111445   
    100. A(O   0,H   2,H  26)          140.7597         0.133460   
    101. A(H   5,O   3,H  30)           35.7543         0.122244   
    102. A(H   5,O   3,H  25)          110.7105         0.204016   
    103. A(H   4,O   3,H   5)          105.9704         0.320033   
    104. A(H   4,O   3,H  25)          134.5868         0.204008   
    105. A(H  25,O   3,H  30)          108.0283         0.105549   
    106. A(H   4,O   3,H  30)           86.8771         0.122242   
    107. A(O   3,H   5,H  25)           46.4727         0.131474   
    108. A(O   3,H   5,H  30)          131.6065         0.123527   
    109. A(H  25,H   5,O  31)          133.5198         0.096233   
    110. A(O   3,H   5,O  31)          132.4343         0.128347   
    111. A(H  25,H   5,H  30)          118.6602         0.095347   
    112. A(H  30,H   5,O  31)           16.5962         0.094880   
    113. A(H   7,O   6,H  45)           57.5912         0.123813   
    114. A(H   8,O   6,H  45)           54.8565         0.123824   
    115. A(H   8,O   6,H  42)           81.4741         0.130437   
    116. A(H  42,O   6,H  45)           32.4295         0.095251   
    117. A(H   7,O   6,H  42)           55.7692         0.130425   
    118. A(H   7,O   6,H   8)          104.3671         0.319764   
    119. A(O   6,H   7,H  45)          105.7398         0.116656   
    120. A(C  43,H   7,H  45)           19.5318         0.093461   
    121. A(O   6,H   7,H  42)          106.4391         0.122464   
    122. A(O   6,H   7,C  43)          104.6485         0.126208   
    123. A(H  42,H   7,C  43)           18.1655         0.094397   
    124. A(H  42,H   7,H  45)           37.4068         0.093012   
    125. A(O   6,H   8,H  42)           80.2348         0.112436   
    126. A(O   6,H   8,H  47)          116.4522         0.111948   
    127. A(H  42,H   8,H  45)           34.8193         0.091913   
    128. A(H  42,H   8,H  47)           48.0805         0.091330   
    129. A(C  43,H   8,H  45)           18.3434         0.093303   
    130. A(O   6,H   8,C  43)           99.0501         0.123618   
    131. A(H  45,H   8,H  47)           49.0270         0.091852   
    132. A(H  42,H   8,C  43)           19.2714         0.092515   
    133. A(O   6,H   8,H  45)          108.7593         0.117693   
    134. A(C  43,H   8,H  47)           38.8756         0.092441   
    135. A(H  11,O   9,H  44)          113.5936         0.200570   
    136. A(H  10,O   9,H  11)          105.5567         0.319360   
    137. A(H  10,O   9,H  44)          120.6993         0.200478   
    138. A(H  13,O  12,H  14)          104.3564         0.318450   
    139. A(O  12,H  14,O  49)          165.6985         0.193018   
    140. A(H  16,O  15,H  17)          105.9282         0.317514   
    141. A(H   1,O  15,H  16)          127.5207         0.204301   
    142. A(H   1,O  15,H  17)          119.5168         0.205688   
    143. A(O  18,H  16,H  19)           27.9732         0.112499   
    144. A(O  18,H  16,H  20)           24.6976         0.107887   
    145. A(O  15,H  16,H  19)          167.1398         0.141605   
    146. A(O  15,H  16,H  20)          138.5596         0.131280   
    147. A(H  19,H  16,H  20)           40.8335         0.098850   
    148. A(O  15,H  16,O  18)          158.8140         0.189866   
    149. A(H  16,O  18,H  19)           82.1979         0.190304   
    150. A(H  19,O  18,H  20)          104.4937         0.315177   
    151. A(H  16,O  18,H  20)           99.3074         0.189598   
    152. A(H  16,H  19,O  18)           69.8289         0.141833   
    153. A(H  16,H  19,O  49)           80.5345         0.114294   
    154. A(O  18,H  19,O  49)          150.0909         0.198040   
    155. A(O  18,H  20,H  29)          155.2510         0.131343   
    156. A(H  16,H  20,O  28)          122.7999         0.110413   
    157. A(H  16,H  20,H  27)          102.1969         0.096814   
    158. A(O  18,H  20,H  27)          156.3839         0.130618   
    159. A(H  27,H  20,H  29)           39.1642         0.096846   
    160. A(H  27,H  20,O  28)           23.3180         0.110135   
    161. A(H  16,H  20,O  18)           55.9951         0.131168   
    162. A(H  16,H  20,H  29)          118.4726         0.096950   
    163. A(O  28,H  20,H  29)           23.0127         0.110503   
    164. A(H  23,O  21,H  35)          103.7256         0.192805   
    165. A(H  22,O  21,H  35)          111.9609         0.192776   
    166. A(H  22,O  21,H  23)          104.6298         0.319440   
    167. A(O  21,H  22,H  35)           46.6383         0.127084   
    168. A(H  35,H  23,H  42)          124.1189         0.095674   
    169. A(O  21,H  23,H  42)          154.9967         0.125975   
    170. A(O  21,H  23,H  35)           52.7393         0.130605   
    171. A(H  25,O  24,H  26)          105.6004         0.317304   
    172. A(H   2,O  24,H  26)          105.3822         0.204278   
    173. A(H   2,O  24,H  25)          124.8945         0.202836   
    174. A(H   5,H  25,O  24)          145.5964         0.130956   
    175. A(O   3,H  25,O  24)          168.1274         0.202613   
    176. A(O   3,H  25,H   5)           22.8168         0.110144   
    177. A(H   2,H  26,O  24)           50.2960         0.134014   
    178. A(O  28,H  27,O  40)          174.6343         0.208130   
    179. A(H  20,H  27,O  40)          133.3287         0.111173   
    180. A(H  20,H  27,O  28)           46.1003         0.130435   
    181. A(H  27,O  28,H  29)          105.9915         0.315976   
    182. A(H  20,O  28,H  27)          110.5817         0.202553   
    183. A(H  20,O  28,H  29)          110.1986         0.204773   
    184. A(H  20,H  29,O  28)           46.7887         0.131981   
    185. A(O  31,H  30,H  53)          141.8634         0.119534   
    186. A(H   5,H  30,H  45)           71.8524         0.093661   
    187. A(O  31,H  30,H  45)           93.3437         0.120173   
    188. A(H   5,H  30,O  31)          113.7518         0.123505   
    189. A(O   3,H  30,H  45)           59.6711         0.093488   
    190. A(H  53,H  30,H  54)           61.2842         0.092682   
    191. A(O   3,H  30,C  43)           69.3201         0.093941   
    192. A(C  43,H  30,H  54)           40.1958         0.093139   
    193. A(C  43,H  30,H  53)           39.4076         0.093541   
    194. A(C  43,H  30,H  45)           17.3970         0.093636   
    195. A(H   5,H  30,C  43)           81.9593         0.094131   
    196. A(O  31,H  30,C  43)          102.4643         0.123316   
    197. A(O   3,H  30,H  54)          109.3016         0.093007   
    198. A(O   3,H  30,H  53)           60.4793         0.093396   
    199. A(O   3,H  30,H   5)           12.6392         0.093968   
    200. A(O   3,H  30,O  31)          115.4054         0.122223   
    201. A(H  45,H  30,H  54)           53.3411         0.092760   
    202. A(H   5,H  30,H  54)          121.9070         0.093161   
    203. A(O  31,H  30,H  54)           89.1774         0.116830   
    204. A(H  45,H  30,H  53)           50.3195         0.093125   
    205. A(H   5,H  30,H  53)           70.1073         0.093566   
    206. A(H  30,O  31,H  32)          104.3429         0.319780   
    207. A(H   5,O  31,H  54)          102.3004         0.096357   
    208. A(H   5,O  31,H  45)           61.9136         0.096753   
    209. A(H   5,O  31,H  32)          152.8834         0.128326   
    210. A(H   5,O  31,H  30)           49.6520         0.128322   
    211. A(H  45,O  31,H  54)           49.8393         0.097513   
    212. A(H  32,O  31,H  54)           56.0396         0.132178   
    213. A(H  30,O  31,H  54)           71.9304         0.132174   
    214. A(H  32,O  31,H  45)          104.1305         0.134505   
    215. A(H  30,O  31,H  45)           67.3715         0.134501   
    216. A(O  31,H  32,H  54)          105.8086         0.123681   
    217. A(H  45,H  32,H  54)           48.3144         0.091864   
    218. A(O  31,H  32,H  45)           59.3381         0.108062   
    219. A(O  34,H  33,O  52)          162.8775         0.196635   
    220. A(H  33,O  34,H  35)          102.7727         0.315834   
    221. A(H  22,H  35,H  23)           37.0219         0.095876   
    222. A(H  22,H  35,O  34)          163.5296         0.126853   
    223. A(O  21,H  35,O  34)          169.7029         0.192148   
    224. A(H  23,H  35,O  34)          146.5650         0.130342   
    225. A(O  21,H  35,H  22)           21.4007         0.106155   
    226. A(O  21,H  35,H  23)           23.5351         0.107737   
    227. L(O  37,H  36,O  52,H  33, 2) 176.5377         0.203506   
    228. L(O  37,H  36,O  52,H  33, 1) 177.8578         0.203506   
    229. A(H  36,O  37,H  38)          104.7648         0.316594   
    230. A(H  39,O  40,H  41)          106.1629         0.315879   
    231. A(H  27,O  40,H  41)          110.3636         0.208055   
    232. A(H  27,O  40,H  39)          112.8049         0.210484   
    233. A(H   1,H  41,H   2)           42.9070         0.099462   
    234. A(O   0,H  41,H   1)           25.8978         0.113807   
    235. A(H   1,H  41,O  40)          148.0225         0.135791   
    236. A(O   0,H  41,H   2)           27.3325         0.115357   
    237. A(H   2,H  41,O  40)          150.9944         0.138715   
    238. A(O   0,H  41,O  40)          173.2940         0.206878   
    239. A(H  23,H  42,C  43)          143.8895         0.123652   
    240. A(O   6,H  42,H   8)           18.2911         0.093207   
    241. A(H   8,H  42,H  23)          101.2240         0.092757   
    242. A(H   8,H  42,C  43)           93.4436         0.110947   
    243. A(O   6,H  42,H   7)           17.7917         0.095009   
    244. A(O   6,H  42,H  23)           88.2894         0.095642   
    245. A(O   6,H  42,C  43)          111.2686         0.127806   
    246. A(H   7,H  42,H  23)           94.5841         0.094366   
    247. A(H   7,H  42,C  43)          113.3737         0.120348   
    248. A(H   7,H  42,H   8)           30.0966         0.092398   
    249. A(H  42,C  43,H  45)          108.3303         0.291843   
    250. A(H   7,C  43,H   8)           27.1202         0.094582   
    251. A(H   8,C  43,H  30)           94.9504         0.094147   
    252. A(H   8,C  43,N  46)          152.8637         0.126470   
    253. A(H   8,C  43,H  45)           54.1877         0.121483   
    254. A(H   8,C  43,H  42)           67.2849         0.121419   
    255. A(H   7,C  43,H  30)          108.7899         0.094534   
    256. A(H   7,C  43,C  48)          117.4900         0.129823   
    257. A(H   7,C  43,N  46)          129.3867         0.129286   
    258. A(H   7,C  43,H  45)           61.0453         0.123924   
    259. A(H   7,C  43,H  42)           48.4608         0.123856   
    260. A(H   8,C  43,C  48)           93.9050         0.126970   
    261. A(H  30,C  43,C  48)           85.1557         0.126645   
    262. A(H  30,C  43,N  46)           81.9260         0.126150   
    263. A(H  30,C  43,H  45)           47.9803         0.121205   
    264. A(N  46,C  43,C  48)          112.5511         0.363047   
    265. A(H  30,C  43,H  42)          155.9729         0.121142   
    266. A(H  45,C  43,C  48)          110.4244         0.326569   
    267. A(H  42,C  43,C  48)          111.1167         0.326106   
    268. A(H  45,C  43,N  46)          107.9574         0.323445   
    269. A(H  42,C  43,N  46)          106.2641         0.322989   
    270. A(O   9,H  44,N  46)          159.7167         0.194356   
    271. A(H  30,H  45,C  43)          114.6228         0.118255   
    272. A(O   6,H  45,H   7)           16.6690         0.093173   
    273. A(O   6,H  45,H   8)           16.3843         0.093329   
    274. A(O   6,H  45,O  31)          121.2374         0.095865   
    275. A(O   6,H  45,H  30)          139.5983         0.093704   
    276. A(O   6,H  45,C  43)           98.8822         0.121676   
    277. A(O   6,H  45,H  32)          121.4115         0.091876   
    278. A(H   7,H  45,H   8)           31.3687         0.092439   
    279. A(H   7,H  45,H  32)          134.8897         0.091285   
    280. A(H   7,H  45,O  31)          130.4063         0.094454   
    281. A(H   7,H  45,H  30)          145.4086         0.092737   
    282. A(H   7,H  45,C  43)           99.4230         0.114958   
    283. A(H   8,H  45,H  32)          105.0580         0.091370   
    284. A(H   8,H  45,O  31)          105.3815         0.094657   
    285. A(H   8,H  45,H  30)          124.2564         0.092875   
    286. A(H   8,H  45,C  43)          107.4688         0.115923   
    287. A(O  31,H  45,H  32)           16.5314         0.092758   
    288. A(H  30,H  45,H  32)           27.2865         0.091575   
    289. A(H  32,H  45,C  43)          109.4038         0.106887   
    290. A(H  30,H  45,O  31)           19.2849         0.095147   
    291. A(O  31,H  45,C  43)          123.6679         0.131702   
    292. A(H  44,N  46,H  53)          109.2541         0.297447   
    293. A(C  43,N  46,H  53)          111.9238         0.328077   
    294. A(H  44,N  46,H  51)          110.3874         0.294776   
    295. A(C  43,N  46,H  51)          107.9143         0.325014   
    296. A(C  43,N  46,H  44)          108.9104         0.324795   
    297. A(H  51,N  46,H  53)          108.4435         0.297640   
    298. A(H   8,H  47,C  48)          119.0692         0.110485   
    299. A(H  47,C  48,C  50)          110.0489         0.325157   
    300. A(C  43,C  48,C  50)          113.2718         0.365652   
    301. A(C  43,C  48,H  47)          107.8831         0.326050   
    302. A(C  50,C  48,H  54)          108.1300         0.324197   
    303. A(H  47,C  48,H  54)          107.6401         0.290529   
    304. A(C  43,C  48,H  54)          109.7261         0.325086   
    305. A(H  14,O  49,H  19)           83.4111         0.138813   
    306. A(H  14,O  49,C  50)          106.6061         0.226331   
    307. A(H  19,O  49,C  50)          141.3028         0.232918   
    308. A(O  49,C  50,O  52)          124.6785         0.490823   
    309. A(C  48,C  50,O  52)          119.1482         0.423899   
    310. A(C  48,C  50,O  49)          116.1688         0.419685   
    311. A(H  33,O  52,H  36)           94.5948         0.143799   
    312. A(H  33,O  52,C  50)          110.4057         0.233409   
    313. A(H  36,O  52,C  50)          118.1169         0.243422   
    314. A(H  30,H  53,N  46)          126.5797         0.118221   
    315. A(H  32,H  54,C  48)          133.3316         0.121342   
    316. A(H  30,H  54,O  31)           18.8922         0.094207   
    317. A(O  31,H  54,H  32)           18.1518         0.095488   
    318. A(O  31,H  54,C  48)          120.0861         0.129265   
    319. A(H  30,H  54,H  32)           32.3078         0.093182   
    320. A(H  30,H  54,C  48)          120.4317         0.114955   
    321. D(H  41,H   1,O   0,H   2)    102.0623         0.318565   
    322. D(O  15,H   1,O   0,H   2)    173.5676         0.318565   
    323. D(O  15,H   1,O   0,H  41)     71.5053         0.318565   
    324. D(H  26,H   2,O   0,H   1)   -132.0911         0.349177   
    325. D(H  26,H   2,O   0,H  41)    -26.2180         0.349177   
    326. D(O  24,H   2,O   0,H  41)    -54.1963         0.349177   
    327. D(H  41,H   2,O   0,H   1)   -105.8731         0.349177   
    328. D(O  24,H   2,O   0,H   1)   -160.0695         0.349177   
    329. D(H  30,H   5,O   3,H   4)     60.3663         0.432150   
    330. D(H  30,H   5,O   3,H  25)    -92.3585         0.432150   
    331. D(H  25,H   5,O   3,H  30)     92.3585         0.432150   
    332. D(O  31,H   5,O   3,H   4)     37.9896         0.432150   
    333. D(H  25,H   5,O   3,H   4)    152.7249         0.432150   
    334. D(O  31,H   5,O   3,H  25)   -114.7352         0.432150   
    335. D(H  45,H   7,O   6,H   8)     29.9520         0.428355   
    336. D(H  42,H   7,O   6,H   8)     68.9376         0.428355   
    337. D(C  43,H   7,O   6,H   8)     50.1673         0.428355   
    338. D(C  43,H   7,O   6,H  42)    -18.7703         0.428355   
    339. D(H  42,H   7,O   6,H  45)     38.9856         0.428355   
    340. D(H  45,H   7,O   6,H  42)    -38.9856         0.428355   
    341. D(H  47,H   8,O   6,H  42)    -32.5620         0.459595   
    342. D(H  47,H   8,O   6,H   7)    -83.8375         0.459595   
    343. D(H  45,H   8,O   6,H  42)     20.2463         0.459595   
    344. D(H  42,H   8,O   6,H   7)    -51.2755         0.459595   
    345. D(H  47,H   8,O   6,H  45)    -52.8083         0.459595   
    346. D(H  42,H   8,O   6,H  45)    -20.2463         0.459595   
    347. D(H  45,H   8,O   6,H   7)    -31.0292         0.459595   
    348. D(O  49,H  14,O  12,H  13)     66.7930         0.267835   
    349. D(H  16,O  15,H   1,H  41)    -34.3288         0.001871   
    350. D(H  16,O  15,H   1,O   0)    -97.5234         0.001871   
    351. D(H  17,O  15,H   1,O   0)    116.1334         0.001871   
    352. D(H  17,O  15,H   1,H  41)    179.3280         0.001871   
    353. D(H  19,H  16,O  15,H   1)    -56.2807         0.351457   
    354. D(H  20,H  16,O  15,H  17)    173.5412         0.351457   
    355. D(H  19,H  16,O  15,H  17)     93.6172         0.351457   
    356. D(O  18,H  16,O  15,H   1)     52.4696         0.351457   
    357. D(O  18,H  16,O  15,H  17)   -157.6325         0.351457   
    358. D(H  19,O  18,H  16,H  20)   -103.5048         0.001621   
    359. D(H  19,O  18,H  16,O  15)   -153.2994         0.001621   
    360. D(H  20,O  18,H  16,H  19)    103.5048         0.001621   
    361. D(H  20,O  18,H  16,O  15)    -49.7946         0.001621   
    362. D(O  49,H  19,H  16,O  15)    -42.7584         0.001543   
    363. D(O  49,H  19,O  18,H  16)      8.1173         0.338245   
    364. D(O  49,H  19,O  18,H  20)    -89.5366         0.338245   
    365. D(H  16,H  19,O  18,H  20)    -97.6539         0.338245   
    366. D(O  49,H  19,H  16,O  18)   -175.9069         0.001543   
    367. D(O  49,H  19,H  16,H  20)   -137.4924         0.001543   
    368. D(O  18,H  19,H  16,H  20)     38.4145         0.001543   
    369. D(O  18,H  19,H  16,O  15)    133.1485         0.001543   
    370. D(H  27,H  20,O  18,H  16)     24.9303         0.367875   
    371. D(H  29,H  20,O  18,H  16)    -84.8490         0.367875   
    372. D(H  29,H  20,H  16,O  18)    151.6846         0.001507   
    373. D(H  16,H  20,O  18,H  19)     84.2770         0.367875   
    374. D(H  29,H  20,O  18,H  19)     -0.5720         0.367875   
    375. D(O  28,H  20,H  16,H  19)    133.7984         0.001507   
    376. D(O  18,H  20,H  16,O  15)    155.3524         0.001507   
    377. D(O  18,H  20,H  16,H  19)    -44.2291         0.001507   
    378. D(H  27,H  20,O  18,H  19)    109.2074         0.367875   
    379. D(O  28,H  20,H  16,O  18)    178.0275         0.001507   
    380. D(H  29,H  20,H  16,O  15)    -52.9630         0.001507   
    381. D(O  28,H  20,H  16,O  15)    -26.6201         0.001507   
    382. D(H  35,H  22,O  21,H  23)    111.6951         0.325483   
    383. D(H  35,H  23,O  21,H  22)   -117.4920         0.362082   
    384. D(H  42,H  23,O  21,H  22)    -25.4120         0.362082   
    385. D(H  42,H  23,O  21,H  35)     92.0800         0.362082   
    386. D(H  25,O  24,H   2,H  26)    122.1365         0.001863   
    387. D(H  26,O  24,H   2,O   0)     46.0994         0.001863   
    388. D(H  25,O  24,H   2,H  41)    121.9187         0.001863   
    389. D(H  26,O  24,H   2,H  41)     -0.2178         0.001863   
    390. D(H  25,O  24,H   2,O   0)    168.2360         0.001863   
    391. D(H   5,H  25,O  24,H   2)     65.0331         0.319195   
    392. D(H   5,H  25,O  24,H  26)   -172.9268         0.319195   
    393. D(O   3,H  25,O  24,H   2)     75.4706         0.319195   
    394. D(O   3,H  25,H   5,O  31)    112.4179         0.001506   
    395. D(O  24,H  25,O   3,H  30)    -53.1816         0.001856   
    396. D(O  24,H  25,O   3,H   5)    -15.3053         0.001856   
    397. D(O  24,H  25,H   5,O   3)    174.4845         0.001506   
    398. D(O  24,H  25,H   5,H  30)    -63.8802         0.001506   
    399. D(O  24,H  25,H   5,O  31)    -73.0976         0.001506   
    400. D(O  24,H  25,O   3,H   4)   -157.0895         0.001856   
    401. D(H   5,H  25,O   3,H   4)   -141.7842         0.001856   
    402. D(O   3,H  25,H   5,H  30)    121.6353         0.001506   
    403. D(H   5,H  25,O   3,H  30)    -37.8763         0.001856   
    404. D(O   3,H  25,O  24,H  26)   -162.4893         0.319195   
    405. D(H   2,H  26,O  24,H  25)   -133.8545         0.332133   
    406. D(O  24,H  26,H   2,H  41)    179.7994         0.001509   
    407. D(O  24,H  26,H   2,O   0)   -158.9260         0.001509   
    408. D(O  40,H  27,H  20,O  18)     12.4418         0.001506   
    409. D(O  28,H  27,H  20,H  16)   -153.9829         0.001506   
    410. D(O  28,H  27,H  20,H  29)    -33.5224         0.001506   
    411. D(O  40,H  27,H  20,O  28)   -172.6284         0.001506   
    412. D(O  40,H  27,H  20,H  29)    153.8492         0.001506   
    413. D(O  28,H  27,H  20,O  18)   -174.9297         0.001506   
    414. D(H  27,O  28,O  18,H  19)    113.4274         0.001501   
    415. D(H  20,O  28,H  27,O  40)     86.4461         0.297219   
    416. D(H  29,O  28,H  20,H  27)   -116.8536         0.001905   
    417. D(H  29,O  28,H  20,H  16)    -86.1859         0.001905   
    418. D(H  29,O  28,H  27,H  20)    119.4246         0.297219   
    419. D(H  27,O  28,H  20,H  16)     30.6677         0.001905   
    420. D(H  27,O  28,H  20,H  29)    116.8536         0.001905   
    421. D(H  29,O  28,H  27,O  40)   -154.1293         0.297219   
    422. D(H  29,O  28,O  18,H  19)     -3.0161         0.001501   
    423. D(H  29,O  28,O  18,H  16)    -86.9622         0.001501   
    424. D(H  27,O  28,O  18,H  16)     29.4813         0.001501   
    425. D(H  20,H  29,O  28,H  27)   -119.6758         0.333918   
    426. D(O  28,H  29,H  20,H  16)    107.4251         0.001507   
    427. D(O  28,H  29,H  20,H  27)     33.9993         0.001507   
    428. D(O  28,H  29,H  20,O  18)    177.3507         0.001507   
    429. D(H  53,H  30,H   5,H  25)    -17.0123         0.001501   
    430. D(H  45,H  30,H   5,O   3)    -14.7833         0.001501   
    431. D(H  53,H  30,H   5,O  31)    138.9924         0.001501   
    432. D(H  45,H  30,H   5,H  25)    -70.4310         0.001501   
    433. D(H  53,H  30,O   3,H   4)     99.2448         0.001500   
    434. D(H  45,H  30,H   5,O  31)     85.5737         0.001501   
    435. D(H  45,H  30,O   3,H  25)    -95.6855         0.001500   
    436. D(H  45,H  30,O   3,H   5)    163.6850         0.001500   
    437. D(O  31,H  30,H   5,O   3)   -100.3571         0.001501   
    438. D(O  31,H  30,H   5,H  25)   -156.0047         0.001501   
    439. D(H  45,H  30,O   3,H   4)     40.4991         0.001500   
    440. D(H  54,H  30,H   5,O   3)      4.4463         0.001501   
    441. D(H   5,H  30,O   3,H  25)    100.6295         0.001500   
    442. D(H   5,H  30,O   3,H   4)   -123.1859         0.001500   
    443. D(H  53,H  30,H   5,O   3)     38.6353         0.001501   
    444. D(O  31,H  30,O   3,H  25)   -173.9700         0.001500   
    445. D(O  31,H  30,O   3,H   5)     85.4005         0.001500   
    446. D(O  31,H  30,O   3,H   4)    -37.7854         0.001500   
    447. D(H  30,O  31,H   5,O   3)     94.7277         0.001500   
    448. D(H  32,O  31,H  30,C  43)     84.6054         0.540188   
    449. D(H  45,O  31,H  30,H  54)    -53.2039         0.540188   
    450. D(H  45,O  31,H  30,H  53)    -15.9915         0.540188   
    451. D(H  45,O  31,H  30,H   5)     71.6296         0.540188   
    452. D(H  32,O  31,H  30,O   3)    157.4235         0.540188   
    453. D(H  32,O  31,H  30,H  54)     46.3757         0.540188   
    454. D(H  32,O  31,H  30,H  53)     83.5881         0.540188   
    455. D(H  32,O  31,H  30,H  45)     99.5796         0.540188   
    456. D(H  32,O  31,H  30,H   5)    171.2092         0.540188   
    457. D(H  45,O  31,H   5,H  25)    -53.6930         0.001500   
    458. D(H  45,O  31,H   5,O   3)     11.5563         0.001500   
    459. D(H  32,O  31,H   5,H  30)    -18.9561         0.001500   
    460. D(H  32,O  31,H   5,H  25)     10.5224         0.001500   
    461. D(H  32,O  31,H   5,O   3)     75.7717         0.001500   
    462. D(H  45,O  31,H  30,O   3)     57.8439         0.540188   
    463. D(H  30,O  31,H   5,H  25)     29.4785         0.001500   
    464. D(H  45,H  32,O  31,H   5)    -55.0034         0.429511   
    465. D(H  45,H  32,O  31,H  54)    -13.7403         0.429511   
    466. D(H  45,H  32,O  31,H  30)    -69.8088         0.429511   
    467. D(H  54,H  32,O  31,H   5)    -41.2631         0.429511   
    468. D(H  54,H  32,O  31,H  45)     13.7403         0.429511   
    469. D(H  54,H  32,O  31,H  30)    -56.0685         0.429511   
    470. D(H  35,O  34,H  33,O  52)     14.8672         0.257647   
    471. D(H  22,H  35,O  34,H  33)     88.1421         0.336845   
    472. D(H  22,H  35,H  23,H  42)   -115.2082         0.001505   
    473. D(H  22,H  35,H  23,O  21)     34.1138         0.001505   
    474. D(H  23,H  35,H  22,O  21)    -37.8609         0.001502   
    475. D(O  34,H  35,O  21,H  23)     18.8779         0.001642   
    476. D(O  34,H  35,O  21,H  22)    131.1390         0.001642   
    477. D(H  23,H  35,O  21,H  22)    112.2611         0.001642   
    478. D(H  22,H  35,O  21,H  23)   -112.2611         0.001642   
    479. D(O  34,H  35,H  23,O  21)   -173.9748         0.001505   
    480. D(O  34,H  35,H  23,H  42)     36.7032         0.001505   
    481. D(O  34,H  35,H  22,O  21)   -151.6525         0.001502   
    482. D(O  21,H  35,O  34,H  33)    -16.1023         0.336845   
    483. D(H  23,H  35,O  34,H  33)     -2.5411         0.336845   
    484. D(O  21,H  35,H  23,H  42)   -149.3220         0.001505   
    485. D(H  41,O  40,H  27,H  20)    -43.7030         0.002035   
    486. D(H  41,O  40,H  27,O  28)   -125.0604         0.002035   
    487. D(H  39,O  40,H  27,H  20)   -162.2689         0.002035   
    488. D(H  39,O  40,H  27,O  28)    116.3737         0.002035   
    489. D(H   1,H  41,O  40,H  39)    139.6614         0.322071   
    490. D(H   2,H  41,O  40,H  27)    -74.9858         0.322071   
    491. D(H   2,H  41,O  40,H  39)     47.5633         0.322071   
    492. D(O   0,H  41,O  40,H  39)    117.1304         0.322071   
    493. D(O   0,H  41,O  40,H  27)     -5.4186         0.322071   
    494. D(O   0,H  41,H   2,O  24)    163.8568         0.001530   
    495. D(O  40,H  41,H   2,H  26)    -30.0206         0.001530   
    496. D(O  40,H  41,H   2,O  24)    -29.9309         0.001530   
    497. D(O  40,H  41,H   2,O   0)    166.2123         0.001530   
    498. D(H   2,H  41,H   1,O  15)    154.4780         0.001516   
    499. D(H   2,H  41,H   1,O   0)    -39.4977         0.001516   
    500. D(O   0,H  41,H   1,O  15)   -166.0243         0.001516   
    501. D(O   0,H  41,H   2,H  26)    163.7671         0.001530   
    502. D(H   1,H  41,H   2,O   0)     37.2314         0.001530   
    503. D(O  40,H  41,H   1,O  15)     19.8559         0.001516   
    504. D(O  40,H  41,H   1,O   0)   -174.1198         0.001516   
    505. D(H   1,H  41,O   0,H   2)   -109.4214         0.002033   
    506. D(H   2,H  41,O   0,H   1)    109.4214         0.002033   
    507. D(O  40,H  41,O   0,H   1)     27.6853         0.002033   
    508. D(O  40,H  41,O   0,H   2)    -81.7362         0.002033   
    509. D(H   8,H  42,H  23,O  21)    154.1102         0.001502   
    510. D(O   6,H  42,H  23,O  21)    141.1041         0.001502   
    511. D(H   7,H  42,H  23,H  35)   -161.6607         0.001502   
    512. D(H   7,H  42,H  23,O  21)    124.4495         0.001502   
    513. D(C  43,H  42,H   8,O   6)    167.3799         0.001500   
    514. D(H   7,H  42,H   8,O   6)     33.8483         0.001500   
    515. D(H  23,H  42,H   8,H  45)    169.2319         0.001500   
    516. D(H  23,H  42,H   8,O   6)    -45.7885         0.001500   
    517. D(H   7,H  42,H   8,H  45)   -111.1312         0.001500   
    518. D(C  43,H  42,H  23,O  21)    -93.8078         0.001502   
    519. D(C  43,H  42,H  23,H  35)    -19.9180         0.001502   
    520. D(H   8,H  42,H   7,O   6)    -34.8971         0.001501   
    521. D(H  23,H  42,H   8,C  43)    146.8316         0.001500   
    522. D(O   6,H  42,H   7,C  43)     86.9319         0.001501   
    523. D(O   6,H  42,H   7,H  45)     94.5749         0.001501   
    524. D(H  23,H  42,H   7,C  43)    156.5754         0.001501   
    525. D(C  43,H  42,H   8,H  45)     22.4003         0.001500   
    526. D(C  43,H  42,H   8,H  47)    -52.9806         0.001500   
    527. D(H  23,H  42,H   7,H  45)    164.2185         0.001501   
    528. D(H  23,H  42,H   8,H  47)     93.8511         0.001500   
    529. D(H  23,H  42,H   7,O   6)     69.6436         0.001501   
    530. D(C  43,H  42,H   7,H  45)      7.6431         0.001501   
    531. D(H   7,H  42,O   6,H  45)    -82.0720         0.001500   
    532. D(H   7,H  42,O   6,H   8)   -113.9208         0.001500   
    533. D(H  23,H  42,O   6,H  45)    167.1504         0.001500   
    534. D(H  23,H  42,O   6,H   8)    135.3016         0.001500   
    535. D(H  23,H  42,O   6,H   7)   -110.7776         0.001500   
    536. D(C  43,H  42,H   7,O   6)    -86.9319         0.001501   
    537. D(C  43,H  42,O   6,H  45)     18.3143         0.001500   
    538. D(O   6,H  42,H  23,H  35)   -145.0062         0.001502   
    539. D(C  43,H  42,O   6,H   8)    -13.5345         0.001500   
    540. D(C  43,H  42,O   6,H   7)    100.3863         0.001500   
    541. D(H  45,C  43,H  42,O   6)    -31.9832         0.190992   
    542. D(H  45,C  43,H  42,H   7)    -12.8710         0.190992   
    543. D(H  45,C  43,H  42,H  23)   -150.6191         0.190992   
    544. D(H  45,C  43,H  30,O   3)    -53.0955         0.001500   
    545. D(H  45,C  43,H  30,H  54)    133.1006         0.001500   
    546. D(H  45,C  43,H  30,H  53)   -121.3668         0.001500   
    547. D(H  45,C  43,H  30,O  31)     59.6228         0.001500   
    548. D(H  42,C  43,H  30,O   3)    -42.0536         0.001500   
    549. D(H  42,C  43,H  30,H  54)    144.1426         0.001500   
    550. D(H  42,C  43,H  30,H  53)   -110.3249         0.001500   
    551. D(H  42,C  43,H  30,H  45)     11.0419         0.001500   
    552. D(H  42,C  43,H  30,H   5)    -42.0018         0.001500   
    553. D(H  42,C  43,H  30,O  31)     70.6647         0.001500   
    554. D(N  46,C  43,H   8,H  47)   -169.8781         0.001500   
    555. D(N  46,C  43,H   8,H  42)     81.3087         0.001500   
    556. D(N  46,C  43,H   8,H  45)    -54.9508         0.001500   
    557. D(N  46,C  43,H   8,O   6)     68.7150         0.001500   
    558. D(H  45,C  43,H   8,H  47)   -114.9273         0.001500   
    559. D(H  45,C  43,H   8,H  42)    136.2594         0.001500   
    560. D(H  45,C  43,H   8,O   6)    123.6658         0.001500   
    561. D(H  42,C  43,H   8,H  47)    108.8132         0.001500   
    562. D(H  42,C  43,H   8,H  45)   -136.2594         0.001500   
    563. D(H  42,C  43,H   8,O   6)    -12.5936         0.001500   
    564. D(C  48,C  43,H   7,H  42)    -94.6796         0.001500   
    565. D(C  48,C  43,H   7,O   6)      3.4613         0.001500   
    566. D(H  45,C  43,H  30,H   5)    -53.0437         0.001500   
    567. D(N  46,C  43,H   7,H  45)    -90.0943         0.001500   
    568. D(N  46,C  43,H   7,H  42)     75.9211         0.001500   
    569. D(N  46,C  43,H   7,O   6)    174.0620         0.001500   
    570. D(N  46,C  43,H  30,O  31)   -177.2176         0.001500   
    571. D(H  45,C  43,H   7,H  42)    166.0154         0.001500   
    572. D(H  45,C  43,H   7,O   6)    -95.8437         0.001500   
    573. D(H  42,C  43,H   7,H  45)   -166.0154         0.001500   
    574. D(H  45,C  43,H  42,H   8)    -36.2030         0.190992   
    575. D(H  42,C  43,H   7,O   6)     98.1409         0.001500   
    576. D(C  48,C  43,H  42,O   6)     89.4859         0.190992   
    577. D(C  48,C  43,H  42,H   7)    108.5981         0.190992   
    578. D(C  48,C  43,H  42,H  23)    -29.1500         0.190992   
    579. D(N  46,C  43,H  42,H   8)   -151.9874         0.190992   
    580. D(N  46,C  43,H  42,O   6)   -147.7676         0.190992   
    581. D(N  46,C  43,H  42,H   7)   -128.6554         0.190992   
    582. D(N  46,C  43,H  42,H  23)     93.5965         0.190992   
    583. D(N  46,H  44,O   9,H  11)   -167.3290         0.001725   
    584. D(N  46,H  44,O   9,H  10)    -40.4825         0.001725   
    585. D(H  32,H  45,C  43,N  46)    -89.5577         0.211514   
    586. D(H  32,H  45,C  43,H  42)    155.7642         0.211514   
    587. D(O  31,H  45,C  43,H   8)    122.9383         0.211514   
    588. D(O  31,H  45,C  43,H   7)    154.1639         0.211514   
    589. D(O  31,H  45,C  43,H  30)    -19.5634         0.211514   
    590. D(O  31,H  45,C  43,C  48)     43.2544         0.211514   
    591. D(O  31,H  45,C  43,H  42)    165.1489         0.211514   
    592. D(H  30,H  45,C  43,H   8)    142.5017         0.211514   
    593. D(H  30,H  45,C  43,H   7)    173.7272         0.211514   
    594. D(H  30,H  45,C  43,N  46)    -60.6096         0.211514   
    595. D(H  30,H  45,C  43,H  42)   -175.2877         0.211514   
    596. D(H   7,H  45,H  32,H  54)    115.9091         0.001500   
    597. D(H   8,H  45,H  32,H  54)    104.4424         0.001500   
    598. D(H   8,H  45,H  32,O  31)    -93.3772         0.001500   
    599. D(O  31,H  45,H  32,H  54)   -162.1804         0.001500   
    600. D(H  30,H  45,H  32,H  54)   -116.9702         0.001500   
    601. D(H  30,H  45,H  32,O  31)     45.2102         0.001500   
    602. D(C  43,H  45,H  32,H  54)    -10.6667         0.001500   
    603. D(C  43,H  45,H  32,O  31)    151.5137         0.001500   
    604. D(H  32,H  45,O  31,H   5)    154.9615         0.001500   
    605. D(H  32,H  45,O  31,H  54)     14.9384         0.001500   
    606. D(H  32,H  45,O  31,H  30)     99.8936         0.001500   
    607. D(H  30,H  45,O  31,H  54)    -84.9551         0.001500   
    608. D(H  30,H  45,O  31,H  32)    -99.8936         0.001500   
    609. D(C  43,H  45,O  31,H   5)    122.2423         0.001500   
    610. D(C  43,H  45,O  31,H  32)    -32.7192         0.001500   
    611. D(C  43,H  45,O  31,H  30)     67.1744         0.001500   
    612. D(H  32,H  45,H  30,H  53)    129.5352         0.001501   
    613. D(H  32,H  45,H  30,H   5)   -151.6119         0.001501   
    614. D(H  32,H  45,H  30,O  31)    -37.6938         0.001501   
    615. D(O  31,H  45,H  30,C  43)    122.4545         0.001501   
    616. D(O  31,H  45,H  30,O   3)   -117.6270         0.001501   
    617. D(O  31,H  45,H  30,H  54)     86.4793         0.001501   
    618. D(O  31,H  45,H  30,H  53)    167.2289         0.001501   
    619. D(O  31,H  45,H  30,H   5)   -113.9182         0.001501   
    620. D(C  43,H  45,H  30,O   3)    119.9185         0.001501   
    621. D(C  43,H  45,H  30,H  54)    -35.9752         0.001501   
    622. D(C  43,H  45,H  30,H  53)     44.7744         0.001501   
    623. D(C  43,H  45,H  30,H   5)    123.6273         0.001501   
    624. D(C  43,H  45,H  30,O  31)   -122.4545         0.001501   
    625. D(O  31,H  45,H   8,C  43)   -133.5784         0.001500   
    626. D(O  31,H  45,H   8,H  47)    -84.6543         0.001500   
    627. D(O  31,H  45,H   8,H  42)   -157.1340         0.001500   
    628. D(O  31,H  45,H   8,O   6)    166.1905         0.001500   
    629. D(H  30,H  45,H   8,C  43)   -137.9691         0.001500   
    630. D(C  43,H  45,O  31,H  54)    -17.7808         0.001500   
    631. D(H  30,H  45,H   8,H  47)    -89.0450         0.001500   
    632. D(H  30,H  45,H   8,H  42)   -161.5247         0.001500   
    633. D(H  30,H  45,H   8,O   6)    161.7997         0.001500   
    634. D(H  30,H  45,O  31,H   5)     55.0680         0.001500   
    635. D(C  43,H  45,H   8,H  47)     48.9240         0.001500   
    636. D(C  43,H  45,H   8,H  42)    -23.5557         0.001500   
    637. D(C  43,H  45,H   8,O   6)    -60.2312         0.001500   
    638. D(H   8,H  45,O  31,H  30)   -168.9542         0.001500   
    639. D(H  32,H  45,H   7,H  42)   -136.9663         0.001500   
    640. D(H  32,H  45,H   7,O   6)    -40.3354         0.001500   
    641. D(O  31,H  45,H   7,C  43)   -151.5548         0.001500   
    642. D(O  31,H  45,H   7,H  42)   -158.6792         0.001500   
    643. D(O  31,H  45,H   7,O   6)    -62.0483         0.001500   
    644. D(H  30,H  45,H   7,C  43)   -169.9238         0.001500   
    645. D(H  30,H  45,H   7,H  42)   -177.0482         0.001500   
    646. D(H   7,H  45,H  32,O  31)    -81.9104         0.001500   
    647. D(H  30,H  45,H   7,O   6)    -80.4173         0.001500   
    648. D(C  43,H  45,H   7,H  42)     -7.1244         0.001500   
    649. D(C  43,H  45,H   7,O   6)     89.5065         0.001500   
    650. D(H  30,H  45,C  43,C  48)     62.8178         0.211514   
    651. D(H  32,H  45,O   6,H   7)    147.4995         0.001500   
    652. D(O  31,H  45,O   6,H  42)   -155.9585         0.001500   
    653. D(O  31,H  45,O   6,H   8)    -15.6148         0.001500   
    654. D(O  31,H  45,C  43,N  46)    -80.1730         0.211514   
    655. D(O  31,H  45,O   6,H   7)    128.1232         0.001500   
    656. D(H  30,H  45,O   6,H  42)   -163.8159         0.001500   
    657. D(H  30,H  45,O   6,H   8)    -23.4721         0.001500   
    658. D(H  30,H  45,O   6,H   7)    120.2658         0.001500   
    659. D(C  43,H  45,O   6,H  42)    -17.2788         0.001500   
    660. D(C  43,H  45,O   6,H   8)    123.0650         0.001500   
    661. D(C  43,H  45,O   6,H   7)    -93.1971         0.001500   
    662. D(H  53,N  46,H  44,O   9)   -139.3706         0.224244   
    663. D(H  51,N  46,H  44,O   9)    101.4646         0.224244   
    664. D(C  43,N  46,H  44,O   9)    -16.8420         0.224244   
    665. D(H  51,N  46,C  43,H   7)   -136.3137         0.016552   
    666. D(H  51,N  46,C  43,H  30)    115.9609         0.016552   
    667. D(H  51,N  46,C  43,C  48)     34.6610         0.016552   
    668. D(H  51,N  46,C  43,H  45)    156.7881         0.016552   
    669. D(H  51,N  46,C  43,H  42)    -87.1761         0.016552   
    670. D(H  44,N  46,C  43,H   8)    -39.1038         0.016552   
    671. D(H  44,N  46,C  43,H   7)    -16.4626         0.016552   
    672. D(H  44,N  46,C  43,H  30)   -124.1880         0.016552   
    673. D(H  44,N  46,C  43,C  48)    154.5121         0.016552   
    674. D(H  44,N  46,C  43,H  45)    -83.3608         0.016552   
    675. D(H  44,N  46,C  43,H  42)     32.6751         0.016552   
    676. D(C  48,H  47,H   8,C  43)      3.9379         0.001500   
    677. D(C  48,H  47,H   8,H  42)     28.7636         0.001500   
    678. D(C  48,H  47,H   8,H  45)    -18.2717         0.001500   
    679. D(C  48,H  47,H   8,O   6)     74.2302         0.001500   
    680. D(H  54,C  48,H  47,H   8)    112.7262         0.123138   
    681. D(C  50,C  48,H  47,H   8)   -129.6516         0.123138   
    682. D(C  43,C  48,H  47,H   8)     -5.6177         0.123138   
    683. D(C  50,C  48,C  43,N  46)    -59.5285         0.013758   
    684. D(C  50,C  48,C  43,H  45)    179.7499         0.013758   
    685. D(C  50,C  48,C  43,H  42)     59.5138         0.013758   
    686. D(H  47,C  48,C  43,H   8)      4.5834         0.013758   
    687. D(H  47,C  48,C  43,H   7)     -9.4503         0.013758   
    688. D(H  47,C  48,C  43,H  30)     99.2305         0.013758   
    689. D(H  47,C  48,C  43,N  46)    178.4050         0.013758   
    690. D(H  47,C  48,C  43,H  45)     57.6835         0.013758   
    691. D(H  47,C  48,C  43,H  42)    -62.5526         0.013758   
    692. D(H  14,O  49,H  19,H  16)    -75.3123         0.001734   
    693. D(H  14,O  49,H  19,O  18)    -83.0344         0.001734   
    694. D(C  50,O  49,H  19,H  16)    176.2688         0.001734   
    695. D(C  50,O  49,H  19,O  18)    168.5467         0.001734   
    696. D(H  19,O  49,H  14,O  12)    163.8006         0.001640   
    697. D(C  50,O  49,H  14,O  12)    -54.4420         0.001640   
    698. D(O  52,C  50,O  49,H  14)    -63.3709         0.072873   
    699. D(O  52,C  50,O  49,H  19)     37.0436         0.072873   
    700. D(C  48,C  50,O  49,H  14)    115.8512         0.072873   
    701. D(C  48,C  50,O  49,H  19)   -143.7343         0.072873   
    702. D(O  52,C  50,C  48,H  47)     -6.1305         0.010636   
    703. D(O  52,C  50,C  48,C  43)   -126.9803         0.010636   
    704. D(O  49,C  50,C  48,H  54)    -68.0800         0.010636   
    705. D(O  49,C  50,C  48,H  47)    174.6019         0.010636   
    706. D(O  49,C  50,C  48,C  43)     53.7522         0.010636   
    707. D(H  33,O  52,C  50,O  49)    -35.6788         0.075969   
    708. D(H  33,O  52,C  50,C  48)    145.1206         0.075969   
    709. D(H  36,O  52,C  50,O  49)   -142.8775         0.075969   
    710. D(H  36,O  52,C  50,C  48)     37.9219         0.075969   
    711. D(H  33,O  52,O  37,H  38)    -10.5521         0.001501   
    712. D(C  50,O  52,O  37,H  38)    104.9006         0.001501   
    713. D(H  36,O  52,H  33,O  34)     40.6670         0.001678   
    714. D(C  50,O  52,H  33,O  34)    -81.6325         0.001678   
    715. D(H  30,H  53,N  46,H  51)   -114.0209         0.261418   
    716. D(H  30,H  53,N  46,H  44)    125.6162         0.261418   
    717. D(H  30,H  53,N  46,C  43)      4.9099         0.261418   
    718. D(N  46,H  53,H  30,C  43)     -3.2547         0.001500   
    719. D(N  46,H  53,H  30,O   3)    -96.1151         0.001500   
    720. D(N  46,H  53,H  30,H  54)     41.9014         0.001500   
    721. D(N  46,H  53,H  30,H  45)    -22.6277         0.001500   
    722. D(N  46,H  53,H  30,H   5)   -105.1479         0.001500   
    723. D(N  46,H  53,H  30,O  31)     -1.6899         0.001500   
    724. D(H  30,H  54,C  48,C  50)    148.2432         0.138597   
    725. D(H  30,H  54,C  48,H  47)    -92.8982         0.138597   
    726. D(H  30,H  54,C  48,C  43)     24.2526         0.138597   
    727. D(H  32,H  54,C  48,H  47)    -55.4032         0.138597   
    728. D(H  32,H  54,C  48,C  43)     61.7477         0.138597   
    729. D(O  31,H  54,H  32,H  45)     15.8777         0.001501   
    730. D(H  30,H  54,H  32,O  31)     30.8134         0.001501   
    731. D(C  48,H  54,H  32,H  45)    -32.4149         0.001501   
    732. D(C  48,H  54,H  32,O  31)    -48.2926         0.001501   
    733. D(H  32,H  54,O  31,H   5)    162.0810         0.001500   
    734. D(H  32,H  54,O  31,H  45)   -162.4588         0.001500   
    735. D(H  32,H  54,O  31,H  30)    122.2695         0.001500   
    736. D(C  48,H  54,O  31,H   5)    -56.7917         0.001500   
    737. D(C  48,H  54,O  31,H  45)    -21.3314         0.001500   
    738. D(C  48,H  54,O  31,H  32)    141.1274         0.001500   
    739. D(C  48,H  54,O  31,H  30)    -96.6031         0.001500   
    740. D(H  32,H  54,H  30,H  45)   -124.3128         0.001500   
    741. D(H  32,H  54,H  30,H   5)   -147.2760         0.001500   
    742. D(H  30,H  54,H  32,H  45)     46.6911         0.001501   
    743. D(H  32,H  54,H  30,O  31)    -29.5288         0.001500   
    744. D(C  48,H  54,H  30,C  43)    -16.0404         0.001500   
    745. D(C  48,H  54,H  30,O   3)    -22.1823         0.001500   
    746. D(H  32,H  54,C  48,C  50)   -174.2618         0.138597   
    747. D(C  48,H  54,H  30,H  53)    -60.2609         0.001500   
    748. D(C  48,H  54,H  30,H  45)     -0.2489         0.001500   
    749. D(C  48,H  54,H  30,H   5)    -23.2121         0.001500   
    750. D(C  48,H  54,H  30,O  31)     94.5351         0.001500   
    -----------------------------------------------------------------

Number of atoms                         .... 55
Number of degrees of freedom            .... 750


         *************************************************************
         *                GEOMETRY OPTIMIZATION CYCLE   1            *
         *************************************************************
---------------------------------
CARTESIAN COORDINATES (ANGSTROEM)
---------------------------------
  O      2.730056   -1.039997   -3.489451
  H      2.393565   -0.136957   -3.313682
  H      1.949239   -1.620270   -3.600445
  O     -1.818615   -2.961720   -4.146280
  H     -2.630388   -2.833132   -3.641147
  H     -1.938053   -2.473235   -4.969455
  O     -5.268569   -1.157459   -0.823873
  H     -4.496138   -1.728555   -0.921302
  H     -5.357533   -0.726335   -1.682827
  O     -0.577397   -2.314284   -0.623066
  H     -0.864017   -2.139832    0.283772
  H      0.248712   -2.808414   -0.543122
  O      0.373230    4.912671   -2.601216
  H     -0.441649    5.426858   -2.571611
  H      0.173414    4.113529   -2.082223
  O      2.145976    1.591561   -2.934946
  H      1.883843    1.982015   -2.076928
  H      1.794002    2.180525   -3.612204
  O      1.921531    2.360642   -0.166831
  H      0.972585    2.518740   -0.314161
  H      1.967194    1.442032    0.176241
  O     -2.182681    0.759718    2.144512
  H     -1.481995    0.101599    2.243522
  H     -2.532219    0.612199    1.256077
  O      0.909206   -3.088402   -3.685665
  H     -0.069431   -3.080341   -3.723047
  H      1.134613   -3.607209   -2.904769
  H      2.450226   -0.840953    0.118693
  O      1.998347   -0.253262    0.770250
  H      1.100390   -0.592478    0.855607
  H     -2.357325    0.026310   -5.429698
  O     -3.281392    0.238562   -5.611416
  H     -3.307730    1.203426   -5.620837
  H     -1.536586    3.608098    0.970058
  O     -1.230073    3.474857    1.888877
  H     -1.482016    2.551570    2.068100
  H     -3.955251    2.876739    0.047040
  O     -4.781171    2.555217    0.474342
  H     -4.541167    2.412847    1.396496
  H      3.178874   -2.772924   -0.875022
  O      3.386587   -1.835748   -0.957221
  H      3.201428   -1.594479   -1.896959
  H     -2.426419   -0.146075   -1.115520
  C     -2.225798    0.179230   -2.134386
  H     -0.506681   -0.957890   -1.862643
  H     -2.813689   -0.434023   -2.810673
  N     -0.777510   -0.109486   -2.389681
  H     -3.636750    1.769976   -2.143118
  C     -2.568954    1.651383   -2.317835
  O     -0.518956    2.454073   -1.422059
  C     -1.781029    2.574681   -1.390912
  H     -0.229177    0.705258   -2.067004
  O     -2.401398    3.394242   -0.674383
  H     -0.587415   -0.254130   -3.379485
  H     -2.366658    1.951691   -3.349512

----------------------------
CARTESIAN COORDINATES (A.U.)
----------------------------
  NO LB      ZA    FRAG     MASS         X           Y           Z
   0 O     8.0000    0    15.999    5.159059   -1.965310   -6.594106
   1 H     1.0000    0     1.008    4.523182   -0.258811   -6.261951
   2 H     1.0000    0     1.008    3.683527   -3.061866   -6.803855
   3 O     8.0000    0    15.999   -3.436684   -5.596839   -7.835334
   4 H     1.0000    0     1.008   -4.970713   -5.353844   -6.880771
   5 H     1.0000    0     1.008   -3.662390   -4.673737   -9.390909
   6 O     8.0000    0    15.999   -9.956152   -2.187280   -1.556894
   7 H     1.0000    0     1.008   -8.496469   -3.266495   -1.741008
   8 H     1.0000    0     1.008  -10.124270   -1.372573   -3.180081
   9 O     8.0000    0    15.999   -1.091122   -4.373362   -1.177425
  10 H     1.0000    0     1.008   -1.632756   -4.043697    0.536252
  11 H     1.0000    0     1.008    0.469997   -5.307133   -1.026352
  12 O     8.0000    0    15.999    0.705303    9.283603   -4.915587
  13 H     1.0000    0     1.008   -0.834596   10.255276   -4.859640
  14 H     1.0000    0     1.008    0.327704    7.773443   -3.934832
  15 O     8.0000    0    15.999    4.055307    3.007615   -5.546243
  16 H     1.0000    0     1.008    3.559948    3.745466   -3.924825
  17 H     1.0000    0     1.008    3.390173    4.120595   -6.826076
  18 O     8.0000    0    15.999    3.631168    4.460967   -0.315265
  19 H     1.0000    0     1.008    1.837919    4.759729   -0.593677
  20 H     1.0000    0     1.008    3.717458    2.725045    0.333047
  21 O     8.0000    0    15.999   -4.124669    1.435659    4.052540
  22 H     1.0000    0     1.008   -2.800565    0.191994    4.239641
  23 H     1.0000    0     1.008   -4.785200    1.156889    2.373642
  24 O     8.0000    0    15.999    1.718150   -5.836233   -6.964898
  25 H     1.0000    0     1.008   -0.131205   -5.821001   -7.035539
  26 H     1.0000    0     1.008    2.144107   -6.816638   -5.489218
  27 H     1.0000    0     1.008    4.630257   -1.589170    0.224298
  28 O     8.0000    0    15.999    3.776329   -0.478597    1.455562
  29 H     1.0000    0     1.008    2.079436   -1.119621    1.616862
  30 H     1.0000    0     1.008   -4.454698    0.049719  -10.260642
  31 O     8.0000    0    15.999   -6.200933    0.450817  -10.604039
  32 H     1.0000    0     1.008   -6.250704    2.274145  -10.621842
  33 H     1.0000    0     1.008   -2.903726    6.818316    1.833143
  34 O     8.0000    0    15.999   -2.324502    6.566528    3.569461
  35 H     1.0000    0     1.008   -2.800604    4.821768    3.908142
  36 H     1.0000    0     1.008   -7.474341    5.436249    0.088892
  37 O     8.0000    0    15.999   -9.035104    4.828661    0.896377
  38 H     1.0000    0     1.008   -8.581562    4.559620    2.638994
  39 H     1.0000    0     1.008    6.007201   -5.240066   -1.653551
  40 O     8.0000    0    15.999    6.399722   -3.469061   -1.808886
  41 H     1.0000    0     1.008    6.049823   -3.013129   -3.584733
  42 H     1.0000    0     1.008   -4.585267   -0.276041   -2.108028
  43 C     6.0000    0    12.011   -4.206148    0.338695   -4.033405
  44 H     1.0000    0     1.008   -0.957489   -1.810150   -3.519885
  45 H     1.0000    0     1.008   -5.317102   -0.820184   -5.311403
  46 N     7.0000    0    14.007   -1.469280   -0.206899   -4.515843
  47 H     1.0000    0     1.008   -6.872462    3.344769   -4.049906
  48 C     6.0000    0    12.011   -4.854619    3.120661   -4.380073
  49 O     8.0000    0    15.999   -0.980685    4.637526   -2.687303
  50 C     6.0000    0    12.011   -3.365657    4.865441   -2.628443
  51 H     1.0000    0     1.008   -0.433081    1.332744   -3.906072
  52 O     8.0000    0    15.999   -4.537984    6.414188   -1.274399
  53 H     1.0000    0     1.008   -1.110053   -0.480235   -6.386302
  54 H     1.0000    0     1.008   -4.472336    3.688162   -6.329660

--------------------------------
INTERNAL COORDINATES (ANGSTROEM)
--------------------------------
 O      0   0   0     0.000000000000     0.00000000     0.00000000
 H      1   0   0     0.979593089037     0.00000000     0.00000000
 H      1   2   0     0.979138735871   107.02185768     0.00000000
 O      3   1   2     4.036600525929   163.06494619    14.16419774
 H      4   3   1     0.964712015713   132.09370131   300.15909528
 H      4   3   1     0.964624379924    93.59371453    55.51578177
 O      5   4   3     4.207721129930   158.63074852    14.39433271
 H      7   5   4     0.965553121848    36.41988005   284.85722843
 H      7   5   4     0.965186238806    68.88864385    91.10226371
 O      5   4   3     3.686839847821    88.78666684   333.34456825
 H     10   5   4     0.966923425159   128.90778381   181.05239462
 H     10   5   4     0.965925227490   118.16424367   326.44511705
 O      2   1   3     5.485262232333   176.82387884   299.03446447
 H     13   2   1     0.963998578670   143.74211137    57.63337901
 H     13   2   1     0.973606147946    52.35342210   116.14942597
 O      2   1   3     1.786761340358   167.80504654   173.56761666
 H     16   2   1     0.978448781286   127.52066704   262.47662827
 H     16   2   1     0.964076054319   119.51684670   116.13340309
 O     17  16   2     1.947626857393   158.81399436    52.46955647
 H     19  17  16     0.973242194677    82.19794451   206.70060604
 H     19  17  16     0.981645705342    99.30738172   310.20538901
 O     11  10   5     3.688985850623   136.12307264   283.75657735
 H     22  11  10     0.966377135933    42.03091531   230.73410495
 H     22  11  10     0.966051249668    62.96295381    42.50374290
 O      3   1   2     1.801205560062   161.59851771   199.93054165
 H     25   3   1     0.979383314874   124.89446539   168.23596026
 H     25   3   1     0.964245061166   105.38222864    46.09942170
 H     21  19  17     2.334234399288   156.38386398    24.93033720
 O     28  21  19     0.986965434047    46.10033961   185.07025274
 H     29  28  21     0.963680579840   105.99151702   119.42464512
 H      6   4   3     2.575915131323   131.60645833   284.59150468
 O     31   6   4     0.965387671746   113.75175153   259.64292052
 H     32  31   6     0.965269196503   104.34286383   171.20916129
[...]
 H      1   2   0     0.979097835306   107.98325760     0.00000000
 O      3   1   2     4.116407961046   158.71063374   343.40843061
 H      4   3   1     0.965198138305   115.27616634   305.77753806
 H      4   3   1     0.964965399762   115.75747985    69.27269533
 O      5   4   3     4.611821861953   164.33312959    75.34381618
 H      7   5   4     0.965426821278    34.37064003   230.81037769
 H      7   5   4     0.965350241389    70.21473686    47.52739157
 O      5   4   3     3.314649019493    99.65635625   348.86199011
 H     10   5   4     0.969727405091   113.14000730   191.60907220
 H     10   5   4     0.968944858369   136.99059784   343.76460675
 O      2   1   3     5.638779707608   176.34364902    35.95541744
 H     13   2   1     0.961974877796   158.49788407   358.68375315
 H     13   2   1     0.977739543750    54.30053909    10.90119691
 O      2   1   3     1.811024249508   160.99082225   180.19461545
 H     16   2   1     0.984979122498   125.17906029   257.80150897
 H     16   2   1     0.964653831404   120.12008721   113.51913372
 O     17  16   2     1.805761755050   166.20320304    47.76465498
 H     19  17  16     0.977718479917    93.09051999   222.99244307
 H     19  17  16     0.983613786342    99.60544155   328.63610789
 O      8   7   5     3.899236268404    84.35942967   120.77145584
 H     22   8   7     0.959874751709    60.11655688   171.39166662
 H     22   8   7     0.972150909842    51.45171095   324.82795195
 O      3   1   2     1.820189380730   165.76962813   198.03262392
 H     25   3   1     0.978199464927   124.94409674   161.22346645
 H     25   3   1     0.965552938737   107.50839618    37.77636867
 H     21  19  17     2.362631920236   156.80250418    15.41479749
 O     28  21  19     0.987956125895    44.35981437   186.98163597
 H     29  28  21     0.966084602295   105.29510271   115.21695570
 H      6   4   3     2.596401527434   133.11967248   291.56633814
 O     31   6   4     0.965755136886   115.49681232   248.44303367
 H     32  31   6     0.965452891867   104.27055474   171.24835349
 H     20  19  17     2.837252064763   129.57730150   177.00810466
 O     34  20  19     0.976596438476    99.46381533   333.93985202
 H     35  34  20     0.973109324709   102.68531024   259.97352341
 H     24  22   8     2.326316372251   135.29376092   206.18708014
 O     37  24  22     0.982764748495    60.33210920   232.05355004
 H     38  37  24     0.970845385815   104.58661704   101.84224343
 H     28  21  19     2.344801831492   151.55986234   353.88055158
 O     40  28  21     0.965487641353    43.06820940    32.00731026
 H     41  40  28     0.992576978985   106.29464391   238.43554879
 H      8   7   5     2.659511495097   105.30117298    72.04156951
 C     43   8   7     1.088142653337   111.88888460   273.13530087
 H     10   5   4     1.805997020816    63.75721692    79.98460292
 H     44  43   8     1.086288605755   108.74373676   346.05583168
 N     45  10   5     1.035750429387   166.35157065    85.48786389
 H     44  43   8     2.137657927112    96.57569302    82.14338542
 C     48  44  43     1.088243981922    42.70004851   121.64867116
 O     15  13   2     1.833760947019   178.87227203    86.96845146
 C     50  15  13     1.272962873350   115.01408124   112.99811290
 H     47  45  10     1.036956792258   110.05827164   103.06635018
 O     51  50  15     1.252508568137   124.21044462   299.62717703
 H     47  45  52     1.018702159000   108.83165893   118.56464591
 H     49  48  44     1.093450046321   107.76797682   118.45178237

---------------------------
INTERNAL COORDINATES (A.U.)
---------------------------
 O      0   0   0     0.000000000000     0.00000000     0.00000000
 H      1   0   0     1.852296823143     0.00000000     0.00000000
 H      1   2   0     1.850226767044   107.98325760     0.00000000
 O      3   1   2     7.778883701870   158.71063374   343.40843061
 H      4   3   1     1.823960146367   115.27616634   305.77753806
 H      4   3   1     1.823520334261   115.75747985    69.27269533
 O      5   4   3     8.715080297522   164.33312959    75.34381618
 H      7   5   4     1.824392294558    34.37064003   230.81037769
 H      7   5   4     1.824247579541    70.21473686    47.52739157
 O      5   4   3     6.263778876912    99.65635625   348.86199011
 H     10   5   4     1.832519220181   113.14000730   191.60907220
 H     10   5   4     1.831040421188   136.99059784   343.76460675
 O      2   1   3    10.655749376892   176.34364902    35.95541744
 H     13   2   1     1.817869066746   158.49788407   358.68375315
 H     13   2   1     1.847659967993    54.30053909    10.90119691
 O      2   1   3     3.422339853461   160.99082225   180.19461545
 H     16   2   1     1.861340789152   125.17906029   257.80150897
 H     16   2   1     1.822931555391   120.12008721   113.51913372
 O     17  16   2     3.412395180153   166.20320304    47.76465498
 H     19  17  16     1.847620163117    93.09051999   222.99244307
 H     19  17  16     1.858760677735    99.60544155   328.63610789
 O      8   7   5     7.368488678736    84.35942967   120.77145584
 H     22   8   7     1.813900403595    60.11655688   171.39166662
 H     22   8   7     1.837098980443    51.45171095   324.82795195
 O      3   1   2     3.439659441452   165.76962813   198.03262392
 H     25   3   1     1.848529093061   124.94409674   161.22346645
 H     25   3   1     1.824630622016   107.50839618    37.77636867
 H     21  19  17     4.464727284507   156.80250418    15.41479749
 O     28  21  19     1.866966510272    44.35981437   186.98163597
 H     29  28  21     1.825635320536   105.29510271   115.21695570
 H      6   4   3     4.906487820546   133.11967248   291.56633814
 O     31   6   4     1.825012721142   115.49681232   248.44303367
 H     32  31   6     1.824441560831   104.27055474   171.24835349
 H     20  19  17     5.361629375304   129.57730150   177.00810466
 O     34  20  19     1.845499812083    99.46381533   333.93985202
 H     35  34  20     1.838910122065   102.68531024   259.97352341
 H     24  22   8     4.396100844411   135.29376092   206.18708014
 O     37  24  22     1.857156228728    60.33210920   232.05355004
 H     38  37  24     1.834631897571   104.58661704   101.84224343
 H     28  21  19     4.431033299837   151.55986234   353.88055158
 O     40  28  21     1.824507227842    43.06820940    32.00731026
 H     41  40  28     1.875698657116   106.29464391   238.43554879
 H      8   7   5     5.025748375749   105.30117298    72.04156951
 C     43   8   7     2.056291609445   111.88888460   273.13530087
 H     10   5   4     3.412839768020    63.75721692    79.98460292
 H     44  43   8     2.052787967276   108.74373676   346.05583168
 N     45  10   5     1.957284654633   166.35157065    85.48786389
 H     44  43   8     4.039588050248    96.57569302    82.14338542
 C     48  44  43     2.056483092720    42.70004851   121.64867116
 O     15  13   2     3.465305984947   178.87227203    86.96845146
 C     50  15  13     2.405551209281   115.01408124   112.99811290
 H     47  45  10     1.959564350076   110.05827164   103.06635018
 O     51  50  15     2.366898174168   124.21044462   299.62717703
 H     47  45  52     1.925068092545   108.83165893   118.56464591
 H     49  48  44     2.066321128669   107.76797682   118.45178237

--------------------------------------------------------------------------
WARNING: There was an error initializing an OpenFabrics device.

  Local host:   ga01
  Local device: mlx5_0
--------------------------------------------------------------------------


           ************************************************************
           *        Program running with 15 parallel MPI-processes    *
           *              working on a common directory               *
           ************************************************************
------------------------------------------------------------------------------
                   ___                                                        
                  /   \      - P O W E R E D   B Y -                         
                 /     \                                                     
                 |  |  |   _    _      __       _____    __    __             
                 |  |  |  | |  | |    /  \     |  _  \  |  |  /  |          
                  \  \/   | |  | |   /    \    | | | |  |  | /  /          
                 / \  \   | |__| |  /  /\  \   | |_| |  |  |/  /          
                |  |  |   |  __  | /  /__\  \  |    /   |      \           
                |  |  |   | |  | | |   __   |  |    \   |  |\   \          
                \     /   | |  | | |  |  |  |  | |\  \  |  | \   \       
                 \___/    |_|  |_| |__|  |__|  |_| \__\ |__|  \__/        
                                                                              
                      - O R C A' S   B I G   F R I E N D -                    
                                      &                                       
                       - I N T E G R A L  F E E D E R -                       
                                                                              
 v1 FN, 2020, v2 2021, v3 2022-2024                                           
------------------------------------------------------------------------------


----------------------
SHARK INTEGRAL PACKAGE
----------------------

Number of atoms                             ...     55
Number of basis functions                   ...    830
Number of shells                            ...    360
Maximum angular momentum                    ...      3
Integral batch strategy                     ... SHARK/LIBINT Hybrid
RI-J (if used) integral strategy            ... SPLIT-RIJ (Revised 2003 algorithm where possible)
Printlevel                                  ...      1
Contraction scheme used                     ... SEGMENTED contraction
Prescreening option                         ... SCHWARTZ
   Thresh                                   ... 2.500e-11
   Tcut                                     ... 2.500e-12
   Tpresel                                  ... 2.500e-12 
Coulomb Range Separation                    ... NOT USED
Exchange Range Separation                   ... NOT USED
Multipole approximations                    ... NOT USED
Finite Nucleus Model                        ... NOT USED
CABS basis                                  ... NOT available
Auxiliary Coulomb fitting basis             ... AVAILABLE
   # of basis functions in Aux-J            ...   1365
   # of shells in Aux-J                     ...    475
   Maximum angular momentum in Aux-J        ...      4
Auxiliary J/K fitting basis                 ... NOT available
Auxiliary Correlation fitting basis         ... NOT available
Auxiliary 'external' fitting basis          ... NOT available

Checking pre-screening integrals            ... done (  0.0 sec) Dimension = 360
Check shell pair data                       ... done (  0.0 sec)
Shell pair information
Shell pair cut-off parameter TPreSel        ...   2.5e-12
Total number of shell pairs                 ...     64980
Shell pairs after pre-screening             ...     38980
Total number of primitive shell pairs       ...    186900
Primitive shell pairs kept                  ...     71503
          la=0 lb=0:  13534 shell pairs
          la=1 lb=0:  12207 shell pairs
          la=1 lb=1:   2856 shell pairs
          la=2 lb=0:   4505 shell pairs
          la=2 lb=1:   2042 shell pairs
          la=2 lb=2:    371 shell pairs
          la=3 lb=0:   2128 shell pairs
          la=3 lb=1:    943 shell pairs
          la=3 lb=2:    318 shell pairs
          la=3 lb=3:     76 shell pairs

Calculating one electron integrals          ... done (  0.1 sec)
Calculating RI/J V-Matrix + Cholesky decomp.... done (  0.1 sec)
Calculating Nuclear repulsion               ... done (  0.0 sec) ENN=   2084.970429180074 Eh

Diagonalization of the overlap matrix:
Smallest eigenvalue                        ... 1.985e-04
Time for diagonalization                   ...    0.095 sec
Threshold for overlap eigenvalues          ... 1.000e-07
Number of eigenvalues below threshold      ... 0
Time for construction of square roots      ...    0.049 sec
Total time needed                          ...    0.151 sec

-------------------
DFT GRID GENERATION
-------------------

General Integration Accuracy     IntAcc      ... 4.388
Radial Grid Type                 RadialGrid  ... OptM3 with GC (2021)
Angular Grid (max. ang.)         AngularGrid ... 4 (Lebedev-302)
Angular grid pruning method      GridPruning ... 4 (adaptive)
Weight generation scheme         WeightScheme... mBecke (2022)
Basis function cutoff            BFCut       ... 1.0000e-11
Integration weight cutoff        WCut        ... 1.0000e-14
Partially contracted basis set               ... off
Rotationally invariant grid construction     ... off
Angular grids for H and He will be reduced by one unit

Total number of grid points                  ...   232810
Total number of batches                      ...     3667
Average number of points per batch           ...       63
Average number of grid points per atom       ...     4233

--------------------
COSX GRID GENERATION
--------------------

GRIDX 1
-------
General Integration Accuracy     IntAcc      ... 3.816
Radial Grid Type                 RadialGrid  ... OptM3 with GC (2021)
Angular Grid (max. ang.)         AngularGrid ... 1 (Lebedev-50)
Angular grid pruning method      GridPruning ... 4 (adaptive)
Weight generation scheme         WeightScheme... mBecke (2022)
Basis function cutoff            BFCut       ... 1.0000e-11
Integration weight cutoff        WCut        ... 1.0000e-14
Partially contracted basis set               ... on
Rotationally invariant grid construction     ... off
Angular grids for H and He will be reduced by one unit

Total number of grid points                  ...    29610
Total number of batches                      ...      250
Average number of points per batch           ...      118
Average number of grid points per atom       ...      538
UseSFitting                                  ... on

GRIDX 2
-------
General Integration Accuracy     IntAcc      ... 4.020
Radial Grid Type                 RadialGrid  ... OptM3 with GC (2021)
Angular Grid (max. ang.)         AngularGrid ... 2 (Lebedev-110)
Angular grid pruning method      GridPruning ... 4 (adaptive)
Weight generation scheme         WeightScheme... mBecke (2022)
Basis function cutoff            BFCut       ... 1.0000e-11
Integration weight cutoff        WCut        ... 1.0000e-14
Partially contracted basis set               ... on
Rotationally invariant grid construction     ... off
Angular grids for H and He will be reduced by one unit

Total number of grid points                  ...    61481
Total number of batches                      ...      509
Average number of points per batch           ...      120
Average number of grid points per atom       ...     1118
UseSFitting                                  ... on

GRIDX 3
-------
General Integration Accuracy     IntAcc      ... 4.338
Radial Grid Type                 RadialGrid  ... OptM3 with GC (2021)
Angular Grid (max. ang.)         AngularGrid ... 3 (Lebedev-194)
Angular grid pruning method      GridPruning ... 4 (adaptive)
Weight generation scheme         WeightScheme... mBecke (2022)
Basis function cutoff            BFCut       ... 1.0000e-11
Integration weight cutoff        WCut        ... 1.0000e-14
Partially contracted basis set               ... on
Rotationally invariant grid construction     ... off
Angular grids for H and He will be reduced by one unit

Total number of grid points                  ...   133213
Total number of batches                      ...     1071
Average number of points per batch           ...      124
Average number of grid points per atom       ...     2422
UseSFitting                                  ... on
Initializing property integral containers    ... done (  0.0 sec)

SHARK setup successfully completed in   3.0 seconds

Maximum memory used throughout the entire STARTUP-calculation: 96.3 MB
[ga01:1451517] 14 more processes have sent help message help-mpi-btl-openib.txt / error in device init
[ga01:1451517] Set MCA parameter "orte_base_help_aggregate" to 0 to see all help / error messages
--------------------------------------------------------------------------
WARNING: There was an error initializing an OpenFabrics device.

  Local host:   ga01
  Local device: mlx5_0
--------------------------------------------------------------------------


           ************************************************************
           *        Program running with 15 parallel MPI-processes    *
           *              working on a common directory               *
           ************************************************************
Occupation numbers will be reassigned to an Aufbau configuration
             **** ENERGY FILE WAS UPDATED (02_Alanine_zwitterion.en.tmp) ****
Finished Guess after   1.0 sec
Maximum memory used throughout the entire GUESS-calculation: 79.7 MB
[ga01:1451674] 14 more processes have sent help message help-mpi-btl-openib.txt / error in device init
[ga01:1451674] Set MCA parameter "orte_base_help_aggregate" to 0 to see all help / error messages
--------------------------------------------------------------------------
WARNING: There was an error initializing an OpenFabrics device.

  Local host:   ga01
  Local device: mlx5_0
--------------------------------------------------------------------------


           ************************************************************
           *        Program running with 15 parallel MPI-processes    *
           *              working on a common directory               *
           ************************************************************
--------------------
CPCM SOLVATION MODEL
--------------------
CPCM parameters:
  Epsilon                                         ...      80.1510
  Refrac                                          ...       1.3328
  Rsolv                                           ...       1.3000
  Surface type                                    ... GAUSSIAN VDW
  Discretization scheme                           ... Constant charge density
    Threshold for H atoms                         ...       5.0000 (charges/Ang^2)
    Threshold for non-H atoms                     ...       5.0000 (charges/Ang^2)
  Epsilon function type                           ...         CPCM
Solvent:                                          ... WATER
Radii:
  Scheme                                          ... Element-dependent radii
  Radius for O  used is    3.4469 Bohr (=   1.8240 Ang.)
  Radius for H  used is    2.4944 Bohr (=   1.3200 Ang.)
  Radius for C  used is    3.8550 Bohr (=   2.0400 Ang.)
  Radius for N  used is    3.5149 Bohr (=   1.8600 Ang.)
Calculating surface                               ...        done! (  0.0s)
Cavity surface points                             ...         4751
Cavity Volume                                     ...    3106.3171
Cavity Surface-area                               ...    1996.3311
Calculating surface distance matrix               ...        done! (  0.1s)
Performing Cholesky decomposition & store         ...        done! (  0.6s)
Overall time for CPCM initialization              ...                 0.8s

----------------------------------------D-I-I-S--------------------------------------------
Iteration    Energy (Eh)           Delta-E    RMSDP     MaxDP     DIISErr   Damp  Time(sec)
-------------------------------------------------------------------------------------------
               ***  Starting incremental Fock matrix formation  ***
[ga01:1451738] 14 more processes have sent help message help-mpi-btl-openib.txt / error in device init
[ga01:1451738] Set MCA parameter "orte_base_help_aggregate" to 0 to see all help / error messages
