46
 energy: -75.155022669887 gnorm: 0.000285872875 xtb: 6.7.1 (edcfbbe)
N           -0.66221548007311        0.04174920949756        1.70222762567639
C            0.55182867320054        0.09584016132137        0.87097890617787
C            0.34413905738371        0.91183129619842       -0.40083993936462
C           -0.59154064280245        0.24898398710590       -1.41959102235575
C           -0.04285953393555       -1.07534602959422       -1.93131646642448
O            1.00799410145754       -1.06881969241043       -2.62280623601281
O           -0.65075823664551       -2.13689140352055       -1.63592619494426
H           -0.43738226372705       -0.39507533324044        2.62598293420227
H           -1.05753632861187        0.98392661100448        1.84369018361098
H            1.35620479730210        0.55034896731403        1.45015842673799
H            0.85214104820159       -0.92133379693532        0.61493672428819
H            1.31446240469359        1.07898306430188       -0.86896525978177
H           -0.07839884248245        1.88348530278151       -0.14765508756366
H           -1.58293294818585        0.09102248556257       -0.99605153110354
H           -0.68530445422783        0.90738128715994       -2.28614411016415
H           -1.38327006208901       -0.57111045585793        1.25774517919026
O           -2.02161302441437       -3.70689929679342       -3.55412544788845
H           -1.51815509704595       -3.19678869511998       -2.89893668365136
H           -2.94656747520350       -3.63173831553747       -3.29566891506736
O           -0.30844277621156       -3.62568323463097        2.29249167503473
H           -0.42074232333250       -4.54907869570772        2.53408476260685
H            0.31644775339027       -3.61513868534314        1.54624485631232
O            1.29858710904128        1.21883656225118       -4.25281870788184
H            2.14854244343904        1.54005008385846       -3.92878486312782
H            1.16690359529436        0.36904816686244       -3.79887504908220
O           -1.81168436286895        2.60300152307733        2.35723917552862
H           -2.13040918279192        2.60276683344254        3.26612372175705
H           -1.32633623694402        3.42275763413035        2.22839217626608
O           -0.09444159271166       -1.41175430454713        3.95066855658293
H           -0.06146949159869       -2.24831947637637        3.45211021029311
H           -0.77520466092855       -1.52171611280246        4.62090489956553
O            3.35355639788733        0.36355013502537       -1.99222896464446
H            4.09311918857171       -0.24293044997719       -1.88999204640328
H            2.58688475315661       -0.19089397688500       -2.21457997683655
O           -3.28143611357093        1.22860752140425        0.26764341649343
H           -4.21976620743141        1.13148576580144        0.44574144793522
H           -2.93166269103408        1.83133481350336        0.94164506622308
O           -2.10382752196550       -2.07467767574908        0.74606923990980
H           -1.62445255179823       -2.70029065591797        1.31974915624115
H           -1.69777926980391       -2.16321734734829       -0.13301261730399
O            2.74819973536080       -3.17347147414797       -2.32531635273579
H            2.82438112531544       -3.69619654444194       -3.12865468198852
H            2.10070994870885       -2.46748800219380       -2.52538463921604
O            1.11675995426499       -3.55699257480857       -0.04535612086752
H            1.91550693224805       -3.63166047277408       -0.58726869945624
H            0.44442625376502       -3.19276526458532       -0.64825401538430
