37
 energy: -59.875542632142 gnorm: 0.000339020286 xtb: 6.7.1 (edcfbbe)
N            0.08059770492438        0.26414083281836        2.39723571625958
C            0.01448705751182       -0.42687363934908        1.09566057863692
C           -0.03538481887825        0.59912878867717       -0.02899938462683
C            0.05821892830292       -0.04384794529149       -1.40661913120561
C            0.35438534667817        0.95983782740132       -2.53645487808441
O            0.61142832947867        2.15254744438532       -2.24001667099377
O            0.34095629495809        0.51328956856199       -3.70378078225240
H            0.83822177178152        0.99142162605130        2.37530694422981
H           -0.81622654709421        0.75930374796995        2.60342277067922
H           -0.86655876495254       -1.06784936373091        1.06059326996086
H            0.90444854709787       -1.04566083146959        0.97122365627514
H            0.80933286264430        1.27772105187234        0.07450838452760
H           -0.94725517876245        1.19433040264365        0.02748102656084
H           -0.85877533443445       -0.56704823925563       -1.68404019731437
H            0.87353781269422       -0.77183685890234       -1.44610273153796
H            0.26731272189201       -0.39668601671280        3.15145634423015
O            0.16382387204145        1.55926404652278        7.30348619436019
H            0.28356095218827        0.69786114923374        7.71451439326768
H            1.03664654877392        1.88410743036514        7.05916921926496
O           -2.14829851638498        2.22422363292791        5.84000612815540
H           -2.38601333501102        3.10510956725031        6.14164223157216
H           -1.36569028572595        1.96429337919647        6.35622243087228
O            2.51923145956133        2.93698135845628       -0.40604411464093
H            3.28357625393586        3.27641762920061       -0.87889061570101
H            1.85657388545247        2.71073147559919       -1.08514489273631
O           -1.46474900995184        3.52851895163542       -0.97597999685906
H           -0.75111879328546        3.10065690889087       -1.47914275415940
H           -1.16823254502714        4.42998036972904       -0.81473224469442
O           -2.22934892976094        1.52750574128489        3.16245709729622
H           -2.20609106489295        1.76949479963679        4.10750867660335
H           -3.15319511911815        1.43536769472598        2.92245147367143
O            1.58154971943282        1.66572447824416       -5.86451152761037
H            1.20698260145745        1.15741690846437       -6.59112816220872
H            1.14428040917900        1.32013094788158       -5.05850516015021
O            1.98869169097920        2.25520600201367        2.28493456507818
H            1.66436295227391        3.09098863228469        2.63497514352617
H            2.27404252006470        2.44065750072975        1.37641699969547
