46
 energy: -75.096453126723 gnorm: 0.073778014353 xtb: 6.7.1 (edcfbbe)
N            0.12796813220000       -0.99557406350000        2.41395041790000
C           -0.58992272230000       -0.82388423010000        1.14181113900000
C            0.30479732470000       -0.15180335380000        0.11200749400000
C           -0.48585829330000        0.30882369500000       -1.11012596930000
C           -1.11456768450000       -0.82169626970000       -1.88796647800000
O           -2.07389725000000       -1.45054247140000       -1.37372014660000
O           -0.66343667900000       -1.08684648930000       -3.03456758660000
H            0.96206448620000       -1.58137405830000        2.24936508970000
H            0.41402928010000       -0.06613446230000        2.76398270620000
H           -1.45739678770000       -0.19120880510000        1.30929847910000
H           -0.93154100540000       -1.78755012130000        0.77043203700000
H            1.09848796270000       -0.82056039840000       -0.20323181350000
H            0.74548578210000        0.73863845260000        0.54962819970000
H           -1.29764349500000        0.94752080250000       -0.77912086090000
H            0.16819751660000        0.86063094910000       -1.77634223510000
H           -0.49812941400000       -1.44160087530000        3.10262574530000
O           -3.44290388700000       -3.42669403640000       -2.39211346610000
H           -2.82749691490000       -2.72069426130000       -2.05135329440000
H           -3.85126313060000       -3.01916607000000       -3.17663137150000
O           -3.66962326400000       -3.09126505950000        1.06977989300000
H           -3.34013260340000       -2.40859669560000        0.45036646320000
H           -3.08291281270000       -3.01517034370000        1.85322998310000
O           -2.33555274570000        0.19997684010000       -5.32876445590000
H           -1.84992734160000       -0.33143633480000       -5.99068854300000
H           -1.82762187780000        0.12328983860000       -4.49536006890000
O            0.56036648770000        1.18052493380000       -4.16792677430000
H           -0.18766814980000        1.80242776800000       -4.16541383180000
H            0.22164742860000        0.34616503720000       -3.79282848040000
O           -4.29265401770000       -0.15870549140000       -0.55992961710000
H           -4.90205058950000       -0.82296174140000       -0.17549984930000
H           -3.47392861240000       -0.63697433020000       -0.81625041380000
O            0.12915102200000        1.76013423310000        3.21099376920000
H            0.39506103740000        2.01227317320000        4.11382392870000
H           -0.81060425240000        1.55348662430000        3.25326445750000
O            2.30112579660000       -2.39573282590000        1.24668350420000
H            2.71010585820000       -1.51468155380000        1.32420055150000
H            2.93317885550000       -3.02027385200000        1.61337555640000
O           -0.98493515550000       -3.42004209510000       -4.33351784850000
H           -0.40958657140000       -4.09710311520000       -3.91536870880000
H           -0.99924815850000       -2.66252689210000       -3.70713640390000
O           -2.12779459620000       -2.00777662500000        3.73489263540000
H           -2.48914542560000       -2.08048210590000        4.62603294050000
H           -2.76197076600000       -1.44998844200000        3.23888227360000
O           -0.36179047960000       -0.19588869400000        5.30940365820000
H           -0.43873940810000       -1.12727705470000        5.58012364380000
H            0.56730447720000       -0.06499886840000        4.98638974140000
46
 energy: -75.107493433616 gnorm: 0.051251692949 xtb: 6.7.1 (edcfbbe)
N            0.11276200339374       -0.99706905288358        2.41619227750537
C           -0.60097983163558       -0.81749955650675        1.14117551247923
C            0.30264932360098       -0.14320789715038        0.11697412695604
C           -0.48896923989708        0.33134161328767       -1.10229437628660
C           -1.11185857670996       -0.81021233730701       -1.88255910938442
O           -2.05528596080196       -1.44879373943779       -1.35180681822092
O           -0.67948798962615       -1.05419875933326       -3.03696953641903
H            0.93579716306223       -1.59844689974646        2.25148726684305
H            0.40515033859535       -0.06642945939931        2.76372893675116
H           -1.47314955748374       -0.18580345785141        1.30352924382755
H           -0.93509727570436       -1.78335621876221        0.76523786196143
H            1.08765369422216       -0.82448491995081       -0.20853952530900
H            0.75403386296070        0.74421538780857        0.56093801899074
H           -1.30660452472766        0.97443692796426       -0.77630341963244
H            0.16873231134896        0.88167626060286       -1.77116873198041
H           -0.52278398305984       -1.43670719852761        3.10393597815342
O           -3.45991643702078       -3.44043021026245       -2.40037558792237
H           -2.85738288882334       -2.73378115481872       -2.05216740941591
H           -3.85383473411588       -3.04612410791460       -3.18731151087487
O           -3.71013204043897       -3.02772255725533        1.11637851947326
H           -3.29552369143609       -2.46238407661012        0.42909598289336
H           -3.04806488423678       -3.04030199881315        1.83971730889638
O           -2.29935669238001        0.23689388050779       -5.33420700382068
H           -1.87662249642349       -0.33488500065145       -5.99373675015332
H           -1.83579333528355        0.03647824594382       -4.49849834755827
O            0.58001285443685        1.19235760595790       -4.13407305410522
H           -0.18441839364525        1.78423521382891       -4.20338954289938
H            0.22330250601577        0.32824266259713       -3.84069148753000
O           -4.27143794620593       -0.14149407124861       -0.48857780062115
H           -4.90919391117033       -0.82289553382820       -0.20966484710012
H           -3.49676796916126       -0.63833599544366       -0.83690161863669
O            0.14150022391183        1.69387463370742        3.22638770402801
H            0.39029156168709        2.04373278545797        4.09718739541667
H           -0.82581500087058        1.61096851478969        3.25890801282634
O            2.30223141548586       -2.35788934293171        1.31910741175505
H            2.81391684979295       -1.52244841346522        1.28211950858188
H            2.92916477532711       -3.03630479356561        1.60396364179141
O           -0.99365859385505       -3.45347392424256       -4.33344671680251
H           -0.41109063482513       -4.09665766221339       -3.90492231943968
H           -0.96641614733015       -2.65183642250452       -3.76338963145681
O           -2.14391626492546       -2.00055024950424        3.71910990085385
H           -2.49230879652625       -2.09722476066872        4.61092163036428
H           -2.77644808316164       -1.43844687870701        3.25106568391833
O           -0.35862845970572       -0.20899860865643        5.27499658334592
H           -0.42686907000970       -1.11375094017204        5.60656618840567
H            0.57964188355601       -0.07962727152001        5.04295653945089
46
 energy: -75.112516942634 gnorm: 0.036812307612 xtb: 6.7.1 (edcfbbe)
N            0.09737853343209       -0.99814828119057        2.41500795084479
C           -0.61608738416412       -0.81131409832183        1.13959726342921
C            0.29055984305145       -0.13128160427840        0.11968875152962
C           -0.49960416616547        0.35852168548248       -1.09721812522809
C           -1.12759375249283       -0.78745039478528       -1.88635314041112
O           -2.03624400224103       -1.45253988532393       -1.32626334100538
O           -0.72601625912455       -1.00206826720638       -3.05589044753530
H            0.91758029654872       -1.60635881121791        2.24177087509849
H            0.38155093637004       -0.06207298371819        2.76671304270385
H           -1.49771090595371       -0.18860953496191        1.29802941992040
H           -0.93769533401789       -1.77910077154521        0.75594550303178
H            1.06560364682737       -0.82429778650464       -0.21688533305178
H            0.75765802624080        0.74639012340072        0.57575432175986
H           -1.31995648195413        1.00603708404155       -0.77219839055604
H            0.16012158943195        0.91139409367368       -1.76697278244149
H           -0.54587655403359       -1.43787616967538        3.10018882059141
O           -3.49555894353608       -3.45545699409800       -2.40155101455457
H           -2.89619822230072       -2.75369548951308       -2.06243916600830
H           -3.85720413943730       -3.09610596635080       -3.21277283742619
O           -3.65672463631509       -3.04227102510295        1.11003822205991
H           -3.28783185922124       -2.47241193750020        0.43881740493417
H           -3.04516921225472       -3.03276488747225        1.84669136319061
O           -2.27414951611444        0.24002639521186       -5.31553275055783
H           -1.90281317510307       -0.31752060843628       -6.00584542818055
H           -1.82180193545642       -0.05962085858289       -4.50325498527068
O            0.59862748224196        1.20104310430425       -4.12362906096869
H           -0.17728762822078        1.76425009977752       -4.26084383024989
H            0.24355490409463        0.33181661058470       -3.84880156237664
O           -4.27519621749964       -0.13396838838386       -0.45912350183220
H           -4.89754154732000       -0.81784886142158       -0.20393608249397
H           -3.51272801597669       -0.62032273451128       -0.83047823427988
O            0.15273031942287        1.66826562197015        3.22294883191210
H            0.40868718796450        2.04895964794064        4.06794921432674
H           -0.81872084011151        1.64546863011408        3.26197486556766
O            2.33032911481566       -2.31954134761205        1.36029964686971
H            2.88672709648693       -1.52588037806413        1.30299592774302
H            2.92326281376195       -3.04476106731078        1.61085908674042
O           -0.98041411272206       -3.46884114838138       -4.34331478239788
H           -0.41610511779482       -4.09595819573097       -3.89597215954216
H           -0.92457990900345       -2.63711458204018       -3.82090640660422
O           -2.16502845949882       -1.99883159081604        3.69689331249853
H           -2.49418192828413       -2.12476829645578        4.59136010903437
H           -2.80224193435246       -1.43592658286919        3.25900826084129
O           -0.33462172108492       -0.22553044404089        5.28478333110423
H           -0.40467909424101       -1.11124656527414        5.64249054560630
H            0.59221857150560       -0.10398629720369        5.09106338153319
46
 energy: -75.115595691233 gnorm: 0.054624462461 xtb: 6.7.1 (edcfbbe)
N            0.08129844088287       -0.99561141285766        2.41286596146664
C           -0.63114125819422       -0.80656749831686        1.13663807356922
C            0.27295614398981       -0.12016796889720        0.11875570987894
C           -0.51197699913844        0.37878798871725       -1.09804255719306
C           -1.14993282779523       -0.76622639433799       -1.89634082328868
O           -2.02796568955118       -1.45390936969995       -1.31556324142361
O           -0.78269484606866       -0.95124402851012       -3.08419499128773
H            0.90624938410110       -1.59895480944036        2.23344479697386
H            0.34937573555765       -0.05462096399629        2.77357228638095
H           -1.52114589009501       -0.19478350133192        1.29242435509201
H           -0.94232857633109       -1.77487476756351        0.74616076639285
H            1.04288035853234       -0.81720860275005       -0.22272968108522
H            0.75152300168130        0.74686861241718        0.58484924478979
H           -1.33088164238661        1.03008809925548       -0.77363668483100
H            0.14849321226615        0.93627594947187       -1.76494114050007
H           -0.56637514385374       -1.44017182650465        3.09305939464143
O           -3.54157249376011       -3.46850108818795       -2.39362242206135
H           -2.93429219316241       -2.77608365418912       -2.07229544402985
H           -3.85625534448198       -3.15427870672235       -3.24828867157344
O           -3.70861222393283       -2.94790540250869        1.17508331104749
H           -3.21513526304211       -2.54816279855109        0.39939446892213
H           -2.98725441217046       -3.06769915838142        1.83415761762895
O           -2.25476337255639        0.21679732191925       -5.28258900992309
H           -1.92990172726655       -0.30392836207595       -6.02507017829084
H           -1.78671133195794       -0.14359902329419       -4.50989504992236
O            0.61518273131447        1.20571852979801       -4.13144380544606
H           -0.16255861387049        1.74953018406447       -4.32445003036707
H            0.26478364530636        0.34581924189999       -3.84300065966959
O           -4.26819091022505       -0.12319224109919       -0.40186450095867
H           -4.90737863012603       -0.82294053591355       -0.22430791052880
H           -3.51758230062715       -0.59539816370650       -0.80154073468394
O            0.15785249251214        1.67753105815436        3.21008706028191
H            0.43948016233638        2.05391305530735        4.03782610868880
H           -0.79808277619046        1.65165879901544        3.26533048394704
O            2.36725771718316       -2.28895679182622        1.39276206023272
H            2.94661042700231       -1.52959468526849        1.32389283407316
H            2.91661691473755       -3.04414118114652        1.63995488344486
O           -0.94740175889571       -3.46189559307143       -4.36300211867601
H           -0.42184215188661       -4.09415034993784       -3.87883843292047
H           -0.90259146023746       -2.62402491369815       -3.86629004732257
O           -2.19043012444297       -2.00517154210253        3.66950404446908
H           -2.49062964157544       -2.16351088889700        4.57091505807701
H           -2.83485444199144       -1.42252206621501        3.27035143151168
O           -0.32222781828019       -0.25519558533631        5.25655888669580
H           -0.38888617743473       -1.11017589645353        5.70107005852316
H            0.63006503032509       -0.12093880663161        5.17397532915209
46
 energy: -75.117327075750 gnorm: 0.054853517269 xtb: 6.7.1 (edcfbbe)
N            0.06509785297785       -0.99375457500920        2.41297910110382
C           -0.64195311935016       -0.80666203340777        1.13354039060484
C            0.25988053051577       -0.11607711575463        0.11728827954465
C           -0.52006310900213        0.38436596462004       -1.10025228791396
C           -1.16178358945479       -0.75749866025723       -1.90243820541222
O           -2.03171638218796       -1.45173327872687       -1.32533059122540
O           -0.81034727813190       -0.92652404335710       -3.09925941122783
H            0.89597474746872       -1.58671211245667        2.23951413626717
H            0.32449922518385       -0.05453027002545        2.78171286553260
H           -1.53473025030313       -0.20048431683149        1.28768901713633
H           -0.95019995878426       -1.77413468865059        0.74062741481359
H            1.03233208280146       -0.80831625513844       -0.22190081380219
H            0.73787338872346        0.74731848370413        0.58543978066976
H           -1.33647888692271        1.03696835627781       -0.77816846362253
H            0.14087171892777        0.94504942199814       -1.76222508886522
H           -0.58355439602691       -1.44173765197916        3.08841131377898
O           -3.56814206198283       -3.47858472592424       -2.39006271254484
H           -2.95516212438026       -2.78783636041766       -2.08028798587971
H           -3.85537086323890       -3.19315750118262       -3.27252010391827
O           -3.63612879367369       -2.99408368328976        1.14270580007010
H           -3.23378619285021       -2.51141907620515        0.42594367760991
H           -2.98327314905848       -3.06508799507809        1.84591266061263
O           -2.23433782974979        0.20842754065263       -5.25706262566670
H           -1.95188570592208       -0.30109039953166       -6.03672200081293
H           -1.76192332666199       -0.20443056971502       -4.50575264893477
O            0.63172918413194        1.21322383173424       -4.13360433697285
H           -0.14374568845837        1.74754310267412       -4.36869392533121
H            0.27028307071534        0.35449685683023       -3.85356205483507
O           -4.25531458688453       -0.11180605676207       -0.34936975947793
H           -4.92573771596606       -0.82549071176506       -0.24573977538137
H           -3.51362599287295       -0.57829007741146       -0.77703505161983
O            0.16006659944754        1.66340407573272        3.20281914564087
H            0.46555506477520        2.08155265818707        4.01397760947647
H           -0.79904257746599        1.67678152963192        3.26810108190265
O            2.38009148477732       -2.26942564020506        1.44362819088440
H            3.01886540809131       -1.53818047899914        1.29641368622092
H            2.90682300638345       -3.04848106207895        1.66773711660535
O           -0.91822336053395       -3.44660408344624       -4.38366728664631
H           -0.42615498047244       -4.09044189388095       -3.85889277829793
H           -0.90133411291288       -2.61127919012528       -3.89488992756837
O           -2.20972635192122       -2.01414654741024        3.64946167328176
H           -2.49076087007965       -2.19503835253276        4.55486654977777
H           -2.86242716611259       -1.41166571276812        3.27608239843036
O           -0.30875084168503       -0.27420801792488        5.25070458311054
H           -0.38898087688939       -1.11504151626653        5.73131154326334
H            0.66374613121619       -0.12849690692806        5.23125590951608
46
 energy: -75.116442529199 gnorm: 0.069970655380 xtb: 6.7.1 (edcfbbe)
N            0.05269052352532       -0.99646950962952        2.40891537733110
C           -0.65272533562333       -0.81042174373642        1.12901790384119
C            0.24759568508663       -0.11418200821023        0.11594552252298
C           -0.52921793091921        0.38656934930451       -1.10117604723936
C           -1.17067411650645       -0.75035724164815       -1.90525329988347
O           -2.03828425988958       -1.45079081866454       -1.34242262202543
O           -0.81471658853747       -0.91658789631194       -3.09926230675332
H            0.89216695990906       -1.57373525669875        2.24037337143098
H            0.30599337007883       -0.06223147510046        2.78708915570184
H           -1.54619002463584       -0.20793730325426        1.28524579876997
H           -0.96065225311550       -1.77693335043462        0.73548284341023
H            1.02604835638678       -0.79832101295835       -0.21986239674501
H            0.71889409463841        0.74942666553291        0.58399151347251
H           -1.34407958328871        1.03954854092998       -0.78313709464831
H            0.13319744047698        0.94792679325324       -1.75853152142552
H           -0.59197126223390       -1.45001178099462        3.08176901691237
O           -3.57074864738622       -3.49736746624418       -2.40921757484147
H           -2.96626713641045       -2.80109580504497       -2.09045694303520
H           -3.87176757528576       -3.21049914577527       -3.27602450761863
O           -3.61063959432851       -2.99678963780590        1.13894166355837
H           -3.22792837250040       -2.51039825778706        0.42630155681224
H           -2.96722889024688       -3.06585947165975        1.84838624030440
O           -2.22830756578880        0.18994275652596       -5.25085681406901
H           -1.94226181563565       -0.30494213094303       -6.02987750597562
H           -1.76927769346462       -0.21734448802350       -4.50398266742835
O            0.64505723335342        1.22228213136892       -4.14046440418452
H           -0.11872787266425        1.75558324642818       -4.39413508764374
H            0.26647360100795        0.36171631982584       -3.87408557206780
O           -4.28053574867930       -0.12360632271127       -0.39092413302213
H           -4.90298470544022       -0.79929318619675       -0.16609432380843
H           -3.51145038308150       -0.57030420446698       -0.76218926860020
O            0.16459675029408        1.63738707496774        3.19738010644646
H            0.49704043270087        2.10609858200272        3.99085262625498
H           -0.80979834834007        1.72163561314259        3.26872626261439
O            2.40300583119987       -2.26063043292487        1.45898441343838
H            3.03206807604423       -1.53710625257787        1.32891690353732
H            2.90974692679938       -3.04195588475274        1.69163651156821
O           -0.90803442315437       -3.43893137022746       -4.39551661351035
H           -0.42258404729752       -4.08046417592696       -3.84905463997359
H           -0.89617878594205       -2.59549368141562       -3.91917193978386
O           -2.22209293404581       -2.02232405238337        3.63842023754717
H           -2.49884702501231       -2.21884968518121        4.54004132684573
H           -2.88200844908981       -1.41464069860300        3.27479188194196
O           -0.24580858803500       -0.26503039500249        5.38991753130962
H           -0.38977616132269       -1.13972612919584        5.70753590706991
H            0.65621819260057       -0.15080454019151        5.18371970153812
46
 energy: -75.119346190377 gnorm: 0.039491142922 xtb: 6.7.1 (edcfbbe)
N            0.04471351307183       -0.98949799883646        2.40772685666315
C           -0.66039425212198       -0.81001285185466        1.12682988070820
C            0.24055530542946       -0.11156926700792        0.11568819854520
C           -0.53618472683913        0.38838905677189       -1.10263783849178
C           -1.17586361157103       -0.74542629777114       -1.91072338099520
O           -2.04120847975841       -1.45373493224267       -1.35144857280668
O           -0.80806369427786       -0.91462827429454       -3.09918737545515
H            0.89163667995694       -1.55778856193854        2.24225588719667
H            0.28872627679458       -0.05114203579376        2.78676907568988
H           -1.55697738392301       -0.21068660956234        1.28150329142211
H           -0.96303017864023       -1.77925112688217        0.73453944475529
H            1.02204499554564       -0.79443295860694       -0.21887623462154
H            0.70756323810419        0.75432811502692        0.58550685470734
H           -1.35248979973061        1.04167214503650       -0.78629814222307
H            0.12803545068969        0.94827098575665       -1.76021402199590
H           -0.59759558567957       -1.45019523193467        3.07831508863844
O           -3.57254358708352       -3.50649741503849       -2.41942388211956
H           -2.97259739164358       -2.80563635490235       -2.10134339217528
H           -3.87902115339466       -3.22182005235602       -3.28010814531296
O           -3.62443444744796       -2.97161179848911        1.15919991109871
H           -3.20413613183999       -2.54211225815541        0.40272741585323
H           -2.95237500211350       -3.05649229178305        1.84528395152290
O           -2.20965846068446        0.21701793256535       -5.26245504729522
H           -1.94499924971403       -0.30681449909431       -6.02612404500096
H           -1.79122085068795       -0.24944136420382       -4.49803693061365
O            0.65103670717754        1.22417956751697       -4.14829344367602
H           -0.10637998930760        1.75971318092976       -4.41615743754345
H            0.26702086146623        0.37061220094750       -3.87167426018346
O           -4.26537588409377       -0.11507582118506       -0.34523811021662
H           -4.91208139009788       -0.79972980046165       -0.17119034224066
H           -3.51264226700400       -0.57221365329541       -0.75702797598921
O            0.16117012828109        1.69703032436020        3.18682923997617
H            0.50450733257385        2.06364677717096        3.99689111710693
H           -0.78931722441821        1.69851318162229        3.25823163528115
O            2.41232141182340       -2.24909655908306        1.46842663613887
H            3.04328704760421       -1.53620861448380        1.35886752660074
H            2.90763047564561       -3.04518694655340        1.69313646155413
O           -0.91919331057403       -3.44471284044536       -4.38682678410992
H           -0.40890802943206       -4.06870709723482       -3.86175884365977
H           -0.88089180443195       -2.58970616468019       -3.92078844305664
O           -2.22394928255767       -2.02102753098956        3.64177361708143
H           -2.51654428654448       -2.22966014914553        4.53313380887257
H           -2.88967843956786       -1.43748282902162        3.26673021619880
O           -0.23696490447379       -0.27109004924886        5.37357874349326
H           -0.39505060713537       -1.13726365487929        5.73073923605147
H            0.68854933882614       -0.17073931565002        5.21183464452297
46
 energy: -75.113182761377 gnorm: 0.116819099378 xtb: 6.7.1 (edcfbbe)
N            0.03150888212575       -0.98918861364546        2.40678470198695
C           -0.67104428065782       -0.81132140136380        1.12384157495759
C            0.23148893076905       -0.10877955707379        0.11640240540889
C           -0.54467451905695        0.38926288670074       -1.10516467924295
C           -1.17936425860172       -0.74415285814888       -1.91717074942748
O           -2.04379259256133       -1.46067301687022       -1.35999457426551
O           -0.80443954491392       -0.91110177633437       -3.10511892599341
H            0.88666963835954       -1.54830484657976        2.24538103060132
H            0.26839632538655       -0.04865980100641        2.78876083078670
H           -1.57189651521722       -0.21550633491111        1.27572962338122
H           -0.96644294036078       -1.78317062646186        0.73036447963432
H            1.01683058622611       -0.79091994097939       -0.21724168174538
H            0.69292463332043        0.76025331946270        0.59082165728623
H           -1.36356308662351        1.04288219819150       -0.78984853756736
H            0.12109120882412        0.94737973925978       -1.76487447128888
H           -0.61021987418571       -1.45902076707319        3.07260199688733
O           -3.59020104327505       -3.51354614110422       -2.41605031536607
H           -2.98489909341064       -2.80901542961261       -2.11893998087312
H           -3.87513519840949       -3.25641398554265       -3.30000895652343
O           -3.65693639334768       -2.91988199619862        1.18811341039217
H           -3.16840385710343       -2.58056641540272        0.37480158809224
H           -2.91869761570101       -3.06950025426870        1.82620674504765
O           -2.25950145479100        0.12626708279060       -5.24338454031639
H           -1.92290460487412       -0.30826829395600       -6.01391582295098
H           -1.76565735136554       -0.16294759122423       -4.52292785309321
O            0.66377477153154        1.22657845677434       -4.15631417652185
H           -0.08541212037159        1.76268014624807       -4.45653436891319
H            0.27319391749805        0.38650741708733       -3.85988428033647
O           -4.23858567964892       -0.09906476292268       -0.28188226974741
H           -4.92161819765235       -0.79447664977282       -0.17902895526338
H           -3.51112951702404       -0.57276731836659       -0.74512000536986
O            0.16191205525371        1.69108057792504        3.18266232528743
H            0.52383070640044        2.05431454988439        3.98085346811914
H           -0.79961649621295        1.75652097383207        3.25695441683214
O            2.41894746535677       -2.23045956714502        1.50685045673979
H            3.08516198946098       -1.54340921396989        1.37461355523249
H            2.89879277260439       -3.05356333402975        1.70286585143880
O           -0.91973438656579       -3.43738194864523       -4.38837597580636
H           -0.40331034172611       -4.05259804811425       -3.88054328120644
H           -0.86286100217811       -2.58122362656829       -3.92289495799811
O           -2.23113555229300       -2.01617546033008        3.64386508888982
H           -2.54509454088780       -2.25305246633827        4.52062327447450
H           -2.90719467740190       -1.46463677458168        3.25809072206397
O           -0.25057122144927       -0.29136943797508        5.26506985672995
H           -0.40193709069404       -1.11683797267205        5.80056903007482
H            0.76047852164594       -0.19909085836844        5.30307735936813
46
 energy: -75.121483688571 gnorm: 0.026429270267 xtb: 6.7.1 (edcfbbe)
N            0.02920785901849       -0.98670450136058        2.40628802126637
C           -0.67271975135929       -0.81051018532994        1.12305143111840
C            0.22803349930448       -0.10701049509667        0.11531214261081
C           -0.54731306185445        0.38867627310384       -1.10648376477531
C           -1.17714292797581       -0.74873575973120       -1.91526633315945
O           -2.04760808183350       -1.45912849285368       -1.36430815530528
O           -0.80577506923198       -0.91128953818267       -3.10629872592226
H            0.88487825348886       -1.54358374338985        2.24604164912979