46
 energy: -431.752072599154 gnorm: 0.000427865710 xtb: 6.7.1 (edcfbbe)
N       -1.1893123539      0.5453977914      2.0770458118                 
C        0.1793925898      0.3323026233      1.5850890560                 
C        0.3121264830      0.7738691216      0.1367074667                 
C       -0.3877933114     -0.1688657147     -0.8524996169                 
C        0.4701125826     -1.3715190158     -1.1654213924                 
O        1.1893309522     -1.3429894912     -2.2047400839                 
O        0.4704695957     -2.3587837308     -0.3864066714                 
H       -1.2584572994      0.2156367309      3.0597189482                 
H       -1.4474868862      1.5454187401      2.1020794073                 
H        0.8563244995      0.9135489886      2.2037101500                 
H        0.4422860767     -0.7179082664      1.6903608615                 
H        1.3641161378      0.8537809101     -0.1328602039                 
H       -0.1320243748      1.7586719726      0.0327825017                 
H       -1.3378157561     -0.5098481414     -0.4525243601                 
H       -0.5673233261      0.3467336267     -1.7893205576                 
H       -1.8693435271      0.0357940917      1.5013560405                 
O       -1.4968818666     -5.0864425947     -0.4118267338                 
H       -2.3302958980     -4.5852119242     -0.2950802577                 
H       -1.3875988768     -5.1720108018     -1.3799340918                 
O        1.2785764562     -3.0426541150      2.1972397860                 
H        0.7675926044     -3.8697176201      2.2316077861                 
H        1.2433020887     -2.7754074405      1.2678691020                 
O        1.3540446304      1.1139623729     -3.4161679408                 
H        1.2922597493      0.9587058625     -4.3783732967                 
H        1.3302343855      0.2384842195     -2.9825708059                 
O       -2.2622913666      2.9132474466      3.0228453490                 
H       -2.7949302808      2.4835956766      3.7214359868                 
H       -1.8595490302      3.6768203738      3.4551029857                 
O       -1.1819362720     -0.0856582962      4.7510508505                 
H       -0.6568607424     -0.9136417771      4.8326761008                 
H       -2.1198764976     -0.3405315203      4.8962842905                 
O        3.3586164707     -1.1737765801     -3.9076790906                 
H        4.0607930248     -0.8236672422     -3.3216645069                 
H        2.5996702723     -1.2993534005     -3.3123011454                 
O       -3.4857591303      0.3443236597      0.3543717724                 
H       -4.2864928867      0.0432681794     -0.1117705069                 
H       -3.7149501685      1.2583489726      0.6605020961                 
O       -1.7810549794     -2.1013451529      1.2608772277                 
H       -1.6706762613     -2.5322973568      2.1277114985                 
H       -0.9848776025     -2.3077661407      0.7413838688                 
O        0.2984354574     -3.2174984815     -3.9234900229                 
H       -0.4046959676     -2.6287773908     -4.2959547311                 
H        0.6725394827     -2.6787815264     -3.1991498411                 
O        2.4985484951     -4.0063204806     -0.8788819727                 
H        2.6717321648     -4.2212973529     -1.8142593867                 
H        1.6857139347     -3.4369947616     -0.8497707929                 
