22
	Energy:       4.5110078
O         -0.06842       -1.75861        0.75392
H         -0.36399       -1.07060        1.40178
H          0.91205       -1.63552        0.69135
O          2.01739        3.63968       -0.50800
H          1.40164        4.39537       -0.68213
H          1.77030        3.32209        0.39679
H          2.26412       -3.00920       -4.06185
O          1.73243       -2.33168       -4.55051
H          2.02257       -1.46571       -4.16779
H         -1.95966       -0.59958       -1.06241
C         -1.72569       -0.07016       -2.01216
H         -0.26160       -1.40091       -2.57291
H         -2.42231       -0.45039       -2.79217
N         -0.35546       -0.36845       -2.43736
H         -3.05823        1.59327       -1.65615
C         -1.97499        1.44010       -1.85198
O         -0.41919        1.37639        0.09670
C         -1.21920        2.08911       -0.71996
H          0.34124       -0.06770       -1.72132
O         -1.35640        3.28483       -0.52102
H         -0.15070        0.10807       -3.34558
H         -1.72028        1.95020       -2.80604
