37
 energy: -59.753912942401 gnorm: 0.182522589204 xtb: 6.7.1 (edcfbbe)
N            0.06495200000000       -0.17036600000000        2.24069000000000
C           -0.42508700000000       -0.28387700000000        0.86827900000000
C            0.36773000000000        0.64114900000000       -0.07116600000000
C           -0.13442900000000        0.59759400000000       -1.52314500000000
C            0.09666800000000       -0.71348800000000       -2.23073300000000
O            0.72724600000000       -1.73996500000000       -1.62853300000000
O           -0.27063500000000       -0.83895900000000       -3.38700000000000
H            1.07233000000000       -0.44720500000000        2.28653100000000
H           -0.04872800000000        0.81071300000000        2.58374800000000
H           -1.50104700000000       -0.00273500000000        0.84068300000000
H           -0.33838800000000       -1.34087900000000        0.54567800000000
H            1.44982600000000        0.38979400000000       -0.04170700000000
H            0.24571000000000        1.68308900000000        0.29572000000000
H           -1.21792700000000        0.84024100000000       -1.53588800000000
H            0.40005500000000        1.38331800000000       -2.09874700000000
H           -0.48827700000000       -0.80842500000000        2.85559100000000
O           -3.24517200000000       -3.73317800000000        2.72443400000000
H           -2.83098200000000       -3.68322400000000        1.82634600000000
H           -2.47817400000000       -3.76125500000000        3.35016500000000
O            2.97806000000000       -2.18038600000000        2.59082600000000
H            3.07555000000000       -1.21089200000000        2.76742500000000
H            2.38564800000000       -2.50603700000000        3.31443800000000
O           -2.81004600000000       -0.99835300000000        3.31472800000000
H           -2.88131900000000       -1.57373900000000        2.51194400000000
H           -2.45028300000000       -1.59625400000000        4.01736400000000
O            0.94909300000000       -4.19001400000000        0.12282800000000
H            1.40970900000000       -3.65702500000000       -0.57313600000000
H            0.78644300000000       -3.54851600000000        0.85946800000000
O           -0.08817600000000       -2.97305900000000        2.86663900000000
H           -0.81913400000000       -2.88166900000000        2.20485400000000
H           -0.52576500000000       -2.82212800000000        3.74205200000000
O            1.37893600000000       -1.86866300000000        5.57279600000000
H            1.09359200000000       -2.75297500000000        5.23047800000000
H            1.31997400000000       -1.26793200000000        4.78777500000000
O            1.36740200000000       -4.43145700000000        3.62989500000000
H            0.51904100000000       -4.73487300000000        4.04078800000000
H            1.28531900000000       -4.68410500000000        2.67593300000000
37
 energy: -59.787883525124 gnorm: 0.097121384138 xtb: 6.7.1 (edcfbbe)
N            0.06263887639729       -0.17063338487131        2.24592798807025
C           -0.42804827075021       -0.28173647655450        0.86418256702411
C            0.36530347368898        0.64580399937140       -0.05544786819538
C           -0.12335275980913        0.59049989935861       -1.50317584674172
C            0.11416353217086       -0.72518507756434       -2.23197829950804
O            0.71023558777016       -1.69115376199788       -1.61190038331282
O           -0.27427624316745       -0.84296700637772       -3.40301473088136
H            1.05645371193317       -0.45276767681046        2.28458474761296
H           -0.04105797819706        0.79858989898759        2.58642416985578
H           -1.48961107651741       -0.00381927501252        0.83339496571494
H           -0.32399214692008       -1.31757639884089        0.51689794314095
H            1.43032247706748        0.37951146012810       -0.04232806107121
H            0.25458851753638        1.68080536719267        0.29515080476450
H           -1.19760555413130        0.82120931910817       -1.54916724679283
H            0.39119315292889        1.36243972696974       -2.09427014483652
H           -0.48741407787902       -0.80234445261584        2.85598258712738
O           -3.23783165013094       -3.71033147014646        2.71051509468372
H           -2.84525230700623       -3.72136422872135        1.81976892219053
H           -2.48613979083337       -3.81036298616828        3.32558191415729
O            2.93627983740817       -2.14739245955504        2.56018914589072
H            3.10046691391240       -1.21548369616489        2.80034668212128
H            2.41338229137539       -2.51949005614461        3.30143059823663
O           -2.70731086147054       -0.96728946578200        3.30113793299820
H           -2.92772829284943       -1.55840009022512        2.54365826706686
H           -2.50275381271073       -1.59827373589928        4.02966932301879
O            0.95860755605562       -4.18335241309897        0.13954970731014
H            1.36796832046814       -3.65669099335694       -0.56927352743633
H            0.81440740919793       -3.54647392953367        0.86208108361042
O           -0.15232232697183       -2.86514841027870        2.83900186194085
H           -0.88097490442928       -2.85635830910199        2.19533606503873
H           -0.56300200226480       -2.80826179473952        3.72375193914186
O            1.34076558540589       -1.86452619129145        5.56783439684257
H            1.13604744748310       -2.75197234721358        5.21629231078218
H            1.32648903180372       -1.27580005664324        4.79297959053147
O            1.41457845302317       -4.50747591474222        3.66895333502810
H            0.56024763132809       -4.78429502004627        4.04241639668900
H            1.33424924908435       -4.69766759161733        2.71555676818631
37
 energy: -59.802059637536 gnorm: 0.044650976371 xtb: 6.7.1 (edcfbbe)
N            0.05890111057851       -0.16781098004203        2.24747854314056
C           -0.43019613484670       -0.27207298773022        0.85649217425151
C            0.36756659112720        0.65105833321696       -0.05087753508899
C           -0.12042446192624        0.59044018986875       -1.49225473053654
C            0.11645571591049       -0.75281798660528       -2.21546064848325
O            0.71303373041183       -1.64952057838649       -1.60326485051523
O           -0.26870186305415       -0.83413902688580       -3.40658477650445
H            1.03841375767691       -0.46843331271261        2.27845406917044
H           -0.02978677068693        0.79293698125578        2.58428900693344
H           -1.48222699413383       -0.00024788317644        0.82861611475542
H           -0.30654116782925       -1.29122945551053        0.49300472967592
H            1.41823823310734        0.36433438168668       -0.04400571846883
H            0.26965125078889        1.68108437860806        0.28852156079583
H           -1.18915747667226        0.80672293790728       -1.56206661079758
H            0.38660816483305        1.34693339813672       -2.09654497030340
H           -0.50097251032319       -0.79303047780417        2.84953378673215
O           -3.23092026289869       -3.66584102747777        2.68739650543616
H           -2.86751744624100       -3.78199985424044        1.79585728618625
H           -2.49540681930215       -3.88935474160341        3.29105051597152
O            2.88201194256376       -2.10289896840785        2.52350382174532
H            3.13371870152580       -1.21565782316462        2.84598455489255
H            2.43667307221044       -2.53650189921094        3.27845599564061
O           -2.66361371091457       -0.96211645259127        3.30755993144942
H           -2.94063838325798       -1.53813604550243        2.57784188123342
H           -2.52072161083645       -1.57358470413770        4.04372801700780
O            0.95843267268146       -4.16684060510412        0.16577955207881
H            1.31696330835518       -3.65597235494632       -0.56769756250588
H            0.85562274704825       -3.52897331002005        0.88086842049542
O           -0.20545252885528       -2.81327270407656        2.83585052586405
H           -0.91575315846134       -2.85562454174250        2.19446312228822
H           -0.59150445344253       -2.79044546356941        3.71594042981347
O            1.30624938774104       -1.86881733935055        5.55639008738584
H            1.18763410517898       -2.76243520671049        5.19728808857876
H            1.32676515207908       -1.28288472075862        4.79505772232490
O            1.42347644981605       -4.51827522581092        3.69850324324040
H            0.59098405824217       -4.84591603557652        4.04392737017756
H            1.39185060180681       -4.70439388782425        2.75496134593918
37
 energy: -59.802968801706 gnorm: 0.118344866729 xtb: 6.7.1 (edcfbbe)
N            0.05631283585882       -0.16665020942398        2.24319094101508
C           -0.43092798332456       -0.25950026448864        0.84680777746648
C            0.37058598546336        0.66215512826601       -0.05710613766342
C           -0.11794271215771        0.59970895871034       -1.49829154334477
C            0.16123686191787       -0.76125881451363       -2.21294045833891
O            0.70194355575934       -1.65632561533810       -1.56697835632809
O           -0.27125466181634       -0.84082941449772       -3.39367028283645
H            1.02681778448028       -0.49498807262756        2.27057476936950
H           -0.01362331544922        0.79403367178111        2.57928868511344
H           -1.48248872226651        0.00883209856317        0.82219288626593
H           -0.29722534468326       -1.27320661361296        0.47757024815603
H            1.41578065788382        0.35719428562875       -0.04944139823006
H            0.28612986710402        1.69213951763380        0.28279593500810
H           -1.18973946882219        0.79249333505948       -1.57691784500181
H            0.38598895342075        1.35141935665680       -2.10676281418806
H           -0.52275542171541       -0.78570802478023        2.83769185609165
O           -3.22285719843963       -3.66094951986859        2.65805195446342
H           -2.89606824873854       -3.84404234042460        1.76240912227798
H           -2.50635053812244       -3.95165592452658        3.25200739217847
O            2.83776944355532       -2.05452763373711        2.49888660489201
H            3.15351220685717       -1.20950382332827        2.88524551841734
H            2.44596897805153       -2.54836391479441        3.24719747872222
O           -2.49497036305946       -0.91680520578212        3.28003284859303
H           -3.01396637409648       -1.53682323008479        2.62628518808262
H           -2.59929460910759       -1.55727637220707        4.09106282196471
O            0.95766157763884       -4.14778824546934        0.20521292398574
H            1.24247120111573       -3.65002778126317       -0.57867490271192
H            0.91479725143909       -3.49781755610718        0.92022236859266
O           -0.24580151886763       -2.74684145952223        2.83516357164172
H           -0.96025885394495       -2.87263436142158        2.19739818545884
H           -0.62741549684626       -2.80077263929713        3.72095964329657
O            1.24334105535235       -1.87754297759029        5.55114145060243
H            1.25110575943987       -2.78630473248961        5.16294177168288
H            1.34446981389481       -1.28996541212411        4.78957954630164
O            1.42882564025750       -4.50388579748463        3.73553389745461
H            0.61742173789129       -4.92476589863975        4.04814410108455
H            1.47051466407761       -4.69694949685409        2.79123525046532
37
 energy: -59.812724321283 gnorm: 0.069246037874 xtb: 6.7.1 (edcfbbe)
N            0.05657128936590       -0.16292291315902        2.23947225819219
C           -0.43131667260497       -0.24808705779743        0.84044410885263
C            0.37054303798814        0.67377115237154       -0.06327671325535
C           -0.11998514738264        0.60838940795800       -1.50526841298218
C            0.19267572568080       -0.76663369577819       -2.21613560434193
O            0.69506309629473       -1.66907449011233       -1.53496647912023
O           -0.27529078884416       -0.84527980965633       -3.38741814411387
H            1.02025025760422       -0.51682861923185        2.26440976500008
H            0.00284111173183        0.79945303508719        2.57471329906277
H           -1.48448897233986        0.01684497583434        0.81881133382394
H           -0.29120621963969       -1.25930801695139        0.46789649814916
H            1.41247421385453        0.35241429391757       -0.05712647414312
H            0.30076457251330        1.70504125372618        0.27940970321980
H           -1.19396229114474        0.78271534323018       -1.58694505285342
H            0.38281850736879        1.35451875817410       -2.11834871405855
H           -0.54073822459360       -0.77638159350473        2.82872076050603
O           -3.20592315656897       -3.64887685246198        2.63990311397097
H           -2.91146322112889       -3.89350244440944        1.74616213610092
H           -2.52011591465044       -3.98815911697038        3.23260589361819
O            2.81292812427885       -2.01990856472890        2.49799711783500
H            3.15881085926632       -1.21233225196962        2.90484550622075
H            2.44967419930094       -2.55913472953268        3.22127317805380
O           -2.59890835183072       -0.96091479061313        3.30768310393394
H           -2.96254877294752       -1.52608757760684        2.63503365763329
H           -2.54234487118715       -1.49169986325336        4.08928906323947
O            0.95406193700011       -4.13350643844914        0.23020543827435
H            1.18937963675938       -3.64358167439447       -0.58218135706716
H            0.95522917848726       -3.47634543018295        0.94685936620586
O           -0.27854212221410       -2.68420848708815        2.82670115079058
H           -0.99935376853277       -2.87672116749802        2.19681834970578
H           -0.64907023035213       -2.80556119991972        3.72193785010321
O            1.22391632139917       -1.89713283947705        5.53922123604177
H            1.27509258142357       -2.79773982611790        5.14644328607408
H            1.35554862813370       -1.29589397844773        4.78984903529215
O            1.44569811311453       -4.51605029075260        3.76913156327498
H            0.64173617364641       -4.98444065142129        4.05512685165631
H            1.52889616075114       -4.69256884881241        2.81874332710555
37
 energy: -59.813949593436 gnorm: 0.086376904502 xtb: 6.7.1 (edcfbbe)
N            0.05786593236573       -0.15554322000888        2.23298386013776
C           -0.43284279837529       -0.23570404625551        0.83803986994390
C            0.37239554178148        0.68221945446151       -0.06883978516041
C           -0.12547709165430        0.60519854013335       -1.50875879705415
C            0.11059723835616       -0.79723652351732       -2.19071948249216
O            0.74069140251971       -1.65906317472826       -1.54723597464516
O           -0.22818992916283       -0.83882987584915       -3.39971399618164
H            1.01538580709957       -0.53465970480630        2.26138611765679
H            0.02285424246548        0.80987488711937        2.56982473928065
H           -1.48784706586778        0.03267160696130        0.81690525317740
H           -0.30279251692292       -1.25117675787077        0.46840345346499
H            1.41487361804119        0.35542883897016       -0.06553599310220
H            0.31311409595402        1.71715378494516        0.27430428376444
H           -1.19529364243906        0.79189933486923       -1.58367825535129
H            0.38415355855365        1.34040997356249       -2.13504607453726
H           -0.55582928039997       -0.76206525865306        2.81896219830361
O           -3.20255582958198       -3.67023661250556        2.61069061743139
H           -2.92311275730553       -3.89779098998006        1.72690277742576
H           -2.54156130436249       -4.03134045215554        3.21425258116056
O            2.76564529193716       -1.98536952334590        2.47979420980817
H            3.17588273289856       -1.21053300133214        2.93126277847675
H            2.44046160781374       -2.55650778602068        3.20265698651522
O           -2.58240781971535       -0.95679006935536        3.30103682866618
H           -2.96617863468292       -1.54080102606095        2.65485051579109
H           -2.55195770909693       -1.44220645528211        4.12319052906953
O            0.93595859306106       -4.10915298288286        0.23652017995493
H            1.18963135770911       -3.62396026955013       -0.55010524144393
H            0.96927641376689       -3.45831886684770        0.96054852772122
O           -0.31743049117345       -2.75897506811776        2.83600586387970
H           -1.00895767145593       -2.84857036610940        2.20586483067528
H           -0.65075767949817       -2.77912895024016        3.72028096952875
O            1.30731576155935       -1.94840035908172        5.50116033621123
H            1.22006463636356       -2.79672512227598        5.14413911582844
H            1.34189516060454       -1.30686434821767        4.79662500778011
O            1.47755455472802       -4.53478780148268        3.78865304815461
H            0.68465153269641       -5.00683018317193        4.07395587774155
H            1.55263814142069       -4.69302262531679        2.83847324242016
37
 energy: -59.818505563662 gnorm: 0.079257592026 xtb: 6.7.1 (edcfbbe)
N            0.05776932490014       -0.15560974325757        2.22576623927926
C           -0.43191788147846       -0.22612710504586        0.83224618714589
C            0.37918785756764        0.68667222150430       -0.07515326828520
C           -0.11695945852582        0.60100660431127       -1.51424685865766
C            0.11889656719884       -0.79955409882383       -2.19356128240217
O            0.73511189148700       -1.66681391034514       -1.54619202350236
O           -0.21449707692321       -0.85165419899319       -3.39751230172766
H            1.00731827061445       -0.55987009703294        2.25919811508785
H            0.04383625014563        0.81121157329704        2.56369206221897
H           -1.48626608615815        0.04809507210000        0.81042734652013
H           -0.31145064227712       -1.24332598962230        0.46233330774324
H            1.42147446314483        0.36053125938871       -0.07091110969457
H            0.32214725100344        1.72325212037462        0.26507942259433
H           -1.18860083745167        0.78195704476751       -1.58929868703181
H            0.38597099763652        1.33726313693591       -2.14556520352656
H           -0.57380961938784       -0.75150390291787        2.80702178232484
O           -3.20460780209703       -3.63501258877281        2.58236350863064
H           -2.95255206809227       -3.95163506976905        1.68926609614471
H           -2.55224016026474       -4.10502121220550        3.17727009497955
O            2.77786642978747       -1.96098008579072        2.51335931716814
H            3.14168598365998       -1.19314978169240        2.90833241350014
H            2.41530500375982       -2.53255378339427        3.18663547441321
O           -2.52921871382040       -0.93688738875826        3.30579872497433
H           -2.98904701752416       -1.54487226231029        2.68929968163222
H           -2.56165536842504       -1.40399635425362        4.16594561685909
O            0.94846255191423       -4.09098951152808        0.27302191819286
H            1.14369880117787       -3.59695957424495       -0.53567460619309
H            0.98317447244130       -3.43262267820007        0.98182370471060
O           -0.33359696724211       -2.74403907399420        2.83962471005303
H           -1.03702008641576       -2.86889813312386        2.21813632516591
H           -0.66254856651126       -2.79848828702765        3.72995526050467
O            1.21078588723543       -1.94873470935069        5.51324267335306
H            1.31642387028367       -2.84073576636751        5.09002113647932
H            1.35219975417254       -1.31248319393544        4.79765735881819
O            1.49260673734055       -4.51945562939152        3.80466452172921
H            0.72812323035515       -5.03999679160009        4.09102062220236
H            1.58365775676982       -4.69375311092911        2.86295271859797
37
 energy: -59.806125964272 gnorm: 0.158600590783 xtb: 6.7.1 (edcfbbe)
N            0.05781385464320       -0.15688845662050        2.22218031954299
C           -0.42914565945058       -0.21742513397098        0.82917910868291
C            0.38628835382853        0.68844923628183       -0.08041647159601
C           -0.10454249717748        0.59836187416560       -1.51837668361047
C            0.21927503891642       -0.76290266573823       -2.22830924683042
O            0.67889405839993       -1.68897628793509       -1.53402929115273
O           -0.24275357173173       -0.87886071595175       -3.38022511055994
H            0.99907885710304       -0.57875823312251        2.26192295133818
H            0.06245122664759        0.80960119136913        2.55905184167607
H           -1.48131831180506        0.06409371744169        0.80605512652651
H           -0.31829514612495       -1.23507518039068        0.45726902176114
H            1.42844631080847        0.36914821084522       -0.07357522314225
H            0.32461212157914        1.72531516616346        0.25365703552537
H           -1.18341705658929        0.76305695936598       -1.59590430088084
H            0.38166659998108        1.34430754507882       -2.14749306923738
H           -0.58841602526362       -0.73874735235773        2.80071035031356
O           -3.19232293619908       -3.71723772247171        2.56353842365718
H           -2.96608508747986       -3.96865288584989        1.67420444901937
H           -2.56754269290510       -4.05727106649227        3.16562895931118
O            2.63863730818729       -1.90060102138474        2.43187541085279
H            3.20628095326788       -1.19803609035082        2.98655749097288
H            2.44039040875162       -2.55204796403400        3.19000376992727
O           -2.48581709491358       -0.93005695562952        3.28617975015199
H           -3.02047356399300       -1.57761500667252        2.71323359070853
H           -2.56394698017774       -1.35820145052980        4.18484353483362
O            0.95273968685667       -4.07673629317049        0.30420365839363
H            1.09498474417332       -3.57302056653606       -0.52545665301263
H            0.99205154328454       -3.41505515942805        0.99985962069608
O           -0.31422213555145       -2.66472444304178        2.83157666110092
H           -1.06708844319936       -2.92264655465503        2.22642877142670
H           -0.66317089633560       -2.84371574488737        3.74357222007305
O            1.17628542655982       -1.95475368394017        5.51386037304753
H            1.34772763607621       -2.87060316117055        5.06030687094936
H            1.35883443456439       -1.31794926127780        4.79542924669116
O            1.49615547483351       -4.50087683105750        3.81497294899664
H            0.76098399783463       -5.06344196862215        4.10296812995195
H            1.60467506260147       -4.69719104342149        2.88255741389727
37
 energy: -59.822098746606 gnorm: 0.070307513030 xtb: 6.7.1 (edcfbbe)
N            0.05912703327227       -0.15741867575847        2.22186505772735
C           -0.42867865395901       -0.21513957061394        0.82773052835541
C            0.38707809252280        0.68936242867258       -0.08209203486598
C           -0.10488146374535        0.59914502987948       -1.51985023977958
C            0.20839981577347       -0.77070204951977       -2.22538089623659
O            0.68140041889200       -1.68732316420222       -1.53284430214656
O           -0.24257333260441       -0.87556066347836       -3.38654708054313
H            0.99628165967963       -0.58804294383176        2.26162210182101
H            0.07102147293659        0.80788593807155        2.55771542388262
H           -1.47876881338544        0.07039628425158        0.80571626795764
H           -0.32088616790916       -1.23137622740237        0.45386699205087
H            1.42832172973585        0.36768823630312       -0.07376325401938
H            0.32614478171987        1.72622241357283        0.24963042694708
H           -1.18251092904337        0.76228387111308       -1.59603613881755
H            0.38033773992447        1.34333327719398       -2.15058351540478
H           -0.59178921342037       -0.73405713501191        2.79994428055553
O           -3.18809562278560       -3.69703196592042        2.55387507444511
H           -2.96807357889633       -3.98197037657797        1.66975708252697
H           -2.57764521460373       -4.07678138773392        3.16325608761870
O            2.71391257091157       -1.91312535339417        2.50569751694601
H            3.15233502014945       -1.18939588185272        2.93820024016836
H            2.39543231268690       -2.53011394009601        3.16365892706473
O           -2.50800067091821       -0.94290000757431        3.29608337644718
H           -3.00127540839812       -1.56586165221018        2.72072179417849
H           -2.55939709099682       -1.35111163932314        4.17694291548493
O            0.93967472001522       -4.06362351414216        0.30089801306184
H            1.09555035308151       -3.56667081347646       -0.51397182742618
H            1.00235960632202       -3.40641655044176        1.00770051378899
O           -0.33145930279698       -2.70029890351112        2.83505935126910
H           -1.06491710167865       -2.90523194493811        2.23054447938628
H           -0.65832468729111       -2.82943833083407        3.74004539643300
O            1.27140119379102       -1.99602907202400        5.47696480078868
H            1.26957287880603       -2.84826538744493        5.08371580684059
H            1.34545897435432       -1.33020652307806        4.79817039996983
O            1.51135273494808       -4.51440395691826        3.82543002667982
H            0.77427801303987       -5.06444482257188        4.10829732221374
H            1.61755112987082       -4.68911002517492        2.88600008463300
37
 energy: -59.790339472332 gnorm: 0.209438931739 xtb: 6.7.1 (edcfbbe)
N            0.06072674893226       -0.15979473625019        2.21766123257761
C           -0.42718251844584       -0.21472137045237        0.82455987183571
C            0.39111608657040        0.69061229110376       -0.08654166415033
C           -0.10290785677374        0.59790162076822       -1.52792842026648
C            0.05981922560963       -0.82900158719284       -2.17608766445195
O            0.75523572692104       -1.67504595894687       -1.54931963317722
O           -0.17937777772151       -0.85407884018202       -3.41452078654085
H            0.99602861992043       -0.60277687252645        2.26154485890780
H            0.08030305483926        0.80727086163405        2.55574482447353
H           -1.47854611883037        0.07739847451938        0.80288674490218
H           -0.32899764938238       -1.23478054006875        0.45245052193973
H            1.43529259879105        0.36448488267270       -0.07124970587417
H            0.33170506191779        1.73069068899927        0.24725797869455
H           -1.17453968520655        0.77208312234090       -1.59324034902331
H            0.39275364421344        1.33865981799928       -2.16316169864815
H           -0.59793113287954       -0.73347412747529        2.79448331105368
O           -3.20195739510377       -3.53010541908254        2.53609887889574
H           -2.97979756909163       -4.03183690392502        1.64212684630962
H           -2.58180078596000       -4.23056642543328        3.15039769398495
O            2.64564924862203       -1.87281346279266        2.46677557806609
H            3.17655293155727       -1.18148511407841        2.97300748595985
H            2.40673761135184       -2.52643597827444        3.16500934272211
O           -2.56366352464287       -0.95646201224241        3.34185658007333
H           -2.94519835791610       -1.50981133053498        2.72607610131264
H           -2.54745427523748       -1.35967443455412        4.17798795813086
O            0.93599486012471       -4.05206407085735        0.30415229783764
H            1.08809743181323       -3.55528560843958       -0.50148507287229
H            1.01036113567223       -3.39218984949790        1.02021020027994
O           -0.36740227708423       -2.79953338375277        2.85000431414804
H           -1.04707866737808       -2.86293570492286        2.24344317373273
H           -0.65658376853416       -2.80286832825722        3.72940225221340
O            1.17204266916443       -1.99661627916295        5.49452511697797
H            1.35090820111576       -2.86708894650780        5.04439520920476
H            1.36416898561741       -1.33751732116501        4.80086075469904
O            1.52382376341522       -4.51373224469433        3.83593208515357
H            0.78893467887099       -5.07661287942191        4.11672479904315
H            1.63388207514918       -4.67552702934436        2.88599998187801
37
 energy: -59.826332972208 gnorm: 0.062937166472 xtb: 6.7.1 (edcfbbe)
N            0.06157649170794       -0.16018136313669        2.21747797644508
C           -0.42700988583776       -0.21095023245419        0.82514024095651
C            0.39225066433751        0.69047052543642       -0.08686423557937
C           -0.10583027445661        0.59360357171030       -1.52443854640900