46
 energy: -76.939874769089 gnorm: 0.189918680763 xtb: 6.7.1 (edcfbbe)
H           -1.84541000000000       -0.79975000000000       -1.18451000000000
C           -1.61918000000000       -0.20418000000000       -2.09629000000000
H           -0.14434000000000       -1.48306000000000       -2.74231000000000
H           -2.31624000000000       -0.53248000000000       -2.89815000000000
N           -0.24970000000000       -0.46180000000000       -2.54792000000000
H           -2.95995000000000        1.42360000000000       -1.62583000000000
C           -1.87615000000000        1.28892000000000       -1.83036000000000
O           -0.32041000000000        1.08865000000000        0.10760000000000
C           -1.12195000000000        1.85663000000000       -0.65556000000000
H            0.45020000000000       -0.19325000000000       -1.82267000000000
O           -1.26234000000000        3.03493000000000       -0.37132000000000
H           -0.06085000000000        0.06694000000000       -3.42993000000000
H           -1.62217000000000        1.86564000000000       -2.74452000000000
O            0.64356732920000        4.19479525220000        1.94627962350000
H            0.66330521060000        5.11509976670000        2.31124300060000
H           -0.12048471350000        4.19396885920000        1.31633105170000
O            1.38143782270000        1.95655238420000        2.03072688870000
H            1.02245643730000        1.96693135950000        2.95350358530000
H            0.66810900110000        1.53058428820000        1.49178104400000
O            0.44686921360000       -0.88406384540000        1.35376492930000
H            0.34219893290000       -1.79593328880000        0.98226339440000
H           -0.00223576990000       -0.29522963440000        0.69629623360000
O           -2.25326806400000        5.49642628880000        0.66978133710000
H           -2.35796806400000        4.58462628880000        0.29828133710000
H           -2.70236806400000        6.08532628880000        0.01228133710000
O           -3.48774192020000        3.36818307460000        1.77565516490000
H           -2.79580934320000        3.30544796180000        1.07021403010000
H           -4.23438424360000        2.81009130460000        1.44120174960000
O           -2.50645381980000        0.97855747700000        1.76575275110000
H           -1.94473826580000        0.81796781330000        0.96632401990000
H           -3.35261477750000        0.50072145080000        1.57441243710000
H            1.11191072000000        1.12974884710000       -0.25843551470000
O            1.90394290160000        1.65398118240000       -0.53857357350000
H            2.32750261720000        1.93644978490000        0.31096526370000
O            1.24280321820000        4.01148250290000       -1.36205487450000
H            0.42531148870000        3.46108593250000       -1.26629168990000
H            1.54841024970000        4.16550880590000       -0.43264269990000
H            1.86440558940000       -0.29786354930000       -5.02866776950000
O            1.77313401470000        0.06444375920000       -4.11159919860000
H            2.69554508230000        0.31288831460000       -3.85017864610000
H            2.75780578420000       -1.50608934410000       -1.56025214570000
H            2.19835276090000       -0.75253672840000       -0.30657602330000
O            1.96610033330000       -1.00844869410000       -1.23474337120000
H           -0.81373380700000       -3.92165763790000       -4.22220145700000
O           -0.28470892910000       -3.46923168200000       -3.51808330420000
H            0.62373575860000       -3.85414791200000       -3.60453025420000
46
 energy: -76.980543088840 gnorm: 0.095565909267 xtb: 6.7.1 (edcfbbe)
H           -1.84225317606940       -0.79448763647379       -1.19429224123958
C           -1.63596040400698       -0.21250826722791       -2.10118685103814
H           -0.14411220235212       -1.47912522851556       -2.75073590325935
H           -2.32523850338545       -0.53788724812522       -2.88901995423577
N           -0.26602570303612       -0.47147081117206       -2.55027897043882
H           -2.94899875650489        1.42991603194821       -1.63670557663264
C           -1.88185708678412        1.27274149931817       -1.83754901828134
O           -0.38074961417420        1.08524944024016        0.05921553545706
C           -1.14113461201886        1.86121090386826       -0.66115471998876
H            0.44669054051727       -0.21329772246955       -1.83969560216984
O           -1.28696382194416        3.05006293862426       -0.37495998651568
H           -0.04713328200826        0.05446817979752       -3.41238209320193
H           -1.62462225112040        1.86594298917154       -2.72436620326490
O            0.64558299725889        4.24371035103877        1.92682219514644
H            0.63586945084574        5.13703048409589        2.30631198616069
H           -0.12311384277856        4.20404675606031        1.32881187178006
O            1.40805051388920        1.87139353819153        2.07018693829659
H            1.02288171895909        1.97093010417911        2.95701456468010
H            0.64737354879516        1.56442771866580        1.51573122293198
O            0.45672631463352       -0.93035752208844        1.35841559487086
H            0.33543899896913       -1.81302538482459        0.97570634156387
H            0.00764419272854       -0.31348911025871        0.73151808905332
O           -2.24636161595435        5.53539985328478        0.64923660585671
H           -2.30993733991148        4.63976478470834        0.27292032516282
H           -2.70480883311457        6.10211688052988        0.01002696129449
O           -3.53016034008007        3.38803732907107        1.76686834204663
H           -2.79876220545103        3.25096661287839        1.12996316381418
H           -4.24415022186192        2.81296187047392        1.44730220037876
O           -2.52751359311355        0.93624214378955        1.78255697948645
H           -1.94296265733426        0.80815540820734        1.01155978384093
H           -3.35283627070295        0.47253441101132        1.56909011834597
H            1.13559753348132        1.17552264341156       -0.29778393569794
O            2.00538712754817        1.59480328647654       -0.55597141878533
H            2.32709446156793        1.94856441525960        0.29689875012948
O            1.22352761789170        4.06715934752959       -1.36242935332383
H            0.44432033476132        3.49297585959809       -1.25869164574170
H            1.55533617896780        4.15966867051980       -0.45094171872277
H            1.88635492448516       -0.29047242518047       -5.03654329964777
O            1.78511621110377        0.06428671311109       -4.13909595050908
H            2.67595824916334        0.32104743498119       -3.85486736299904
H            2.76805107949455       -1.49693296673826       -1.54487926466819
H            2.19892664861943       -0.74836184683161       -0.31630071024765
O            1.97242503928296       -1.05358787776981       -1.21237568022704
H           -0.80853552124916       -3.90712248955269       -4.20564483136670
O           -0.27566414885769       -3.45721226617950       -3.52886762795844
H            0.60740700545066       -3.85554312503278       -3.59897899363512
46
 energy: -76.998821806805 gnorm: 0.038057962717 xtb: 6.7.1 (edcfbbe)
H           -1.83917613131492       -0.78610077306092       -1.19955945160969
C           -1.64989185397162       -0.21588018354143       -2.10623665198124
H           -0.15018247601429       -1.48430623268836       -2.76427737347130
H           -2.33583020739147       -0.54387627034250       -2.88163658956398
N           -0.27993557480047       -0.48613753423358       -2.55490833428085
H           -2.95496712838401        1.43511601380313       -1.66268467575985
C           -1.89715898798829        1.26422531849767       -1.85579487894846
O           -0.43039072600354        1.08133937677885        0.00706555634700
C           -1.16131242838473        1.85666779696610       -0.66572551693665
H            0.44426934848930       -0.24697089629298       -1.85297153426881
O           -1.32617501962913        3.05443019855901       -0.38265631085574
H           -0.02556203804907        0.04206079112903       -3.39744283734805
H           -1.63076874218800        1.86737659254937       -2.72278839744479
O            0.64261831013548        4.28978211550733        1.89671601614515
H            0.60809057236038        5.15735541415443        2.30137261918249
H           -0.13295799085914        4.22110885787623        1.32957740145142
O            1.40752509014119        1.84025735844343        2.09476073024888
H            1.03530957728299        1.96121505103522        2.96445190348081
H            0.65357036113836        1.56219617461092        1.54325529568449
O            0.45755767842919       -0.98682103840466        1.37599826263171
H            0.33100700157491       -1.84261434835249        0.96638971524121
H            0.04422324716830       -0.33773590691768        0.77219287263183
O           -2.23311869287797        5.58063191209225        0.62894685562252
H           -2.24266540437919        4.69391094375012        0.24980685876296
H           -2.71013110324379        6.12846747573443        0.00623149370947
O           -3.56433679135359        3.39660362090612        1.76596470142826
H           -2.80942997002534        3.22090121661613        1.18262967299825
H           -4.26408743413969        2.82138867265186        1.45581891290759
O           -2.56104305528683        0.89246123617642        1.80625769210808
H           -1.92911084681229        0.78655039252626        1.08075439800886
H           -3.35659679710108        0.41656651836648        1.56681080533411
H            1.17031552795820        1.23193204153566       -0.33070225237545
O            2.06479929159234        1.59407074335604       -0.56320642658561
H            2.36011772235244        1.92747447109771        0.28381754028095
O            1.23031361568209        4.08716580178660       -1.35934308368856
H            0.44182460856361        3.55168583643307       -1.24659713444559
H            1.56183752332715        4.18217668267086       -0.46386980940078
H            1.91454003936972       -0.28140548985739       -5.05935280356583
O            1.79291440997158        0.06304459710070       -4.17530672713468
H            2.65149048285362        0.33922126964997       -3.85532529722347
H            2.78788504457999       -1.49359891640116       -1.52744446416250
H            2.19090502727081       -0.74118862640999       -0.32552675335281
O            1.97253298158094       -1.12111923604193       -1.18690909837929
H           -0.80896576463448       -3.88246899214359       -4.18686393494167
O           -0.26409287934733       -3.43505178120017       -3.53659899581122
H            0.59614526695788       -3.85565159487102       -3.58463131416917
46
 energy: -77.009561187220 gnorm: 0.050752762702 xtb: 6.7.1 (edcfbbe)
H           -1.84279888538980       -0.77587273650078       -1.20201802290579
C           -1.65991783035449       -0.21629338958326       -2.11763659984053
H           -0.16859624640370       -1.50028223972773       -2.78380482454714
H           -2.34882081267341       -0.55621622526457       -2.88649436677213
N           -0.28888305173532       -0.50260705649664       -2.56222887787504
H           -2.97353574429256        1.43850824249469       -1.69934941809567
C           -1.91383459241707        1.26574821297212       -1.88162182393009
O           -0.44469972415878        1.07118186793704       -0.02183685386107
C           -1.17878463447993        1.84867441032895       -0.67205664264594
H            0.43648985755907       -0.28853789620572       -1.85295578551722
O           -1.36250842161280        3.04958494937436       -0.39192169151233
H           -0.00587164027923        0.03397641730605       -3.39236505305632
H           -1.63367377392784        1.86926540440999       -2.74319413184819
O            0.67183265293109        4.33871973388951        1.83524046765506
H            0.56283645915049        5.17874503044710        2.30989595495921
H           -0.15323035407966        4.22355546316440        1.33341471433587
O            1.42754697669545        1.76907217829413        2.12974375251685
H            1.04596711568460        1.99411522907847        2.99309566225106
H            0.62962939771275        1.58418561236957        1.58339212999973
O            0.46416086751745       -1.04194199246918        1.39641234989305
H            0.32667620505553       -1.88153557593495        0.94962411173246
H            0.07600293691221       -0.36229033893744        0.81903101983023
O           -2.20908867677258        5.63190357580281        0.60894190428988
H           -2.15249787760647        4.74403429550869        0.22216045625002
H           -2.73126835254846        6.16087814712565       -0.00053389136839
O           -3.61041016214331        3.43210041652021        1.75921805811155
H           -2.81204161010125        3.18720295073451        1.24111581984911
H           -4.29043005383267        2.81708416459811        1.46962543764915
O           -2.59387086559156        0.84176967168461        1.83997888450053
H           -1.90639346508384        0.76553528239934        1.15547053664700
H           -3.36028958534193        0.33495950904243        1.55343064832906
H            1.21342937854495        1.25405900644742       -0.37749265922338
O            2.13371457124216        1.55840964909615       -0.57465215235125
H            2.37852067972860        1.93979539212870        0.28050016978217
O            1.21287443321364        4.14377937117343       -1.35833317700499
H            0.42074464272934        3.61419771450010       -1.22967265459569
H            1.59681219197383        4.19591239526773       -0.47234556899778
H            1.95731905148712       -0.27004644064254       -5.09914063506947
O            1.78868870981097        0.05553449206309       -4.21257919373923
H            2.62047343055900        0.37389609892399       -3.84640835049486
H            2.81793325297774       -1.48004263144968       -1.51317510278403
H            2.17944902375683       -0.72997723858303       -0.32794143012811
O            1.95844782895680       -1.20124785988034       -1.15474378894506
H           -0.82116872633936       -3.85205898834640       -4.16485124442355
O           -0.24590705729808       -3.38480645946305       -3.55105099481907
H            0.59087716486471       -3.86617114399510       -3.55942848572927
46
 energy: -77.016616956870 gnorm: 0.045053027411 xtb: 6.7.1 (edcfbbe)
H           -1.85055221589102       -0.76244182840092       -1.20776155814434
C           -1.67217557486624       -0.21835865462237       -2.13578840744477
H           -0.19440825931504       -1.51989086632449       -2.81249345658106
H           -2.36423128062915       -0.57452186803748       -2.89738755076682
N           -0.29923658361982       -0.52138457948496       -2.57285598577215
H           -2.99147181857426        1.44340592822453       -1.74751844372036
C           -1.92846731172459        1.26746135655489       -1.91264529215576
O           -0.46819464405364        1.05670858217143       -0.03891212618269
C           -1.20001568612206        1.84209835278337       -0.67980284879060
H            0.42133371559633       -0.33860667672841       -1.84860127152938
O           -1.40662002928463        3.04315078325170       -0.39651146513403
H            0.01580161808621        0.02577506928827       -3.38823707431084
H           -1.62965953352326        1.86985452692804       -2.76882393237857
O            0.64214091087250        4.38693041140905        1.81585523713396
H            0.53974979968065        5.21941367406072        2.28020445285333
H           -0.16145102257895        4.25885141567099        1.30527593747056
O            1.42419728790713        1.75300799079543        2.15502536548943
H            1.07722611241271        1.97214068637903        3.01965574942364
H            0.65169429345532        1.56537950431405        1.61476726014786
O            0.45763445172939       -1.11393047858879        1.42938738199346
H            0.32825878493343       -1.93017402433405        0.92517635586871
H            0.11812921608341       -0.39672092802080        0.87114093642307
O           -2.16417954038347        5.68192370870271        0.58034705840318
H           -2.06437104702402        4.80136543399220        0.18501481742100
H           -2.74653658445950        6.19462764662984       -0.00045985561010
O           -3.62685982489442        3.42205319989645        1.77803900933789
H           -2.85556450309270        3.19731766865873        1.26718778146486
H           -4.32208112115854        2.81916953349726        1.50244573269053
O           -2.62629016880543        0.79234447597561        1.86972307573709
H           -1.89181323864116        0.73228310715703        1.23137590941712
H           -3.35174230590543        0.23334244773342        1.55086768088731
H            1.26153652926547        1.28370055130079       -0.40834190294628
O            2.19266854578359        1.53683111125785       -0.57380256065991
H            2.42766086145240        1.93142812258070        0.27629345353639
O            1.20383698776987        4.18995058933407       -1.35462345914109
H            0.38311586515945        3.70182537679522       -1.20270227483527
H            1.62288368149263        4.23274358201806       -0.48125252523366
H            2.00692213045497       -0.25171617039926       -5.14473913428657
O            1.78044793877100        0.05404675548149       -4.25730315902919
H            2.58003717477740        0.41430754723517       -3.84234679862914
H            2.81365691369675       -1.50944214234276       -1.48228799550977
H            2.15406345383292       -0.76438998221505       -0.31443627790789
O            1.98520596510065       -1.20394111926937       -1.14238618682927
H           -0.82828633206874       -3.81036439406448       -4.13905625734722
O           -0.22933369476229       -3.34074166197651       -3.54744268851634
H            0.58724476766435       -3.86035709366389       -3.52880404980566
46
 energy: -77.021025485929 gnorm: 0.054499683725 xtb: 6.7.1 (edcfbbe)
H           -1.86379415606427       -0.75338511806822       -1.21983953466597
C           -1.67853703146178       -0.22331130507735       -2.15608220030408
H           -0.22360102641389       -1.54116244308639       -2.84874061165836
H           -2.37207948985443       -0.58709048270329       -2.91491380374397
N           -0.30441106191593       -0.54207906679606       -2.58356620833950
H           -2.99619575172759        1.44720181992668       -1.79518737622075
C           -1.92914365297641        1.26622804822505       -1.93923470530210
O           -0.48880701930550        1.04691347585072       -0.03765905207785
C           -1.21640516294497        1.83604015531578       -0.68744211423925
H            0.40556298126136       -0.39672989022490       -1.83783468119456
O           -1.43475868724918        3.03379270920337       -0.39991994502514
H            0.03557013866351        0.01803410851144       -3.38344862301916
H           -1.61151757054384        1.86526042897264       -2.79259846423650
O            0.64222995951543        4.42995019450337        1.77048606804596
H            0.50974488739628        5.24355553324739        2.26297979281672
H           -0.17704894179509        4.27582322075195        1.29027325184667
O            1.43538715513797        1.72784543747045        2.17410516191731
H            1.11847005726217        1.96782734075285        3.04057649072300
H            0.65406890641047        1.58097828112794        1.63595713807959
O            0.44555968815403       -1.17063314615769        1.45718185187085
H            0.33108745021780       -1.96720567675139        0.91324107061481
H            0.15422847668685       -0.42849013760558        0.90410208431128
O           -2.11551101401019        5.70840893569827        0.55599499150744
H           -2.02465633819098        4.83946488456210        0.16085848875839
H           -2.72659796762862        6.21216494151651       -0.00229452838600
O           -3.67491740646310        3.47271673215419        1.76205580395890
H           -2.86430382752253        3.16829722321129        1.31360041428467
H           -4.34559362219082        2.81106944374290        1.52893432212312
O           -2.63993507034578        0.75620079368416        1.88262083939969
H           -1.89922197027437        0.68829708910591        1.27093814767896
H           -3.32763536320155        0.14362000396470        1.57654485740565
H            1.29310781196009        1.31245571293402       -0.42752550267579
O            2.21536651926030        1.54834036622880       -0.56441838217055
H            2.49627698454642        1.88906836879587        0.27355417517482
O            1.20874750397008        4.20418600016458       -1.34731588300967
H            0.34089165488518        3.78973189194368       -1.17157294058147
H            1.62268272086098        4.28889020497467       -0.48604852179343
H            2.03281076529357       -0.23019886695617       -5.17097071270769
O            1.77270293788977        0.07525667240907       -4.29204718864754
H            2.55234679556023        0.43402075940247       -3.85511864127839
H            2.84424782535849       -1.48277332900678       -1.46486450742789
H            2.13504384422178       -0.73618233704130       -0.31847849459634
O            1.95364597570949       -1.30413017281427       -1.09951480092921
H           -0.83209927152406       -3.76120364989364       -4.12258401436869
O           -0.23205831180889       -3.32562335020656       -3.51493132628652
H            0.58095335979192       -3.82498513435702       -3.50939352913029
46
 energy: -77.022570836952 gnorm: 0.068390738136 xtb: 6.7.1 (edcfbbe)
H           -1.87649668310890       -0.75153597262271       -1.23167120465948
C           -1.68002448996287       -0.23094205958305       -2.17091322837933
H           -0.24510419135979       -1.56009191607098       -2.87678801635388
H           -2.37414712347778       -0.59374506737947       -2.92962788770427
N           -0.30646577667665       -0.56113637327557       -2.59207884793347
H           -2.98972041324676        1.45017176453702       -1.83454927115153
C           -1.91997802496157        1.26151416042989       -1.95889121718094
O           -0.50311315296137        1.04860855531019       -0.03025496331141
C           -1.22551339457160        1.83134115314459       -0.69625121294005
H            0.39045564315237       -0.43977437192914       -1.83042949454502
O           -1.44179447931595        3.02689738595851       -0.41291311848390
H            0.04496211169299        0.00673507377826       -3.38065674175894
H           -1.58587080616436        1.85474240427972       -2.81158332437552
O            0.67365701901098        4.46322179209942        1.70094014946582
H            0.47441150729445        5.24887283280412        2.26085260307271
H           -0.19938828710944        4.27017578670058        1.28952940691676
O            1.46402288321479        1.66664675705822        2.19675011410852
H            1.14857406904823        2.00382098571453        3.06136732946697
H            0.62035594854161        1.63451081812259        1.65705090782819
O            0.43519776558512       -1.20535439816703        1.47130003422310
H            0.33795079010058       -1.98858250797581        0.91171714115908
H            0.17496874806729       -0.45312014442465        0.92016389583994
O           -2.09430682255703        5.72267943227242        0.54497622294668
H           -1.99320076025316        4.86269469908494        0.13361172867304
H           -2.68637983530922        6.22171042519738       -0.01503709430991
O           -3.69437129371751        3.48508380575818        1.76681990368396
H           -2.88298038317431        3.16854376369973        1.33308880490067
H           -4.36912887826095        2.82422915426507        1.55237948907399
O           -2.65648754230184        0.73430726437114        1.88564759747803
H           -1.90318622427455        0.64792513192943        1.29976697863901
H           -3.30306776856512        0.06353927351852        1.60432670741871
H            1.30763518200213        1.33376061273145       -0.44979530997658
O            2.26266472006688        1.51208049500057       -0.55414036363368
H            2.53142592221921        1.87133984374539        0.28838767344979
O            1.19055378257310        4.22929566897980       -1.33777111266824
H            0.31695953081204        3.84007326958117       -1.14240702225121
H            1.61602316643370        4.32896482871438       -0.48544240734797
H            2.04153542738166       -0.20458468781232       -5.18738800910536
O            1.76163578428690        0.10251814145709       -4.31906804933199
H            2.52711822158367        0.45904467792895       -3.87616607693029
H            2.82183710299249       -1.52148950936585       -1.43999763919935
H            2.11516471192083       -0.76897858154294       -0.30043422418609
O            1.97154590258922       -1.28276741895317       -1.09491334936055
H           -0.83746540527992       -3.71694249280494       -4.10651295081461
O           -0.22856450403724       -3.27957155290739       -3.50815767409219
H            0.57000498467783       -3.80997623175012       -3.47437821985718
46
 energy: -77.024303652285 gnorm: 0.064822075051 xtb: 6.7.1 (edcfbbe)
H           -1.88600449963656       -0.75630036310194       -1.24277548867022
C           -1.67714052952762       -0.23747313886186       -2.17874398162369
H           -0.25769745319781       -1.57404423851266       -2.89454432359160
H           -2.37140285136607       -0.59033169363248       -2.94041298919288
N           -0.30565951356720       -0.57699263456761       -2.59657683839598
H           -2.97365575366006        1.45439140868530       -1.85680717981876
C           -1.90367808103223        1.25646398972432       -1.96741050433604
O           -0.50744796660790        1.05293116003609       -0.02013437636627
C           -1.22358944353942        1.82770424373234       -0.70267212935108
H            0.38172112906678       -0.47113557442046       -1.82739901929465
O           -1.42837812264870        3.02325787313692       -0.42648567036528
H            0.04770222990855       -0.00549307114879       -3.37770053470779
H           -1.55851777668269        1.84492344967413       -2.81958875481968
O            0.60618159606743        4.46249523330981        1.74148781180338
H            0.49646147643460        5.27749599783101        2.20754964961019
H           -0.19176137249342        4.30276674735156        1.24724796143701
O            1.45614702681527        1.69197322036227        2.19708788963434
H            1.16191098312584        1.98089689536604        3.06819831079645
H            0.65069960265398        1.61079773764312        1.65684612829072
O            0.42806506420253       -1.22201627000776        1.47464308649916
H            0.34185341992451       -1.99826816708880        0.91557754504284
H            0.17308813422334       -0.46829669760139        0.93007732199102
O           -2.07824585285719        5.73129805109877        0.54144283867832
H           -1.96097271670887        4.87092196694878        0.11430710833604
H           -2.67493685610169        6.22421972504081       -0.01361106047302
O           -3.69820333435348        3.47087375986467        1.78096459989503
H           -2.90464276164940        3.17905114586806        1.33617238765325
H           -4.38828811830726        2.84051492750270        1.56731316751795
O           -2.67879975069475        0.71648432723572        1.88355059082627
H           -1.89540442977036        0.62102434915767        1.32110471382400
H           -3.29302421530896        0.01017026499304        1.61193482584903
H            1.31424641258916        1.33957109856671       -0.45524202805176
O            2.31072935718289        1.44762188687981       -0.55291750067963
H            2.52817012017980        1.89682037951767        0.29980411257428
O            1.14658068987889        4.27799597181377       -1.32889486306517
H            0.31345296232552        3.85215972070502       -1.12221925684863
H            1.61016450926457        4.34550090931119       -0.47926063843079
H            2.05678542026628       -0.18650797971013       -5.19956871327771
O            1.74763980787896        0.11523939598861       -4.33868942547197
H            2.49913556253787        0.49147428225814       -3.87886833850922
H            2.82148034329287       -1.51463867795079       -1.42957795571653
H            2.10517202936193       -0.76048224909365       -0.29646031935097
O            1.95118467982757       -1.31738236916566       -1.07239708959778
H           -0.83619021654975       -3.69204119010129       -4.09381402046692
O           -0.21872993040166       -3.23002624995490       -3.51510267961761
H            0.56570367425395       -3.80915288307466       -3.43697571366494
46
 energy: -77.025944210615 gnorm: 0.061321682430 xtb: 6.7.1 (edcfbbe)
H           -1.88843146975749       -0.76256706745071       -1.25082073210646
C           -1.67448915116329       -0.24107171368589       -2.18263505229133
H           -0.25703766385065       -1.57979016336154       -2.89945185445121
H           -2.36829922007110       -0.58482434932640       -2.94775914050416
N           -0.30415272250861       -0.58561619204026       -2.59745346913195
H           -2.95727301089104        1.46106210481230       -1.86585784270078
C           -1.88977736413378        1.25317628727300       -1.97007389590912
O           -0.50794601661383        1.04177592667627       -0.01705866329636