46
 energy: -75.135658920784 gnorm: 0.040348061190 xtb: 6.7.1 (edcfbbe)
N            0.86890897790000        0.14013393490000       -0.13775085780000
C            2.31542029440000       -0.01901664240000        0.07894474240000
C            3.06988621780000        0.75190835360000       -1.00059270380000
C            4.54333788740000        0.95316143250000       -0.66882689350000
C            5.23604902310000        1.91662235390000       -1.64234870760000
O            4.57219532420000        2.85448185620000       -2.13688641180000
O            6.45746986340000        1.72790681660000       -1.87357677680000
H            0.62934202610000        1.15188346090000       -0.07461570380000
H            0.61251367830000       -0.19370651460000       -1.08205281130000
H            2.58543186430000       -1.07410838580000        0.04660394850000
H            2.57533686420000        0.37229226750000        1.06265298750000
H            2.62182430320000        1.73750943200000       -1.11772315980000
H            2.99111217540000        0.23643929840000       -1.95885632030000
H            5.09958440370000        0.01524271400000       -0.66717355120000
H            4.65377615730000        1.40549474640000        0.32113551900000
H            0.29033199640000       -0.36101699110000        0.57500925720000
O            0.36085232110000        2.87981791410000        0.13528160780000
H            0.74956868220000        3.27153090860000        0.92290282360000
H            0.80858068070000        3.30260096880000       -0.61804567120000
O            2.03188057260000        3.99776728640000       -1.78655513400000
H            2.93627871190000        3.65704395810000       -1.90249961900000
H            1.90908758050000        4.65912208560000       -2.47236085320000
H           -1.59869948570000       -1.49383492730000        1.45717856800000
O           -0.98082492160000       -0.78148314900000        1.64172429680000
H           -1.47369525100000        0.05482132310000        1.53481763010000
O            7.88496297910000        3.02144641860000       -3.82936690320000
H            8.64014162400000        3.39474345790000       -3.36308790480000
H            7.36667795940000        2.53750244300000       -3.15139943940000
H            0.08036641210000       -1.62028211290000       -3.04514765640000
O            0.23969541170000       -0.71833553830000       -2.75452322470000
H           -0.09857289990000       -0.12679077430000       -3.43174486060000
H            6.33493550320000        4.04028757670000       -4.44449772360000
O            5.43016728320000        4.36991859510000       -4.32643774610000
H            5.09832548590000        3.86648180250000       -3.55765282370000
H           -1.34254170300000        2.18347369250000        0.58208256700000
O           -2.09229664210000        1.62314634050000        0.83956682830000
H           -2.76858770080000        1.74790198840000        0.16845315690000
H            8.59680677440000       -0.47818217120000       -0.95074249450000
O            7.69427343820000       -0.40632484730000       -0.62513572490000
H            7.30606114520000        0.36871807720000       -1.07780819950000
H            1.08874304370000       -0.31109764530000        3.24566722140000
O            1.10106178880000       -0.91115246930000        2.49525773550000
H            1.43968500180000       -1.75868907670000        2.82627203830000
H            5.29257948160000        0.30204570890000       -3.64723385240000
O            5.29976041380000       -0.29740909250000       -4.39821741100000
H            5.67962604990000       -1.13230370990000       -4.08022325030000
46
 energy: -75.143533080555 gnorm: 0.025639581206 xtb: 6.7.1 (edcfbbe)
N            0.86998102435295        0.14009627009274       -0.13672852383972
C            2.31655223038741       -0.01510233430137        0.06719975122322
C            3.06987790733693        0.75549549024181       -1.01042848710141
C            4.54209437839390        0.95426898869765       -0.67093510079900
C            5.23668202719398        1.92207088407601       -1.63727364672122
O            4.57403556537430        2.85712790628158       -2.13752383994915
O            6.45172080370839        1.71271382122568       -1.89101917560464
H            0.62949362469716        1.14987002045774       -0.07145723397394
H            0.60577674671018       -0.19785917813782       -1.07610002554965
H            2.58244718558534       -1.07043030808978        0.03870972225962
H            2.57554930406980        0.37367611388653        1.05043751738043
H            2.62163082836339        1.74087660218129       -1.12474887806390
H            2.98920962749737        0.24115099118124       -1.96909224101405
H            5.09740059952369        0.01565919390602       -0.66683929911538
H            4.65087162992245        1.40395938651703        0.32016568278407
H            0.30536393198885       -0.36017507650101        0.59114966766696
O            0.35719100541380        2.88666357812199        0.13437771906428
H            0.75157056343951        3.27573952711258        0.92024115042872
H            0.80957601473763        3.30114983771843       -0.62047658203131
O            2.03445073145648        4.00404924525038       -1.78315057965570
H            2.93552768749684        3.65728466510433       -1.90519767210097
H            1.90705686919636        4.65741148816332       -2.47594461839544
H           -1.66943926207600       -1.49205957630698        1.41379556720229
O           -1.05005382189501       -0.78260373274071        1.59835207898522
H           -1.53350098311166        0.05800295885505        1.50338759255822
O            7.88605477112674        3.02417986595643       -3.82809645520994
H            8.64277428091672        3.39685266785974       -3.36398577113118
H            7.36854862692724        2.54305381290225       -3.14828440108320
H            0.08143403404526       -1.62160990131727       -3.04730075999446
O            0.23597398963234       -0.71942352902949       -2.75508704192220
H           -0.09677341809332       -0.12814359134091       -3.43514920960407
H            6.33309346986093        4.03748962055238       -4.44850354479569
O            5.43343827375702        4.37808854065131       -4.32176295294878
H            5.09788390332975        3.86969338237545       -3.55819991077469
H           -1.34247410256687        2.18071434483333        0.57788462490083
O           -2.10823643428551        1.64580795956622        0.84381838765498
H           -2.77004016170567        1.75686791447284        0.15617645992900
H            8.59817133033212       -0.47481927308376       -0.94916506586626
O            7.68982818158554       -0.41534923696179       -0.63727084096741
H            7.31155605008774        0.38080293044823       -1.06189603469527
H            1.10157773442775       -0.34445559452229        3.31286112071387
O            1.25156071607555       -0.91553273233780        2.54392737803254
H            1.47902850189947       -1.78593437463380        2.90048422576304
H            5.34898995979734        0.31486656263518       -3.66222350235750
O            5.23971320620036       -0.32521429281472       -4.38165528064393
H            5.69425166488550       -1.12925867420509       -4.08700543253704
46
 energy: -75.146011622083 gnorm: 0.026583445585 xtb: 6.7.1 (edcfbbe)
N            0.87023909803021        0.13790813329639       -0.12994659426197
C            2.31931224149618       -0.01231677976575        0.05721375795754
C            3.06593890170849        0.75940069489451       -1.02227015868450
C            4.53736178149679        0.95647253332183       -0.68060875853049
C            5.22836443700339        1.90783587847643       -1.66400193250145
O            4.58225871749401        2.87222082470371       -2.12881935243713
O            6.44643467489653        1.70067415430606       -1.90838890442092
H            0.62645647130633        1.14570632742301       -0.06243628718310
H            0.59459337987947       -0.20510941558134       -1.06377808426381
H            2.58496360329442       -1.06720650252603        0.02779195492263
H            2.58371578032351        0.37197946740891        1.04004296908885
H            2.61826877317912        1.74502187634560       -1.13539395366530
H            2.98708042593624        0.24662531956493       -1.98204518290091
H            5.08998899604044        0.01639442428420       -0.67106873782851
H            4.64521352608239        1.40913925991802        0.30956067209594
H            0.32489043966349       -0.36331483980669        0.61114721980571
O            0.35306989360905        2.89123251206367        0.13136430744350
H            0.74881607437883        3.28247851434000        0.91536600229664
H            0.80706920846551        3.30146628126387       -0.62476836539243
O            2.03611418557662        4.00981331146127       -1.78175003423016
H            2.93748696353862        3.66368383505952       -1.90215625459917
H            1.90520445757610        4.65506535666536       -2.48173489551210
H           -1.71690546019352       -1.48847611844114        1.37263764656903
O           -1.09354974660498       -0.78881430934299        1.57915603241035
H           -1.55826730964957        0.06081257258039        1.47034077218289
O            7.88893639685261        3.02829479911741       -3.82590605772359
H            8.64748943111215        3.40121358821354       -3.36506045125489
H            7.37247926844404        2.55006620149461       -3.14338721374792
H            0.08738528434787       -1.62287198281991       -3.05220166787020
O            0.22026043915015       -0.72031921289898       -2.74960759448709
H           -0.09021137877062       -0.12941494527500       -3.44100075902357
H            6.33444026721915        4.04276420734368       -4.44907173986478
O            5.43486220141420        4.38315345335931       -4.32235368734973
H            5.10239717034962        3.88334214671543       -3.55208889107187
H           -1.34684938123326        2.18795940371306        0.57878378931534
O           -2.12356797792794        1.66780135436557        0.84364231897828
H           -2.77093485731424        1.76857549985990        0.13990187690310
H            8.59903769866600       -0.47523521369179       -0.94653101439693
O            7.69352966637866       -0.40698482412499       -0.62937970218357
H            7.30927161106248        0.37206136635017       -1.07630179646566
H            1.12177088297895       -0.37803027003403        3.37675310089120
O            1.31036794171377       -0.93732695147706        2.61310956955554
H            1.51453896838370       -1.80719331613275        2.96112269286371
H            5.40880728319846        0.31944227111056       -3.67129459054563
O            5.20328106557613       -0.34461939599637       -4.36146914764806
H            5.69600930187042       -1.13365832610586       -4.09264633513473
46
 energy: -75.147009233045 gnorm: 0.039772684198 xtb: 6.7.1 (edcfbbe)
N            0.87061680646511        0.13394512716826       -0.11887336475726
C            2.32391871749643       -0.01060092280872        0.04409068365876
C            3.05987871467570        0.76620176209638       -1.03713580867899
C            4.53066521532573        0.96285593110882       -0.69264773130693
C            5.22666034474682        1.91456100786872       -1.66879090673781
O            4.59106465355902        2.88760077427580       -2.12683144047598
O            6.42873556785024        1.65951074960979       -1.96757030512171
H            0.62173647433834        1.13908424480725       -0.04781232019713
H            0.57799525353259       -0.21556347847568       -1.04482660893707
H            2.59087139214794       -1.06464989046403        0.00873874546256
H            2.59795991599066        0.36510194717883        1.02747418394237
H            2.61178686279600        1.75201095513242       -1.14576293872373
H            2.98459667220701        0.25865114863040       -2.00025605566854
H            5.08008663249360        0.02075359316292       -0.68011262907013
H            4.63385027569687        1.41364851800808        0.29858094350436
H            0.35407497895268       -0.36970560630005        0.63767970478375
O            0.34745619123202        2.89614032562382        0.12727176180534
H            0.74210328793947        3.29288484530317        0.90900424877335
H            0.80203019324127        3.30359380652565       -0.62991892938356
O            2.03809017084357        4.01712538404794       -1.78162055825786
H            2.94224555994956        3.67650851485198       -1.89542853724633
H            1.90302702718151        4.65251875677598       -2.49011871534329
H           -1.78634202349715       -1.47883280994771        1.31122964910577
O           -1.15553933271606       -0.79533633263119        1.55128764798598
H           -1.59282142420699        0.06804959648467        1.42502786799347
O            7.89349942785524        3.03565939545549       -3.82788424068395
H            8.65331622532953        3.40579265834858       -3.36700311908037
H            7.37549185801224        2.55732280244517       -3.14658019336925
H            0.09940223435791       -1.62710879158254       -3.05778182448688
O            0.19484400540694       -0.72377392405474       -2.73899106256002
H           -0.07866974890107       -0.13478999466192       -3.44970000878441
H            6.33634566480787        4.05185934284605       -4.45278810787540
O            5.43755037562526        4.39291777237519       -4.32435675633124
H            5.10807567289590        3.90121708720442       -3.54780166685628
H           -1.35564532845362        2.20435406477511        0.58087287834982
O           -2.14360690497732        1.69718337543774        0.83787100147538
H           -2.77292149833998        1.78848602575682        0.11550255272754
H            8.60239535510287       -0.46960218442769       -0.94273495596471
O            7.69526034495970       -0.40455239041690       -0.62977223569925
H            7.30755132297716        0.36938250090172       -1.08123643735030
H            1.14650563391643       -0.43093001567762        3.47145032101535
O            1.42175997725504       -0.96303697649370        2.71184576239065
H            1.54652579221478       -1.84953807433565        3.05431321563081
H            5.39752201740779        0.28553992509612       -3.65614873675736
O            5.27231329491405       -0.32686271356428       -4.35363075338607
H            5.67515694739092       -1.14786466846034       -4.09765768141369
46
 energy: -75.148421622414 gnorm: 0.032304258294 xtb: 6.7.1 (edcfbbe)
N            0.86949598231428        0.12977038602157       -0.11287004976802
C            2.32486486496059       -0.01585745510653        0.04308461828906
C            3.05460859751392        0.76731735874365       -1.03928200071035
C            4.52701946875319        0.96643984570341       -0.69948548393859
C            5.22908088200122        1.92827843155995       -1.66038243523101
O            4.59297206783922        2.89408811481702       -2.12903771625744
O            6.41578935436148        1.63753516609997       -2.00432541971020
H            0.61950125049908        1.13513691601005       -0.04016053591764
H            0.57169155368708       -0.21852088452759       -1.03779428255477
H            2.59487233474257       -1.06936444531899       -0.00208655952385
H            2.60632712503967        0.35509142913101        1.02745533322303
H            2.60402990971525        1.75258049057270       -1.14465942184508
H            2.97864456672771        0.26299915927903       -2.00406179786239
H            5.07634643120698        0.02411092038498       -0.68737511952909
H            4.62833303367939        1.41730758432041        0.29136060872058
H            0.35812850404078       -0.37585121760904        0.64021204429381
O            0.34763333609119        2.89235847868429        0.12756893924924
H            0.73727358831404        3.29502442704520        0.90896434799207
H            0.79807777178269        3.30465244380740       -0.62946475293888
O            2.03655142441785        4.01718215847362       -1.78434999899431
H            2.94544428393065        3.68615645245911       -1.88999224371815
H            1.90010292724384        4.64985758953140       -2.49474390753216
H           -1.80779523508300       -1.46986697395996        1.28700010925673
O           -1.17310791275496       -0.79444772487760        1.54208604164109
H           -1.60248253847115        0.07283593152529        1.41151431241522
O            7.89561167205280        3.04785045985641       -3.82854022863334
H            8.65528606995115        3.40825947312484       -3.35956823193994
H            7.37626078125887        2.55386934518161       -3.15870840670537
H            0.10352353547716       -1.62927617285817       -3.05796612337778
O            0.18478194856395       -0.72659157517138       -2.73374322071145
H           -0.07565408463515       -0.13856219140207       -3.44982691650472
H            6.33709699002856        4.05899085297527       -4.45576675354352
O            5.44166643624640        4.40657958255837       -4.32089704439732
H            5.10946990383793        3.90791631015119       -3.55004167365976
H           -1.36214827722376        2.22023622584376        0.58420264211477
O           -2.14597618310533        1.70061366433663        0.82357145508432
H           -2.77469519219706        1.80490139026971        0.10465540979908
H            8.60414824213538       -0.46458026513479       -0.94163417775786
O            7.69579141403686       -0.40235095287405       -0.63082318786997
H            7.30434585196335        0.36726584013881       -1.08775091155342
H            1.17142719886897       -0.44389725196127        3.50323005874482
O            1.45684474280046       -0.97270821927646        2.75376672200886
H            1.54290027762480       -1.87320832563860        3.09362053358611
H            5.50110131991066        0.29932130726312       -3.65445859861038
O            5.18918052692462       -0.35492145956951       -4.31779847961648
H            5.69305405092521       -1.15680945558299       -4.12423095740596
46
 energy: -75.149326126612 gnorm: 0.011708762321 xtb: 6.7.1 (edcfbbe)
N            0.86893011168358        0.12790448950706       -0.10890892740758
C            2.32441094238306       -0.02018509230080        0.04720010572028
C            3.05025604590805        0.76654735727244       -1.03681211689172
C            4.52519287898036        0.96641520168036       -0.70661141880257
C            5.21788007895854        1.90636675213715       -1.69643071991749
O            4.59788449548225        2.90801258015288       -2.11823138253915
O            6.40997453281682        1.63868252743082       -2.00987363086933
H            0.61992412802298        1.13441809741049       -0.03575091729745
H            0.57170123576838       -0.21679607188831       -1.03544163817093
H            2.59539728863481       -1.07355665507735       -0.00537199479560
H            2.60956188186618        0.34834313685020        1.03204823862408
H            2.59718737520901        1.75086907806351       -1.14202162340136
H            2.97006090387047        0.26091028619244       -2.00034314964467
H            5.07318775706992        0.02356545454757       -0.68932635712329
H            4.63281779917478        1.42879198500669        0.27870749223931
H            0.35217061718298       -0.37891358893334        0.63645289683346
O            0.34855626642592        2.88889228029402        0.12943465618647
H            0.73506679795293        3.29492642709009        0.91079841905676
H            0.79727726019549        3.30288332632375       -0.62776733193047
O            2.03701649254521        4.02153444445021       -1.78122259488834
H            2.94656353661558        3.69231812592555       -1.88677754634193
H            1.89722535470808        4.64794208609220       -2.49672233238736
H           -1.81930209719731       -1.45991388377999        1.27632196945401
O           -1.18168889554923       -0.78972888508878        1.53639235356455
H           -1.60929790509743        0.07829669980976        1.40967176670132
O            7.89605201654633        3.05345561561774       -3.82964803587840
H            8.65516663058712        3.40647742093642       -3.35386368488970
H            7.37504202607802        2.54751414066378       -3.16905577555733
H            0.10410829190653       -1.63113559866604       -3.05321581272806
O            0.18372963400207       -0.72945414148574       -2.73003413792786
H           -0.07595806007454       -0.14188449497362       -3.44463579175134
H            6.33749552835824        4.06413166285898       -4.45733071421441
O            5.44544280017389        4.41872651688330       -4.31656897865012
H            5.10967916672688        3.91193467177135       -3.55237840389054
H           -1.36558772093917        2.22741973962377        0.57917389533592
O           -2.14675921419352        1.70015445022399        0.80986007307093
H           -2.77740081190001        1.81522392626713        0.09543109976741
H            8.60364874569712       -0.46248198422797       -0.94066164103784
O            7.69826946426881       -0.39156618471330       -0.62306711489890
H            7.29909236205659        0.35943917308726       -1.10605608385239
H            1.17960143766045       -0.45156078214161        3.51943258792881
O            1.46617396815225       -0.98358279276000        2.77563964783334
H            1.56980819099515       -1.87852633656899        3.10471734077434
H            5.49615888758762        0.28574782345898       -3.63481846145174
O            5.21576138929771       -0.34634057981371       -4.31162575113754
H            5.69994118140009       -1.16450524020961       -4.13024193471649
46
 energy: -75.149764850433 gnorm: 0.024886797391 xtb: 6.7.1 (edcfbbe)
N            0.86906159813200        0.12541785713400       -0.10246052439018
C            2.32525824561236       -0.02445033118217        0.04624731462802
C            3.04421585939499        0.76894086195961       -1.03844989217259
C            4.52063126018158        0.96977248888625       -0.71446415012695
C            5.20962770652629        1.90012952385239       -1.71578252162242
O            4.60017952596277        2.91778787116840       -2.11595697324050
O            6.39065757305653        1.61048041302282       -2.05680780293235
H            0.62037778476299        1.13240918795377       -0.02646748409303
H            0.56753695906714       -0.21611957225382       -1.02893869036686
H            2.59594319881838       -1.07745075365888       -0.01602301120211
H            2.61581037994803        0.33649788499891        1.03252131180706
H            2.58844524741459        1.75261960696403       -1.13855114217707
H            2.96072248402945        0.26545339001687       -2.00290723820444
H            5.06641674191044        0.02580110990501       -0.69422891299227
H            4.63241175691699        1.43939514345206        0.26708282959306
H            0.35399314588914       -0.38429862952060        0.63931203562690
O            0.34823603862743        2.88699720003533        0.13198208211583
H            0.73312546857913        3.29546972270178        0.91291885573793
H            0.79675309224263        3.30065931671561       -0.62549113971472
O            2.03790638220552        4.02753299755261       -1.77725288238699
H            2.94893243440390        3.70148138719516       -1.88008016492730
H            1.89424678794465        4.64438943749212       -2.50065054767986
H           -1.84235884802981       -1.44588125617469        1.25372808951393
O           -1.20088929036707       -0.78458065765160        1.52685905520767
H           -1.61978015807541        0.08715814824307        1.39403614221296
O            7.90065879795185        3.05812473764765       -3.83627960883038
H            8.65351581219653        3.40599075516778       -3.34666377981895
H            7.36897899835950        2.54556302593674       -3.18886959680748
H            0.10942134314402       -1.63534239174701       -3.04918957114320
O            0.17076984826444       -0.73387890873831       -2.72039058035514
H           -0.07158957110883       -0.14714860522561       -3.44223202262508
H            6.34390022850111        4.08641663457803       -4.45294947929054
O            5.44303324736189        4.42038062433733       -4.32466280737835
H            5.12012712884790        3.93145131832717       -3.54318108161618
H           -1.37000702069848        2.23455724280791        0.56887579709806
O           -2.15638035614811        1.71142732651392        0.79406617260011
H           -2.78054488823425        1.83004246203936        0.07354690935871
H            8.60409727716871       -0.45381080310938       -0.93995358828304
O            7.69945711018972       -0.38132941095248       -0.62037980929421
H            7.29280482321235        0.35480761981382       -1.12072535061890
H            1.16451783088749       -0.48230878588177        3.57007662828173
O            1.52814889720690       -0.99285557668844        2.81968527689348
H            1.59257813680732       -1.89894176214091        3.14167175256125
H            5.54484973725915        0.27865668446154       -3.62524329641325
O            5.21854699547739       -0.35359057553364       -4.28605381720095
H            5.70307504619749       -1.17611079542069       -4.13085624723280
46
 energy: -75.150571150871 gnorm: 0.023807356575 xtb: 6.7.1 (edcfbbe)
N            0.86766982456394        0.12163299799467       -0.09175650556409
C            2.32451508984156       -0.03248225935697        0.04515509525945
C            3.03382163017219        0.77237786326296       -1.03951439163905
C            4.51235313301154        0.97554911315495       -0.72475680942785
C            5.19745268141478        1.89773182741281       -1.73602583853320
O            4.60112711549111        2.92794924503915       -2.11676684108798
O            6.35180089147955        1.55366105655280       -2.14798913548648
H            0.62180899927423        1.13006658503948       -0.01145041554094
H            0.56034832876742       -0.21335032387075       -1.01917583057035
H            2.59317921848150       -1.08491256289643       -0.03295335077870
H            2.62306784524689        0.31474864550632        1.03398136827159
H            2.57368499782867        1.75514223652308       -1.12911748724025
H            2.94472812874932        0.27357897899445       -2.00616583847697
H            5.05499375005067        0.03002221490339       -0.70065435219147
H            4.63034928732393        1.45583980695266        0.25089823050042
H            0.35023368692493       -0.39193603034291        0.64302282809715
O            0.34918200266648        2.88332979755063        0.13881473392515
H            0.73327353844504        3.29290118775127        0.91951352727165
H            0.79773373859503        3.29647805806914       -0.61880274837816
O            2.03899488749444        4.03618752997528       -1.76989575900869
H            2.95161547924980        3.71372541191706       -1.86994261085943
H            1.88905214817847        4.63693775938631       -2.50624497597160
H           -1.89231084021009       -1.42209148616214        1.21322199490285
O           -1.24556008679998       -0.77490571365030        1.50569749850795
H           -1.65054727010592        0.10223683398925        1.36353698866030
O            7.90779002188885        3.06633045987999       -3.84845698907129
H            8.64830114665116        3.40505575602998       -3.33275533008338
H            7.35723698005449        2.54068434675705       -3.22629314369724
H            0.11765560809829       -1.64377710481527       -3.03934859064299
O            0.15037720003772       -0.74263184482736       -2.70356805601894
H           -0.06469440346862       -0.15716849589070       -3.43611699828696
H            6.35191086270653        4.11983554009463       -4.44815370775942
O            5.44234075341922        4.43258191509202       -4.33010137094814
H            5.13267775156834        3.95754961592438       -3.53380622166403
H           -1.37525216150649        2.24316045106267        0.54824726715180
O           -2.17492019491479        1.73420725827391        0.76736857448099
H           -2.78584057369462        1.85882784983243        0.03381153313849
H            8.60421299904258       -0.43579806970348       -0.94151174718686
O            7.69884537874696       -0.36657753557824       -0.62274386945481
H            7.28268344684602        0.35209203263245       -1.13960617888321
H            1.22711296392398       -0.51013979757091        3.63413159893871
O            1.59063933347086       -1.02399756206703        2.91007217933098
H            1.64688132071884       -1.93023127148318        3.20353222543489
H            5.62529074824866        0.26759357591699       -3.61319383155978
O            5.22745813260689       -0.36795157097639       -4.24009394358521
H            5.71414527741759       -1.19235115727864       -4.12357623617740
46
 energy: -75.150899401571 gnorm: 0.024794812838 xtb: 6.7.1 (edcfbbe)
N            0.86684380243964        0.12145060661176       -0.09005300461438
C            2.32301052294510       -0.03778388291923        0.04395450656244
C            3.02915799506612        0.77135078097276       -1.04026598791260
C            4.50864878365334        0.97665124900404       -0.73217527192697
C            5.18805707985810        1.89246055914882       -1.75316482155509
O            4.60079262231922        2.92814775973484       -2.12329539144660
O            6.32965243584125        1.53757766582308       -2.18242456684612
H            0.62520836246840        1.13096645224042       -0.00703086243697