46
 energy: -64.976794958191 gnorm: 0.000381448493 xtb: 6.7.1 (edcfbbe)
N        0.8689089779      0.1401339349     -0.1377508578                 
C        2.3154202944     -0.0190166424      0.0789447424                 
C        3.0698862178      0.7519083536     -1.0005927038                 
C        4.5433378874      0.9531614325     -0.6688268935                 
C        5.2360490231      1.9166223539     -1.6423487076                 
O        4.5721953242      2.8544818562     -2.1368864118                 
O        6.4574698634      1.7279068166     -1.8735767768                 
H        0.6293420261      1.1518834609     -0.0746157038                 
H        0.6125136783     -0.1937065146     -1.0820528113                 
H        2.5854318643     -1.0741083858      0.0466039485                 
H        2.5753368642      0.3722922675      1.0626529875                 
H        2.6218243032      1.7375094320     -1.1177231598                 
H        2.9911121754      0.2364392984     -1.9588563203                 
H        5.0995844037      0.0152427140     -0.6671735512                 
H        4.6537761573      1.4054947464      0.3211355190                 
H        0.2903319964     -0.3610169911      0.5750092572                 
O        0.3608523211      2.8798179141      0.1352816078                 
H        0.7495686822      3.2715309086      0.9229028236                 
H        0.8085806807      3.3026009688     -0.6180456712                 
O        2.0318805726      3.9977672864     -1.7865551340                 
H        2.9362787119      3.6570439581     -1.9024996190                 
H        1.9090875805      4.6591220856     -2.4723608532                 
H       -1.5986994857     -1.4938349273      1.4571785680                 
O       -0.9808249216     -0.7814831490      1.6417242968                 
H       -1.4736952510      0.0548213231      1.5348176301                 
O        7.8849629791      3.0214464186     -3.8293669032                 
H        8.6401416240      3.3947434579     -3.3630879048                 
H        7.3666779594      2.5375024430     -3.1513994394                 
H        0.0803664121     -1.6202821129     -3.0451476564                 
O        0.2396954117     -0.7183355383     -2.7545232247                 
H       -0.0985728999     -0.1267907743     -3.4317448606                 
H        6.3349355032      4.0402875767     -4.4444977236                 
O        5.4301672832      4.3699185951     -4.3264377461                 
H        5.0983254859      3.8664818025     -3.5576528237                 
H       -1.3425417030      2.1834736925      0.5820825670                 
O       -2.0922966421      1.6231463405      0.8395668283                 
H       -2.7685877008      1.7479019884      0.1684531569                 
H        8.5968067744     -0.4781821712     -0.9507424945                 
O        7.6942734382     -0.4063248473     -0.6251357249                 
H        7.3060611452      0.3687180772     -1.0778081995                 
H        1.0887430437     -0.3110976453      3.2456672214                 
O        1.1010617888     -0.9111524693      2.4952577355                 
H        1.4396850018     -1.7586890767      2.8262720383                 
H        5.2925794816      0.3020457089     -3.6472338524                 
O        5.2997604138     -0.2974090925     -4.3982174110                 
H        5.6796260499     -1.1323037099     -4.0802232503                 
