34
 energy: -56.714046202103 gnorm: 0.000255155760 xtb: 6.7.1 (edcfbbe)
C           -0.54259922461100       -1.29309901049712        1.69195737056436
C            0.04701870235733       -1.11543315343240        3.10638124492205
O            1.28701060942884       -1.31958018071855        3.22928045242219
O           -0.71053688306524       -0.79110875804950        4.03407233975214
C            0.08776163428454       -0.30790101343255        0.71591732032682
N           -0.14475495914118       -0.73705564854558       -0.67633908559451
H           -0.32038190543152       -2.31513108983779        1.38379487157626
H           -1.62010533247439       -1.15918448002259        1.76524555776056
H           -0.33011727797469        0.68586720277014        0.88214103696804
H            1.16248371841444       -0.26948727917350        0.90550565597522
H           -1.15966926870542       -0.92787856166443       -0.85589220888817
H            0.36257820920916       -1.65247036758806       -0.83667080814545
H            0.19396470829866       -0.03773788329324       -1.33616967480172
O           -2.63770187662000       -1.67807526106941       -1.27288042197044
H           -3.45530859882778       -1.62784508732864       -0.77361181247501
H           -2.31138394199462       -2.59895471866950       -1.18367593492317
O            2.02392562589562       -0.96630739368949        5.85676095610797
H            1.17380083067855       -0.74023082432752        6.24739156312842
H            1.82894864470510       -1.10314034567379        4.90401469398779
O            1.14841667536764       -2.59234437818582       -5.45944100465309
H            0.23401720475267       -2.30127988458900       -5.37425546584672
H            1.18213007441955       -3.22316992885893       -6.18400764675361
O           -1.44542004823802       -4.10669048822394       -0.91031166753233
H           -1.50420688833052       -4.85873816309667       -1.50540561427225
H           -0.49980635817148       -3.86824606769150       -0.86716426722607
O            1.13655150891065       -3.10485232354524       -0.89752202664255
H            1.70956783831964       -3.16491278727404       -1.68887570440568
H            1.73332303328399       -3.03507908435860       -0.12937259699834
O            2.67149319912876       -3.03182888756612       -3.15440577310970
H            2.15437961667099       -2.89383669629225       -3.96853418630060
H            3.41841944540412       -2.42823601189477       -3.20075936531263
O            2.70102558352523       -2.58132984515122        1.28770764851796
H            2.20460493242701       -2.12188372658612        1.99895983224723
H            3.37391876814986       -3.10405887253162        1.72993972155275
