46
 energy: -76.871918032618 gnorm: 0.238980040221 xtb: 6.7.1 (edcfbbe)
H           -2.08510000000000       -0.67374000000000       -1.23467000000000
C           -1.76477000000000       -0.06578000000000       -2.10909000000000
H           -0.19802000000000       -1.29661000000000       -2.60662000000000
H           -2.34440000000000       -0.40921000000000       -2.99377000000000
N           -0.34297000000000       -0.28771000000000       -2.37638000000000
H           -3.21400000000000        1.49001000000000       -1.78360000000000
C           -2.10764000000000        1.41544000000000       -1.87505000000000
O           -0.14898000000000        2.09635000000000       -0.51427000000000
C           -1.48606000000000        1.99088000000000       -0.63070000000000
H            0.23567000000000       -0.06671000000000       -1.53748000000000
O           -2.19761000000000        2.40420000000000        0.26911000000000
H           -0.03551000000000        0.29021000000000       -3.19141000000000
H           -1.79765000000000        2.01905000000000       -2.75350000000000
O            1.01189050620000        3.95951228310000        0.89416843420000
H            1.99296428000000        3.82525966580000        0.88984003620000
H            0.66492235260000        3.27464889030000        0.26871928070000
O           -1.80131393210000        3.83121490660000        2.46958479550000
H           -2.17471439280000        3.27011003090000        1.74410590240000
H           -2.55939558610000        4.39854113390000        2.75975787790000
O           -4.59471795320000        3.86360648850000        0.50688094920000
H           -3.83746534590000        3.38271369420000        0.08745082490000
H           -5.39947096200000        3.49442065580000        0.06321964170000
O            2.01755098150000        1.15178478910000        0.22306292200000
H            2.33898722200000        0.48467616520000       -0.43432420690000
H            1.04083570030000        1.20309838750000        0.06725681080000
O           -0.25480426410000       -0.98132351270000        2.61889050160000
H           -0.13304308050000       -1.81064030460000        2.09172543940000
H           -0.55376474370000       -0.30803751430000        1.95680881020000
O           -2.75647177190000       -0.12342501160000        2.64535990870000
H           -3.00643559380000       -1.03539286710000        2.35151251920000
H           -2.90191356150000        0.44338984810000        1.84618664800000
O           -1.48468615470000        5.00823263690000       -1.23767174470000
H           -1.58117032640000        4.02499658360000       -1.17052348890000
H           -1.95522287370000        5.24704879660000       -2.07593547280000
O            0.56110173000000        2.70617720230000       -2.93661161240000
H            0.06940473440000        1.93695801480000       -2.55314553040000
H            0.63601846590000        2.49659879740000       -3.90172264490000
O            1.48765693530000       -1.14777640240000       -5.15336111880000
H            1.84710037920000       -2.05849399610000       -5.30135995390000
H            2.29092966580000       -0.57384337910000       -5.07390052910000
O            1.08763814070000       -3.36077291200000       -3.64057930480000
H            1.21002153100000       -4.34340701350000       -3.64180742790000
H            1.88052919440000       -3.01133295030000       -4.12040705520000
O            1.38952221670000       -0.95395502080000       -1.51827751610000
H            1.46917104140000       -1.91781821860000       -1.30549516070000
H            2.32354365070000       -0.62460349130000       -1.53086484300000
46
 energy: -76.928619825658 gnorm: 0.113682342902 xtb: 6.7.1 (edcfbbe)
H           -2.08957373100872       -0.66136293728020       -1.25063786778245
C           -1.80993881165908       -0.06419697755131       -2.12997559870567
H           -0.22211266089228       -1.27257087625316       -2.63002366043998
H           -2.38136115783385       -0.41055285603971       -2.99550184606636
N           -0.39903391388853       -0.27717392102396       -2.41066214808474
H           -3.21066250770546        1.50117964047189       -1.77979909970487
C           -2.12344664691011        1.41074109198515       -1.88419278797872
O           -0.20752184161128        2.05576988604946       -0.53794161260522
C           -1.49860562520625        1.98862410584812       -0.62919792959302
H            0.21713914075926       -0.07156061428266       -1.57945794840983
O           -2.23548897222961        2.38248234902547        0.27997136602099
H           -0.06346391976591        0.27737461190948       -3.21095204580161
H           -1.81493075616728        2.01529217367820       -2.74695039419814
O            1.02812708976862        3.97519113750639        0.88368437874767
H            1.98645097532172        3.81235969916786        0.88561385869804
H            0.65368288491013        3.27577103881432        0.29060586753140
O           -1.81554714977821        3.83237120588690        2.50243049689315
H           -2.14771180798915        3.29215744760961        1.75267486672131
H           -2.56433010881030        4.39879563485229        2.75110182227801
O           -4.60646515291204        3.86619460556743        0.49232562757003
H           -3.84466062429588        3.38358361466157        0.11531515121575
H           -5.39345291742720        3.49019860188613        0.06202751120086
O            2.03681732198352        1.13086597394241        0.26127609748722
H            2.34813922760002        0.50452086566503       -0.41336034710678
H            1.07426659397636        1.23612068042902        0.07507716720747
O           -0.23033802902420       -0.98829035542321        2.60824790823856
H           -0.13173816007810       -1.80581435278108        2.09035835244485
H           -0.54455381356924       -0.31513281008495        1.97948970333285
O           -2.78092252629475       -0.12031936844450        2.63647383486365
H           -3.01526407995593       -1.02189355104034        2.35271148035863
H           -2.90652019334670        0.44442382356775        1.85548920304111
O           -1.49414376325316        5.01955234367918       -1.25099151985244
H           -1.57010444813817        4.05579585925808       -1.16371391772414
H           -1.95603478581430        5.24443876040831       -2.07729371469265
O            0.57774224919931        2.71889480159596       -2.97395922062905
H            0.10834065467839        1.97977260128672       -2.53966179338799
H            0.63519224034890        2.48998302906294       -3.91650342964906
O            1.50200573158368       -1.12457097162728       -5.15150088185318
H            1.83118432820853       -2.01861044941226       -5.35313342568883
H            2.29606818640346       -0.57208711049713       -5.08181276933410
O            1.09356295494371       -3.38392469410777       -3.61585288781364
H            1.19720650656427       -4.34718962456111       -3.63961479558707
H            1.87765167249905       -3.03526573362615       -4.07317587874200
O            1.49477689575592       -1.00268400088377       -1.47184975095194
H            1.53491850311626       -1.95274490758194       -1.28260025213278
H            2.40281313364499       -0.67796309511342       -1.53344347723535
46
 energy: -76.955450754664 gnorm: 0.040956147450 xtb: 6.7.1 (edcfbbe)
H           -2.10004609474917       -0.65183023649257       -1.26503753286104
C           -1.83404233054362       -0.06726233764727       -2.14559369783909
H           -0.22400647298807       -1.27071106585097       -2.65406841726374
H           -2.41720212444439       -0.40936825139269       -2.99477180458777
N           -0.42253579629227       -0.28526127520544       -2.44041574582527
H           -3.22822718124295        1.51362160542513       -1.78451679606780
C           -2.15298527477474        1.40180706930118       -1.89642498478467
O           -0.26955835967450        2.00565372557974       -0.55955595207769
C           -1.51410597138572        1.95776146485351       -0.61778188467537
H            0.20705444798074       -0.07662633927191       -1.62603273277566
O           -2.28384044794454        2.35050458138554        0.28257016986901
H           -0.07800849524259        0.25788801725812       -3.23375538193523
H           -1.83131626058891        2.01286440364243       -2.74045464106059
O            1.04159353846976        3.99036629641106        0.86887890023093
H            1.98289091408386        3.79342563210692        0.88101809976548
H            0.64055647904260        3.28573688868455        0.31157356681097
O           -1.82934310178963        3.83262653655369        2.54071376754661
H           -2.10702926476254        3.31210188378257        1.75894015452732
H           -2.57681861856958        4.40228214389342        2.74159371629951
O           -4.62361303502171        3.88063435382849        0.47132139108708
H           -3.84951242343518        3.37809714366619        0.16344818399250
H           -5.39380846187375        3.48138247219706        0.05734289481735
O            2.05962705704605        1.12208584351666        0.30679908037631
H            2.35360226405635        0.52506853909187       -0.38615501746413
H            1.11594758467814        1.28200765727040        0.10237102898692
O           -0.19865984582367       -0.99992870788195        2.60202400414118
H           -0.12521191842776       -1.80743883057223        2.08548937080225
H           -0.53175729437992       -0.31669360484346        2.01180817973426
O           -2.80564316829570       -0.11629690808495        2.62701694714851
H           -3.03665566082977       -1.00914480237728        2.35264356882292
H           -2.91647857759172        0.45750927428214        1.86547494345673
O           -1.50266461865209        5.04161264412255       -1.26776204709425
H           -1.55817682608534        4.09226057037790       -1.14584696585354
H           -1.96148462566432        5.24718989401316       -2.08723869540064
O            0.60665340942244        2.74587430110287       -3.02364980413846
H            0.16395742455478        2.04694128861709       -2.50912985973284
H            0.63280603492058        2.47679257198465       -3.94640399132935
O            1.51640924650799       -1.09722514556409       -5.14156675755064
H            1.80719071010489       -1.97825071090483       -5.41230357679637
H            2.30925587458755       -0.56189835047390       -5.09510110906081
O            1.09940638858412       -3.40555595799600       -3.58207961744606
H            1.17631660439347       -4.35889843981606       -3.63240944391249
H            1.87759946401873       -3.05370036612739       -4.02100328228558
O            1.57449876339096       -1.04629897112619       -1.44665735379197
H            1.57633274738898       -1.98511238133851       -1.26737125516170
H            2.46919148354307       -0.73804774378176       -1.55682592754343
46
 energy: -76.971130975282 gnorm: 0.046378490411 xtb: 6.7.1 (edcfbbe)
H           -2.11205164361182       -0.65333978380409       -1.27728292597689
C           -1.85527300037294       -0.07438841778578       -2.16253433223516
H           -0.23303667535297       -1.27860590155571       -2.68219348439601
H           -2.45280148247100       -0.42039407857420       -3.00275665766159
N           -0.43771405880673       -0.29553046496029       -2.46845578545175
H           -3.26100842425746        1.51215009317390       -1.79864668448774
C           -2.18818283990754        1.39282094290888       -1.90976050313561
O           -0.30080685576997        1.94847925680692       -0.56773918418102
C           -1.53964128739321        1.94464036423038       -0.61847682250046
H            0.19734277083636       -0.07971935218020       -1.66913292342395
O           -2.32587160057315        2.31841161449298        0.28457411118320
H           -0.10148191750472        0.24622659030447       -3.26684555019315
H           -1.85358238992805        2.01239198842194       -2.74139783799470
O            1.05362596075424        4.01220234438329        0.84630596957927
H            1.98573155965571        3.76372478723286        0.88473039163749
H            0.62812508098149        3.30173452588017        0.32788267181957
O           -1.84208263562603        3.82350356052265        2.58030628160380
H           -2.06415255314814        3.32031941793936        1.76665767524282
H           -2.59397042048542        4.41198925789576        2.72194334437967
O           -4.64083241319139        3.91393624733634        0.44040092853566
H           -3.85298256329329        3.36439547164896        0.22755859483085
H           -5.39850377184728        3.46059986551007        0.05320039848325
O            2.08708095417049        1.11465919385250        0.35817038050586
H            2.36464623716185        0.54108724166754       -0.36392652356155
H            1.15898419855236        1.31977492256528        0.15009631578371
O           -0.14570635752331       -1.01349229418530        2.60329716653331
H           -0.12349170746774       -1.81667496181634        2.07185182667817
H           -0.52595010966088       -0.31361699949349        2.05733575761695
O           -2.82942524460895       -0.10955735918640        2.62273372296971
H           -3.07005681583922       -0.99763122186488        2.34634761285418
H           -2.92772732795076        0.48204655447446        1.87316413708524
O           -1.50798121295216        5.07823522888798       -1.28563292494274
H           -1.54629994405926        4.13377249507161       -1.11465472189981
H           -1.97471748897216        5.24837759746259       -2.10901050043618
O            0.64729180529488        2.78513942622375       -3.07331907368848
H            0.23213972264384        2.13266350490769       -2.46376398343279
H            0.62140822638954        2.44755054186837       -3.98096816619074
O            1.52780415656880       -1.06465397450660       -5.10928970660991
H            1.77181276342914       -1.93475278663819       -5.48689406826338
H            2.33655197969201       -0.54497266889666       -5.11979029229994
O            1.10330692533642       -3.42335880186416       -3.52953760997286
H            1.14418518104978       -4.37954961680994       -3.62945025368041
H            1.88210022945609       -3.06524789563690       -3.96079149625068
O            1.64079495788335       -1.07883504908922       -1.41864464235286
H            1.61592054693293       -2.02247384450891       -1.25894897818516
H            2.54463767148780       -0.80549118611455       -1.59559796181797
46
 energy: -76.981422093097 gnorm: 0.040192912092 xtb: 6.7.1 (edcfbbe)
H           -2.12452265850575       -0.66370619125700       -1.29310723528903
C           -1.87789103181967       -0.08653113766990       -2.18286005023991
H           -0.24753773295091       -1.28777595278447       -2.72002480460592
H           -2.48520617216522       -0.43847981610323       -3.01646167856610
N           -0.45419742889354       -0.30486619034681       -2.50207626047426
H           -3.29506808437359        1.50215591395082       -1.82497769367125
C           -2.22152945179058        1.38019752487381       -1.92811844404530
O           -0.32876163167381        1.88563843157986       -0.58241065129912
C           -1.57099232744799        1.90773431154481       -0.61605650589484
H            0.18094875239931       -0.07863305400974       -1.71537539975011
O           -2.36270827761641        2.29401555398517        0.27839824055178
H           -0.13566001416512        0.24206450085614       -3.30738518260874
H           -1.86688931316823        2.00989938849477       -2.74547660407122
O            1.06792615664154        4.03815856417865        0.81877099215880
H            1.98668223930356        3.73135514100645        0.89102972020171
H            0.61320488010241        3.32500781253305        0.34306810225829
O           -1.85048842777803        3.82022193185000        2.60142223440231
H           -2.02572131240987        3.31456327624815        1.78569885746220
H           -2.60559577953249        4.41030541074000        2.70600840674274
O           -4.64350974528265        3.92378767684408        0.42874845910159
H           -3.85918281272354        3.36739244645322        0.26574495449385
H           -5.39665794127614        3.45056567182961        0.05952559554175
O            2.12214280729508        1.11678175081828        0.40644520639243
H            2.37153171669349        0.54465368227397       -0.32775028616259
H            1.20882870600578        1.36828840750376        0.20923109912056
O           -0.08315648189574       -1.02827201577113        2.60818804842162
H           -0.12555601874530       -1.82435670278193        2.05784562467188
H           -0.52145874408800       -0.31460837915832        2.11585224055756
O           -2.84124137351871       -0.10281740862246        2.61470545762244
H           -3.12344186791068       -0.97934656926801        2.33435229916289
H           -2.94508378448904        0.51425519235961        1.88435078060192
O           -1.50792495350506        5.12197177279700       -1.30907587334703
H           -1.53922858884765        4.18628165454048       -1.07842915554033
H           -1.99199901890291        5.24676792533098       -2.13441338661509
O            0.68703233381829        2.81285908745227       -3.09729622736047
H            0.27844478421010        2.21600874823769       -2.44220072861701
H            0.61607066605860        2.43384516962211       -3.98696794164375
O            1.53854622239511       -1.02920284362793       -5.14106576493612
H            1.74323407061653       -1.88562328186253       -5.49296411617260
H            2.35151693555097       -0.52046942790689       -5.15032820642059
O            1.09944141434800       -3.43980749441145       -3.47059191055173
H            1.11297246413336       -4.39358777884580       -3.61626549176849
H            1.88199448697916       -3.07252012302382       -3.89097479349864
O            1.71684357204993       -1.10806069663048       -1.38934490333174
H            1.66422952240669       -2.06101568345067       -1.26496275243085
H            2.62777743017155       -0.88654982417382       -1.63131057845419
46
 energy: -76.985847907399 gnorm: 0.074527722356 xtb: 6.7.1 (edcfbbe)
H           -2.13338856493103       -0.68097901423452       -1.31231392889564
C           -1.89615661744088       -0.10271275621172       -2.20547760689250
H           -0.26653760961801       -1.29862599754801       -2.76178721357128
H           -2.50773103132588       -0.46127585765644       -3.03474127554560
N           -0.46921349816365       -0.31413304571163       -2.53842159583953
H           -3.32124983382010        1.48156687548015       -1.85446161218473
C           -2.24457661702160        1.36395135477954       -1.94708285297203
O           -0.34802045776948        1.83137404617036       -0.59375831599616
C           -1.59679056757408        1.87486917284848       -0.62383302131688
H            0.16221947289052       -0.07454947781527       -1.75862561081000
O           -2.37953072788889        2.26787053280387        0.26997488994044
H           -0.17441020830900        0.24141738445893       -3.35067035191951
H           -1.88186193508238        2.00246173644176       -2.75445565256511
O            1.08518771185287        4.05364970020877        0.80331739824783
H            1.98791985603561        3.71308867141519        0.88731004212499
H            0.59779993195579        3.35010563910122        0.35761942286454
O           -1.86244727232873        3.80663367791691        2.62337895054444
H           -1.99478977399443        3.30832416847956        1.80054295914954
H           -2.61373460797029        4.40870914134506        2.68693603111884
O           -4.64358761697967        3.94440519023225        0.40451005242378
H           -3.86751353215335        3.35986408815858        0.30991865371553
H           -5.39586905622764        3.43701886816582        0.07124266145900
O            2.15580873597596        1.12492989490092        0.44384182617902
H            2.37092226637065        0.52798267909637       -0.28029567813007
H            1.25294331282964        1.41410418763028        0.26487305250320
O           -0.04306691866823       -1.04289131033919        2.61976092017825
H           -0.11806896041382       -1.82639950183518        2.05859786378621
H           -0.50788661506136       -0.32470062360411        2.16903661639940
O           -2.82586315617688       -0.09755299259084        2.59821156678625
H           -3.19671345760898       -0.95155904773201        2.31902754765284
H           -2.97070475551615        0.54888290247190        1.89638043345432
O           -1.50344718436076        5.16409051497359       -1.32986491609382
H           -1.54275287028506        4.24195228083082       -1.05065165493103
H           -2.00836595187177        5.24991432140450       -2.15109725586033
O            0.71927949326445        2.84019631136944       -3.11289309839985
H            0.32743681457260        2.29242233381492       -2.41818850462297
H            0.60794200838713        2.41725544627439       -3.97866434420736
O            1.55683098388116       -0.99121067604085       -5.03118380761770
H            1.67467849162368       -1.83091811097569       -5.60639155665633
H            2.40156164772707       -0.50826509329165       -5.19945960911962
O            1.09114442663298       -3.44948438225607       -3.41076610130128
H            1.08688926754813       -4.39571787761360       -3.59051262081953
H            1.87308707117430       -3.07834328244984       -3.83267551702933
O            1.79005817302581       -1.13145599667518       -1.38029471681752
H            1.71269119644979       -2.08942155020265       -1.28128605567978
H            2.69803672206799       -0.95829814979136       -1.64351272063398
46
 energy: -76.991325032964 gnorm: 0.043714278560 xtb: 6.7.1 (edcfbbe)
H           -2.13527432429732       -0.69706280069229       -1.32865588952940
C           -1.90334576610312       -0.11753356186005       -2.22305146879443
H           -0.27747344726788       -1.30840324258497       -2.78841508421542
H           -2.51575785159002       -0.47968757601329       -3.04984486428189
N           -0.47697729116518       -0.32290905061030       -2.56408026585952
H           -3.33084623908584        1.46017442613187       -1.87269578178622
C           -2.25148535821547        1.34827207550516       -1.95854619378860
O           -0.35683771964312        1.80536448352550       -0.59360184035258
C           -1.60704394080373        1.86333495409808       -0.63958042312225
H            0.15179160297668       -0.07023543312813       -1.78546199496291
O           -2.37817474988287        2.24404500557925        0.26440781470018
H           -0.19821959043950        0.23576217546754       -3.38066260088676
H           -1.89624068596177        1.99108193091630       -2.76339008165973
O            1.09949923623342        4.06281110797524        0.79601739418748
H            1.98987616572019        3.70548531191264        0.88081580744848
H            0.58510333615634        3.36626056743080        0.36824159661940
O           -1.87541562178508        3.78611425913177        2.64587145567249
H           -1.97761988697545        3.30577434314933        1.80295941733028
H           -2.61981154611196        4.40939854733521        2.67032125308435
O           -4.64423387558481        3.96227576124512        0.38374270325295
H           -3.87179941281229        3.34778829609973        0.34318660294037
H           -5.39684617902735        3.43098140260507        0.07738179450751
O            2.17598867654247        1.13283512575094        0.46254390572463
H            2.36343247678977        0.50210337752958       -0.24237167406118
H            1.27598876189407        1.44040551391223        0.29744127305131
O           -0.01994902496717       -1.05331513079548        2.63238685875077
H           -0.10768987804032       -1.82622521199512        2.06726622964227
H           -0.49943445522113       -0.33676935042502        2.20748605619724
O           -2.80241065817145       -0.09396480645211        2.58053735230373
H           -3.25299862952603       -0.92453281784789        2.30800683609013
H           -2.99393872134237        0.57142677481479        1.90284728012398
O           -1.49780793220266        5.19052856398198       -1.34261379560272
H           -1.55319464694906        4.28034704331678       -1.03966830216204
H           -2.01782698816548        5.25807869833685       -2.15515472346179
O            0.73511090330932        2.86716096501595       -3.12888929167810
H            0.37273495621037        2.34504930885914       -2.38208587788796
H            0.59803467420226        2.39240362521054       -3.97219517375800
O            1.56000667219437       -0.96188254172606       -5.12650550695005
H            1.67342746668605       -1.80866589820188       -5.56922955434555
H            2.38927152380017       -0.48796871530774       -5.17555842236037
O            1.07998575100637       -3.44811691804223       -3.37276901512531
H            1.06828272366160       -4.38822506302323       -3.56464740065842
H            1.86643664893741       -3.08113127261253       -3.79026313418182
O            1.83392450383009       -1.14376991668419       -1.38809660555423
H            1.74083986035894       -2.09955152202669       -1.29270668770334
H            2.73707666653271       -0.99676643861053       -1.64960628479814
46
 energy: -76.991292184369 gnorm: 0.078226607531 xtb: 6.7.1 (edcfbbe)
H           -2.13448401619555       -0.71729943152323       -1.34773007533853
C           -1.90718194930964       -0.13602250976579       -2.24159175772491
H           -0.27909206636623       -1.31765896822229       -2.80609212022071
H           -2.52083602261576       -0.49861136430415       -3.06619708065529
N           -0.48203745822593       -0.33210676536821       -2.58764552628145
H           -3.33480546526514        1.43794157876217       -1.88906505791987
C           -2.25391928272252        1.32764307143417       -1.96995800053061
O           -0.36743727565436        1.79056037956686       -0.59686162890702
C           -1.61421957574537        1.83848145084260       -0.65244939057668
H            0.14292603445723       -0.05804517679374       -1.81032029143634
O           -2.37954855593858        2.22749349617802        0.25203056697709
H           -0.21699739975311        0.22434005788123       -3.40877792148586
H           -1.90064402074742        1.97320820976001       -2.77260078433420
O            1.11370685981909        4.09138756985206        0.76794447555145
H            1.99017980763177        3.68040585398758        0.88949833265750
H            0.56915149466770        3.38536975888243        0.37673466680074
O           -1.87930694641590        3.77930019344843        2.63940966295681
H           -1.97436328308611        3.29067745529959        1.81097618052169
H           -2.61861081706352        4.38678990451983        2.67819424281408
O           -4.63044237431579        3.90057098748166        0.43907288861813
H           -3.87079731589161        3.38031462003086        0.31004011423238
H           -5.38958993933966        3.47214830304678        0.07409980770725
O            2.19477707096717        1.14684503161625        0.47104456389412
H            2.34762072401329        0.46376922489699       -0.19983797230679
H            1.29608765443612        1.46593009519210        0.31986287804730
O            0.04942021027260       -1.06080779470701        2.64272865680531
H           -0.11796486636419       -1.83076820498467        2.06492994021468
H           -0.52426244802085       -0.34565500221315        2.27367188456079
O           -2.82571762051376       -0.08012189777725        2.56625843337410
H           -3.27256362333717       -0.89561687411870        2.29675460039305
H           -3.01379218665917        0.58570591762325        1.89620365999775
O           -1.48753716069000        5.21666673289006       -1.36354669783126
H           -1.57071503003344        4.31920501601231       -1.02532470349960
H           -2.02947743996219        5.26778463121284       -2.16118141310012
O            0.72751613801810        2.87951005337161       -3.11197949191249
H            0.38574888520132        2.35691596406837       -2.38723653559646
H            0.61748963705110        2.40948868559383       -3.93558108696842
O            1.56069790025886       -0.93746545486866       -5.14353857970685
H            1.66031968118557       -1.77609810076494       -5.56336783508669
H            2.38758316649707       -0.46812896783170       -5.19372814370324
O            1.07717348521509       -3.43847464962982       -3.31346605738301
H            1.03775019166644       -4.37782637798829       -3.54595113055106
H            1.85504027074855       -3.08014469897058       -3.75005831801989
O            1.87557805053015       -1.14864979346736       -1.38515367794238
H            1.75871699850127       -2.10250121676777       -1.29502741184598
H            2.78701806480089       -1.03790461718722       -1.69407317315860
46
 energy: -76.996504584966 gnorm: 0.029215974023 xtb: 6.7.1 (edcfbbe)
H           -2.13318025646204       -0.73116562060700       -1.36294663689686
C           -1.90889538930156       -0.14692102067882       -2.25518354200044
H           -0.27721711809542       -1.32324127554460       -2.81761036868782
H           -2.52398770749880       -0.50724110244821       -3.07904791643615
N           -0.48476331161133       -0.33784891666619       -2.60479869923275
H           -3.33504933777676        1.42595107755188       -1.89569376354862
C           -2.25420143482398        1.31551293648723       -1.97766344107145
O           -0.36635991160334        1.78341128777643       -0.60912522357467