46
 energy: -76.992053343882 gnorm: 0.427630706620 xtb: 6.7.1 (edcfbbe)
H           -1.87453719550000        0.25643936780000       -1.01312350410000
C           -1.40848590800000        0.66570571270000       -1.91059287500000
H            0.08159343220000       -0.74372883230000       -2.35488597660000
H           -1.94597904240000        0.29992054790000       -2.78538189900000
N           -0.00430280690000        0.22227099240000       -1.97728245920000
H           -2.57759493500000        2.46392784910000       -1.93593144760000
C           -1.52219751350000        2.19114955160000       -1.90854712710000
O            0.29690044460000        3.23555285470000       -0.75290549390000
C           -0.88755024850000        2.83724736910000       -0.67371931200000
H            0.43646902610000        0.19888714540000       -1.02589032130000
O           -1.58097568610000        2.94127128540000        0.37079339300000
H            0.56054768560000        0.87299405910000       -2.55755055530000
H           -1.03021984450000        2.59805841110000       -2.79269084620000
O            2.30903467840000        2.37502715050000        0.91233008760000
H            2.21766077640000        2.72231879000000        1.80380293980000
H            1.61456128360000        2.80351994370000        0.37568724810000
O           -2.36522492510000        5.08913827790000        1.99401719030000
H           -1.95887839650000        4.34805818290000        1.51295825590000
H           -1.77389843920000        5.83934216070000        1.88468212160000
O           -4.32923274090000        3.11460001940000        0.52500752620000
H           -3.36025205240000        3.03350483460000        0.42547032780000
H           -4.45453686150000        3.89367151180000        1.07653990520000
O            1.34697817990000       -0.14481178970000        0.35717048630000
H            1.98297161120000       -0.74652439200000       -0.08594183420000
H            1.83724508410000        0.66053596580000        0.60149281810000
O           -0.57422402110000       -1.42861832240000        1.99667411860000
H            0.16340850340000       -1.01726316940000        1.51272718890000
H           -1.33580406530000       -0.85820385840000        1.80950395910000
O           -2.57635298620000        0.45536590020000        1.20349610330000
H           -3.47284836140000        0.62342608860000        1.50901456600000
H           -2.18861342090000        1.33133701580000        1.03764191830000
O           -2.43452217740000        5.39114074280000       -1.13978677250000
H           -2.14658257030000        4.57162555500000       -0.69723845190000
H           -3.02773521270000        5.11343455350000       -1.84461242500000
O            1.52985398550000        2.30454138040000       -3.03096309440000
H            1.21212713240000        2.78607831520000       -2.24146041770000
H            2.49006115590000        2.30877948920000       -2.98847069310000
O           -0.09418527370000        5.48671235910000       -2.70825570070000
H           -0.42805051610000        5.13795407850000       -3.54060020370000
H            0.13129961960000        4.73401108890000       -2.15319421800000
O            0.47077784560000       -2.35611564270000       -2.87380035980000
H           -0.14440976280000       -3.06605854280000       -2.66884550780000
H            0.62049517300000       -2.37647298590000       -3.83846512140000
O            3.02541334640000       -2.11558634130000       -1.20014595400000
H            1.96838411340000       -2.13402781950000       -1.81803839860000
H            2.92257225170000       -2.79271816970000       -0.78839956280000
46
 energy: -77.045693477380 gnorm: 0.091311637310 xtb: 6.7.1 (edcfbbe)
H           -1.87547086649617        0.25647169111536       -1.01304587509444
C           -1.40903161070291        0.66499088548499       -1.91102404829105
H            0.08065733776505       -0.74163077990525       -2.35414811118341
H           -1.94629445464953        0.29903487957239       -2.78594288708777
N           -0.00429053088622        0.22342033780773       -1.97762240743129
H           -2.57824556807458        2.46087148364136       -1.93122882298312
C           -1.52214560099399        2.19017798584250       -1.90987791883740
O            0.29822950700065        3.23722451128895       -0.75957616080710
C           -0.88149159685792        2.82775178561951       -0.67347151352873
H            0.43581183651334        0.20031275024730       -1.02638323921555
O           -1.57729612934119        2.94005329203782        0.36920473773761
H            0.56168452951363        0.87344794969600       -2.55868121269668
H           -1.03030841728376        2.59564906860533       -2.79468311652283
O            2.30585505884420        2.37109286775214        0.91272262017247
H            2.21923762986934        2.72241996877558        1.80304120074570
H            1.61616412696189        2.80608816681888        0.37613064118749
O           -2.36354586538784        5.08840275540205        2.00010872523509
H           -1.95811630739859        4.34897112490277        1.51785983920063
H           -1.77647369288624        5.84048454930721        1.88240238807096
O           -4.33148091768729        3.11661330211946        0.52004661271029
H           -3.36385389968068        3.03130971006342        0.42945768625009
H           -4.45502777088914        3.89161306714723        1.07740520180587
O            1.35209376766667       -0.14945812280092        0.34700994666192
H            1.99719562393559       -0.74447250255806       -0.08044761980272
H            1.83534780387638        0.65839908328184        0.60245751459595
O           -0.57444842234131       -1.42945203674336        1.99487976131331
H            0.16376376032746       -1.01563491195283        1.51442209738076
H           -1.33602145126104       -0.85776491070540        1.81085231645755
O           -2.57670090985726        0.45487326306439        1.20079179978647
H           -3.47268082748792        0.62236600279334        1.50802264509176
H           -2.18944995451230        1.33146172727750        1.04073431890926
O           -2.44030425477938        5.39431585097489       -1.14020219018230
H           -2.15799771410831        4.58433426610203       -0.69420163834083
H           -3.03458926541919        5.11624171718608       -1.84375099200882
O            1.52879149752836        2.30315945641386       -3.03067617262550
H            1.21698444858213        2.78064499752816       -2.23788517966608
H            2.48889646004215        2.30828535061293       -2.99224390310515
O           -0.08208614980461        5.48987147980516       -2.71579431598406
H           -0.42366521679810        5.13479593347804       -3.54257229431162
H            0.13015054065357        4.73961320721454       -2.14767440838883
O            0.48217632658814       -2.35361798571846       -2.87118327177369
H           -0.13548674433893       -3.06306735520752       -2.66202769207252
H            0.62769980229899       -2.37795125315354       -3.82858626041695
O            2.94975433432132       -2.04165967053065       -1.25609403449520
H            2.00358416445955       -2.14522103680845       -1.81315867417075
H            2.92358594827608       -2.85741521819629       -0.75307647108882
46
 energy: -77.056660251203 gnorm: 0.027177205363 xtb: 6.7.1 (edcfbbe)
H           -1.87531947065043        0.25370862239594       -1.01291688093854
C           -1.40932790963579        0.66117301829120       -1.91173291570016
H            0.08271730980509       -0.74014314828426       -2.35359476580235
H           -1.94642472715876        0.29370296981587       -2.78634368185370
N           -0.00343095903231        0.22417537023329       -1.97857328108564
H           -2.57949782398429        2.45316887855015       -1.92081951647073
C           -1.52249402653187        2.18580196635703       -1.91037692478914
O            0.30245794460215        3.23811849350271       -0.77189153983943
C           -0.87604587979035        2.82692508990555       -0.67876203467679
H            0.43804897214471        0.20145241922912       -1.02787615385254
O           -1.56685205913374        2.93609479815662        0.36764213238609
H            0.56235876460095        0.87372582483286       -2.56118657486932
H           -1.03521622817459        2.58904896898629       -2.79872969216271
O            2.29736676215310        2.36278681319183        0.91513083331888
H            2.22198247234755        2.72375241402667        1.80279564059899
H            1.61885613253768        2.81247479405457        0.37667429499368
O           -2.35596582814470        5.08321124899882        2.02209292630061
H           -1.95312353834575        4.34711293524798        1.53374189843949
H           -1.78684442275288        5.84506124693276        1.87472396435560
O           -4.33656557401072        3.12397871162006        0.50505370889126
H           -3.36888076652517        3.02314681070233        0.43914485392720
H           -4.45830339370741        3.88560118970269        1.08165193364318
O            1.36821286051474       -0.16025713394876        0.33238228733072
H            2.03494957081872       -0.73974424026559       -0.08013622424209
H            1.83169237519753        0.65489433305981        0.60464408026762
O           -0.57396833870470       -1.43177738249565        1.98761020304055
H            0.16511594770567       -1.01163134750985        1.51416613416911
H           -1.33536404264677       -0.85698548240321        1.81209495811253
O           -2.57760444869108        0.45315771924027        1.19434475588029
H           -3.47350931216278        0.61721931441591        1.50372479004684
H           -2.19064685976753        1.33202205037067        1.04751684346471
O           -2.46149400745597        5.41377335511527       -1.14513190020152
H           -2.19247792614082        4.61541942743236       -0.67853919887841
H           -3.06280051176909        5.12872333306244       -1.83990231089412
O            1.52833262743307        2.29791241561876       -3.03198869772413
H            1.23029245620991        2.76470737550139       -2.22791372653553
H            2.48885117553586        2.30551840754680       -3.00847783063573
O           -0.03905720216655        5.49723800351159       -2.74102202315052
H           -0.40744774884248        5.12074646599675       -3.54815229666829
H            0.12518930535013        4.76036310680681       -2.13314268657355
O            0.50205858429950       -2.35174415102573       -2.86336770273419
H           -0.11581252398845       -3.05861692758576       -2.64400543477549
H            0.64559683522748       -2.38655287157240       -3.81574416563122
O            2.85594100731958       -2.04294605460245       -1.25940465575423
H            2.05901373880500       -2.10073436365331       -1.80770356378737
H            2.86660105240671       -2.89736610436605       -0.77541023773984
46
 energy: -77.058357950557 gnorm: 0.035784476079 xtb: 6.7.1 (edcfbbe)
H           -1.87114066545745        0.24760324146998       -1.01019262567737
C           -1.40716452188148        0.65604624575992       -1.90955362180804
H            0.08557249044683       -0.74237120784919       -2.35529108505147
H           -1.94502143827979        0.28691691936359       -2.78320508616961
N           -0.00079169152671        0.22142320241988       -1.97948490317460
H           -2.58210995392397        2.44414550306752       -1.90932076478172
C           -1.52410945072004        2.18051546429672       -1.90856724756963
O            0.30358081727714        3.24521051167235       -0.78402943068593
C           -0.87244365881517        2.82749097695932       -0.68242342166808
H            0.44495706270149        0.19770990920697       -1.03024376335822
O           -1.55911978605350        2.93908883795882        0.36622108499431
H            0.56276855824475        0.87139750170662       -2.56406133067580
H           -1.04432227645377        2.58280757820216       -2.80153329467607
O            2.28868843522353        2.35797554294290        0.91726652375422
H            2.22434893176496        2.72579181520611        1.80320905074856
H            1.61779422035553        2.81869394225754        0.37836866123505
O           -2.34371991344500        5.07242922962890        2.05471727162017
H           -1.94012605514584        4.34111817286009        1.56006648263000
H           -1.80743037062778        5.85257724056983        1.86064456646682
O           -4.34032004831200        3.13267804719477        0.48567660202060
H           -3.37206822166453        3.01693854321724        0.44523869338446
H           -4.46371674210475        3.87529059555434        1.08841817262246
O            1.38468184225949       -0.16654203404430        0.32468138636289
H            2.06699194877826       -0.73705441161253       -0.07763771874801
H            1.83339185226967        0.65426918890442        0.60417299196318
O           -0.57044512129556       -1.43061072738571        1.98196454661822
H            0.16817114630767       -1.01156012342926        1.50719027474100
H           -1.33254294106275       -0.85677217615190        1.80693968362434
O           -2.57657735691292        0.45201594304097        1.18868701687317
H           -3.47519196762336        0.60959979126314        1.49382228774231
H           -2.19142017762052        1.33372259698935        1.05269078657175
O           -2.48517871748329        5.44328386404691       -1.16108008607569
H           -2.25284020631391        4.65380807225631       -0.65494051808319
H           -3.12057281298389        5.15427234506350       -1.82566294787856
O            1.52964130266860        2.28580198507065       -3.03538199370772
H            1.24635829625932        2.74636161834258       -2.22128903910456
H            2.49102927357273        2.30241292821353       -3.03528862349391
O            0.02582593973142        5.50624613573534       -2.77029314378885
H           -0.37251299942241        5.09954497972398       -3.55175677753727
H            0.13327909946146        4.79155506162494       -2.11317108710908
O            0.49838119267435       -2.35212254117203       -2.87808407672889
H           -0.10770907488691       -3.06129775463380       -2.63569825994587
H            0.64689347408574       -2.41383748650699       -3.82805784671594
O            2.80691695055908       -2.01503524536148       -1.18683649144362
H            2.09045008087640       -2.12199710073956       -1.87380751031292
H            2.83003361959953       -2.89012403820424       -0.75079376680283
46
 energy: -77.060180337492 gnorm: 0.027148709399 xtb: 6.7.1 (edcfbbe)
H           -1.86436017039189        0.23742831347976       -1.00537088972057
C           -1.40294926136841        0.64733383230028       -1.90527376239827
H            0.09081022364057       -0.74729931056176       -2.35627798095313
H           -1.94143032979831        0.27566434623389       -2.77780206776044
N            0.00385036776613        0.21549538987087       -1.97909670734167
H           -2.58574701906972        2.42955200341583       -1.89306890235029
C           -1.52630919207557        2.17170777868201       -1.90567178317931
O            0.30454023576605        3.25661301999223       -0.80215769757025
C           -0.86805000434704        2.82988207388503       -0.68836175398176
H            0.45604801715235        0.18957451425569       -1.03199437881335
O           -1.54857889451665        2.94436852595976        0.36350413247913
H            0.56457313412849        0.86598611642183       -2.56626469430493
H           -1.05772858236317        2.57290977684676       -2.80523134872142
O            2.27940373063207        2.35301853466787        0.91772670967575
H            2.23061253676941        2.72773169129648        1.80212767494065
H            1.61525323318445        2.82523867931585        0.38076093052605
O           -2.33414581792877        5.06019589285270        2.08844134786560
H           -1.92093188956305        4.33081122036679        1.59983888314119
H           -1.83268655809919        5.85725680101786        1.85108496223121
O           -4.34339974526821        3.14102758008107        0.46308479060013
H           -3.37552852439866        3.01573364989363        0.44715030020317
H           -4.47376802249907        3.86088701715937        1.09456860921341
O            1.40688856829245       -0.17520932192318        0.31650608854312
H            2.09516633311946       -0.74039422018152       -0.08770650196030
H            1.84629655073337        0.65004227062452        0.59337954334232
O           -0.56206674220019       -1.42056026003303        1.98563115874424
H            0.17455809194084       -1.01119943534618        1.50004489928013
H           -1.32717033969176       -0.85479534035087        1.79916867576306
O           -2.57560679569889        0.44910539063524        1.17957798217678
H           -3.47901791043519        0.59772997086090        1.47572455438729
H           -2.19268003068743        1.33396969884011        1.05627661571029
O           -2.51691033922074        5.48178085218519       -1.18368439666444
H           -2.34342588514283        4.70398290687205       -0.62283752988718
H           -3.21122289671406        5.19463949524371       -1.79835741115217
O            1.53228320587530        2.26436610697297       -3.04123062236037
H            1.26187876817886        2.72780049067908       -2.22355949541818
H            2.49417751456904        2.30159789135848       -3.06999266929441
O            0.09421768755717        5.51543158912763       -2.79226658562959
H           -0.31494577737819        5.08094357169548       -3.55415533858178
H            0.16921500615886        4.82758020667274       -2.09943926645931
O            0.50055024065323       -2.35586476053722       -2.89845712365830
H           -0.09675081710015       -3.06158090823303       -2.62512729162579
H            0.65382832315496       -2.45288061309448       -3.84531624137895
O            2.78472880995939       -2.02971733342296       -1.20561293243616
H            2.06730473810018       -2.11618304363708       -1.85178659905620
H            2.79038659372646       -2.84428396774191       -0.69620626496578
46
 energy: -77.061202283639 gnorm: 0.021338869172 xtb: 6.7.1 (edcfbbe)
H           -1.85487248963604        0.22722194121502       -0.99838341464484
C           -1.39647121621646        0.63778730217024       -1.89942652911338
H            0.09783451474788       -0.75428521175330       -2.35808548072795
H           -1.93602434660139        0.26357109797821       -2.77044186067069
N            0.01028919112940        0.20700823052864       -1.97781175008260
H           -2.58756559103978        2.41430684414044       -1.88142100688613
C           -1.52696803150374        2.16230093940835       -1.90250520975346
O            0.30522021593732        3.26622987666958       -0.81732840145286
C           -0.86646218917658        2.83836087206603       -0.69540267111058
H            0.46795038044578        0.17962260368093       -1.03286643742444
O           -1.54038527859743        2.95152190785948        0.36020157630093
H            0.56860331021937        0.85827561853921       -2.56685970511935
H           -1.06917256963459        2.56332313662333       -2.80752965161698
O            2.27422784708892        2.35894485393700        0.91964255880788
H            2.22924833561411        2.73103606194649        1.80458009001188
H            1.60957704507001        2.83031963046511        0.38490186426172
O           -2.34612537686693        5.06240285283403        2.07859636256223
H           -1.90368389432687        4.32200353931629        1.63228124190240
H           -1.83280745813370        5.84455795682315        1.88022017835355
O           -4.33854680891527        3.14075708190780        0.45865305899244
H           -3.37301258183966        3.02895558414106        0.43895356103060
H           -4.48328394609376        3.85141207607883        1.09444405377766
O            1.41530500697955       -0.17116153360575        0.31965672177168
H            2.09036770787179       -0.73944533375633       -0.10250624227664
H            1.86121166236520        0.65264319480818        0.58210535195501
O           -0.55643404203758       -1.41952234521978        1.97509745396496
H            0.18225947354191       -1.00700696131480        1.49590106621764
H           -1.32047189504677       -0.85121131709929        1.79247377722155
O           -2.57366051443554        0.44511639328500        1.16915031611400
H           -3.48092688193943        0.58763662581188        1.45684724826038
H           -2.19175300138589        1.33073846554611        1.05127831594786
O           -2.59932409632224        5.51255590628627       -1.15562116102396
H           -2.41014081329659        4.73832037826213       -0.61907378012393
H           -3.28661369964420        5.24228532024909       -1.77476065791218
O            1.53692067882140        2.24355431673826       -3.04930198938461
H            1.26476928438478        2.72429400521037       -2.24349909074525
H            2.49689954143636        2.30089989562520       -3.09013226608231
O            0.11362107314469        5.51418831915195       -2.77704981352521
H           -0.23997183527860        5.08778466682368       -3.55851250610388
H            0.24295718699587        4.83637311408552       -2.11699999220807
O            0.50876632783906       -2.36846451141407       -2.91885654021674
H           -0.08990243844828       -3.06314965177441       -2.62137161936767
H            0.65499355818854       -2.48699712084818       -3.86402988353348
O            2.74867493126549       -2.00894039345077       -1.18214274286430
H            2.05219323344517       -2.13868193979885       -1.83712045363542
H            2.79385085498807       -2.82002560547672       -0.67365431864863
46
 energy: -77.062441972826 gnorm: 0.014905360035 xtb: 6.7.1 (edcfbbe)
H           -1.84372743729141        0.21782401398821       -0.99079819538536
C           -1.38915652437481        0.62869833701869       -1.89359645710465
H            0.10553880606117       -0.76116217170726       -2.36131029991305
H           -1.93076380681110        0.25287212147846       -2.76268503550781
N            0.01743537956337        0.19823637238605       -1.97709657928760
H           -2.58818425023717        2.39987666608115       -1.87226374583473
C           -1.52664888608136        2.15320171091745       -1.89840242126094
O            0.30420670976808        3.27452440384970       -0.82801116953462
C           -0.86533027241369        2.84265089746707       -0.69837569202662
H            0.47811191176314        0.17044211797798       -1.03349118552547
O           -1.53463795551991        2.95761295958234        0.35910241528267
H            0.57429596757820        0.85051186887885       -2.56680537382681
H           -1.07859474306383        2.55566433759118       -2.80739767365376
O            2.27507688951211        2.37235387686033        0.91900315894693
H            2.22596721688432        2.73616896856983        1.80605486054497
H            1.60484920520206        2.83517660427285        0.38644325715901
O           -2.33805815804777        5.04702481616191        2.10469546800885
H           -1.88575845868023        4.32030877865758        1.64776440879884
H           -1.85944841008495        5.84811433529766        1.88001439214429
O           -4.33068644329543        3.14458572667456        0.45209611442635
H           -3.36615179403336        3.04066811018351        0.43327273688427
H           -4.48841197043989        3.84273452107681        1.09674569277731
O            1.40914201252614       -0.15770677914679        0.32911131638656
H            2.06134900093169       -0.73780589770939       -0.11549414997864
H            1.87297351298523        0.65930444514165        0.57586953901764
O           -0.55270449267301       -1.42278818329140        1.96060266178308
H            0.18953650126376       -1.00236725178211        1.49381480475447
H           -1.31462073563485       -0.84949925479158        1.78456179153781
O           -2.57095794169205        0.44171247611168        1.16094496155676
H           -3.48145171570629        0.58106150273788        1.43966286845849
H           -2.18997329268703        1.32642725166127        1.04138407060515
O           -2.64355324636031        5.53817941151566       -1.15831142492441
H           -2.49233548055405        4.76789259973394       -0.60250385591966
H           -3.38470100253945        5.29217594581659       -1.73463417509509
O            1.53799499648794        2.23420068976342       -3.06148596203732
H            1.26171164041969        2.72507537393121       -2.26423656227735
H            2.49494657083844        2.29646805007276       -3.10358597691384
O            0.20661716351618        5.51550528971350       -2.80236662307787
H           -0.16597937595431        5.06354303619707       -3.56395711086881
H            0.26399884862324        4.86030595277155       -2.08939433689033
O            0.51734895803297       -2.38701596942294       -2.93556025864201
H           -0.08826780687838       -3.06800120580327       -2.62314915252945
H            0.65123042132815       -2.51510861906372       -3.87981844818783
O            2.71774595688766       -1.98345872382793       -1.15181484592103
H            2.04336295829160       -2.17256490195166       -1.83135790901443
H            2.81782393769416       -2.80620592694163       -0.66095027673548
46
 energy: -77.063110217498 gnorm: 0.024928458154 xtb: 6.7.1 (edcfbbe)
H           -1.82965312670542        0.20784599060473       -0.98246361081250
C           -1.38130647786310        0.61876215114893       -1.88839147990680
H            0.11460393779566       -0.76700533632300       -2.36544713707324
H           -1.92651035321776        0.24132994655573       -2.75435903715133
N            0.02544436454075        0.18998440200445       -1.97767487513699
H           -2.58848498691514        2.38341216881950       -1.86529355429715
C           -1.52576640193284        2.14277255781109       -1.89412670925710
O            0.29968078668364        3.28627845262217       -0.83837569431310
C           -0.86383136119209        2.84012858701098       -0.69820738455288
H            0.48576148328208        0.16468430114277       -1.03378304817323
O           -1.53082084817724        2.96299301558437        0.35898338105947
H            0.58124200741788        0.84314550063749       -2.56740576075255
H           -1.08682429959196        2.54784604889423       -2.80611556971937
O            2.27763548291873        2.39676773382231        0.91770673302574
H            2.21330352848268        2.75112790284956        1.80708727372872
H            1.60449274141012        2.84895288868137        0.38046342363257
O           -2.32150180962038        5.02206776622009        2.14605512809536
H           -1.86798710812562        4.32214573138013        1.65127605774866
H           -1.89753362254881        5.85560359975905        1.87227636273975
O           -4.32150625953164        3.17157680586229        0.41853420739663
H           -3.35436244171040        3.03835431184390        0.44230386020370
H           -4.48572329290676        3.82432757490563        1.11969936249431
O            1.39149985188643       -0.13352603839278        0.34044180945392
H            2.02469831719434       -0.73359779650757       -0.11442322238604
H            1.87615055198548        0.67415266005145        0.58037618754387
O           -0.54946710685932       -1.42952284637791        1.93922511623524
H            0.19671220846761       -0.99518185572317        1.48999700410679
H           -1.31014317212899       -0.85244904486258        1.76975810477898
O           -2.56848605210011        0.43848847979309        1.14951687050922
H           -3.48206946059076        0.57447410305901        1.41871368180723
H           -2.18928199340430        1.32281020951343        1.02786945386824
O           -2.71731385977379        5.56243196095696       -1.14436225756361
H           -2.59339098356685        4.79538862255243       -0.57564674365425
H           -3.46180356485565        5.34550802080466       -1.71395391155896
O            1.53490289240802        2.23271848745875       -3.07602579552956
H            1.25829367113795        2.72644675596862       -2.28123712458835
H            2.48970457117285        2.29065958179642       -3.11988667629043
O            0.30303813892411        5.50837770761555       -2.81512515768938
H           -0.08544401331376        5.04936114994629       -3.56740466719681
H            0.30258242704924        4.86506627247683       -2.07629489558636
O            0.52670704337678       -2.40981736317661       -2.94179375589572
H           -0.08503251092761       -3.07963157237919       -2.62256523020759
H            0.65007906169020       -2.54220757503353       -3.88530098446550
O            2.71453686900473       -1.99278415547446       -1.14334188635408
H            2.04238979317443       -2.17388078480420       -1.82847269457568
H            2.83194574266285       -2.80896839639837       -0.65051553254174
46
 energy: -77.063315751408 gnorm: 0.035454018037 xtb: 6.7.1 (edcfbbe)
H           -1.81597982639959        0.19889420206275       -0.97508603756074
C           -1.37527369355365        0.60984773226176       -1.88482453205441
H            0.12180319348170       -0.77077810902136       -2.37011070805456
H           -1.92498989180334        0.23035927810376       -2.74681890712521
N            0.03199582542749        0.18405896422903       -1.98037079421364
H           -2.58915838719820        2.36843990032815       -1.86045003305284
C           -1.52522944570698        2.13318841846729       -1.89092853377646
O            0.29453331658912        3.29528489116255       -0.84724862226714