34
 energy: -56.580484914391 gnorm: 0.192234379771 xtb: 6.7.1 (edcfbbe)
H            1.51131700000000       -0.30682800000000       -0.55501400000000
C            0.42356400000000       -0.53272100000000       -0.60971700000000
H            0.15351800000000        0.48284000000000       -2.37712700000000
H            0.30622500000000       -1.51992900000000       -1.10801900000000
N           -0.26687200000000        0.47309100000000       -1.42055200000000
H            0.31243500000000       -1.51306200000000        1.31258500000000
C           -0.16516600000000       -0.64664900000000        0.80679900000000
O            0.75046400000000        1.63132300000000        1.24106600000000
C            0.05694300000000        0.56251400000000        1.67849900000000
H           -0.17036900000000        1.42768900000000       -1.01141000000000
O           -0.37805100000000        0.56237000000000        2.81853100000000
H           -1.27994500000000        0.22829700000000       -1.50380900000000
H           -1.25406300000000       -0.84893600000000        0.72816900000000
O           -0.76418700000000        3.25805700000000       -5.14314300000000
H           -1.22410000000000        2.39141700000000       -5.27740000000000
H           -1.19376400000000        3.64496600000000       -4.33916700000000
O           -2.38144100000000        2.54222100000000       -2.84218500000000
H           -2.74222700000000        2.18250100000000       -1.99304100000000
H           -1.86460300000000        1.79174500000000       -3.22984100000000
O            0.63188900000000        1.77611900000000       -4.27928600000000
H            1.41253600000000        1.23692700000000       -3.99560900000000
H            0.44138100000000        2.36331400000000       -3.50499800000000
O            2.75312500000000        3.00353500000000       -3.83371600000000
H            2.22291400000000        3.64853200000000       -3.30130000000000
H            2.38987100000000        3.08171000000000       -4.75162000000000
O           -0.55649100000000        3.58469400000000       -1.23361200000000
H            0.09644000000000        4.32569400000000       -1.16143700000000
H           -1.39871900000000        4.02271400000000       -1.51540100000000
O            2.33877200000000        2.59682100000000       -0.93740800000000
H            2.18250000000000        3.57343700000000       -0.98650600000000
H            1.78047000000000        2.21944200000000       -1.66300900000000
O           -1.37276100000000        3.82665400000000        0.80498700000000
H           -0.99931600000000        2.98626500000000        1.17226800000000
H           -1.94753600000000        4.18030200000000        1.52968000000000
34
 energy: -56.620734516128 gnorm: 0.103574566805 xtb: 6.7.1 (edcfbbe)
H            1.49573069158690       -0.29592968355307       -0.54830056329857
C            0.42800546245181       -0.54015891704866       -0.61800596466988
H            0.14293809451180        0.50177350660003       -2.37572612701288
H            0.31566737363885       -1.51581159636104       -1.10913395007217
N           -0.26376681984746        0.47909685452038       -1.42361990285820
H            0.30227940294262       -1.49796633944020        1.30781052128239
C           -0.15593495628268       -0.64422358866672        0.79141337694450
O            0.68987141662906        1.59499418645660        1.21772929733645
C            0.07092362612611        0.56408679951472        1.69096487304943
H           -0.16671962114664        1.42321293414146       -0.99608644370797
O           -0.39925658768911        0.55694113907625        2.83810515799619
H           -1.26566029150716        0.24211818808135       -1.49597970770089
H           -1.23636361063964       -0.84172210751786        0.74336864676278
O           -0.84003185919681        3.31929796047097       -5.18664286172359
H           -1.22750615887820        2.43200361623127       -5.29873231947707
H           -1.22119011266139        3.64599331217066       -4.35047670710104
O           -2.40420817178700        2.52157808171955       -2.85308011320725
H           -2.74182690229003        2.18854976220862       -2.00598684978637
H           -1.87620481716199        1.79461422994483       -3.22707154212472
O            0.58708890028860        1.65397514223955       -4.20784291604713
H            1.44174003208877        1.22725047808607       -3.98003077876399
H            0.46407853103414        2.34548535441550       -3.51491666632800
O            2.79740821602168        3.05224708047153       -3.84224897509982
H            2.24723234530920        3.65785681524377       -3.31704709999524
H            2.40782367373690        3.08586139970367       -4.73593859027507
O           -0.49880596102602        3.57275316841697       -1.36743024790413
H            0.08509697425351        4.32803148756932       -1.13974823169931
H           -1.37258717630665        4.00126331948838       -1.50787425818881
O            2.35168037310812        2.59419309487461       -0.95241318953022
H            2.19154437661127        3.55140638554820       -0.96538174142735
H            1.79560631426479        2.23741663009593       -1.66658330087919
O           -1.42097446845397        3.81383278705289        0.84423017934176
H           -0.96997377926753        3.01925588673203        1.19326316201787
H           -1.94895151046196        4.16778863151237        1.57767083414729
34
 energy: -56.637635642561 gnorm: 0.058758494805 xtb: 6.7.1 (edcfbbe)
H            1.48413693537934       -0.27244233756562       -0.53921222671472
C            0.43306218172858       -0.53806154254897       -0.62021678567990
H            0.12536489585688        0.53446060232467       -2.37894700515722
H            0.32925769225176       -1.50223574627792       -1.11184612693665
N           -0.26220859870286        0.49169866018525       -1.42437219642205
H            0.29864317601730       -1.48211868905495        1.30864053781403
C           -0.15785394367813       -0.64713937428886        0.77777644951765
O            0.64612523876867        1.55704482496953        1.20692955745773
C            0.02459579959129        0.60164693128272        1.67256783126161
H           -0.15956490077477        1.42206908762900       -0.97336849490970
O           -0.39958270195674        0.52522700190518        2.85265886621246
H           -1.25574878470958        0.26382918199223       -1.47972325814673
H           -1.22908877871974       -0.84821462491949        0.75153717443991
O           -0.86671493484709        3.36593890723248       -5.19858401661630
H           -1.21431502993992        2.48227785583520       -5.34260650829966
H           -1.25822772585624        3.65161077393098       -4.36914090787653
O           -2.44013611009835        2.49532504495941       -2.87215218807425
H           -2.75572770816745        2.19324123313047       -2.02159394977255
H           -1.89049286108441        1.79379169553537       -3.23067005354666
O            0.55014057810485        1.54390009689058       -4.11427015558757
H            1.47070751976972        1.22794498268564       -3.95541577778519
H            0.45896478110751        2.31007146794560       -3.50256098437975
O            2.77771335798993        3.04713630519245       -3.85517861843198
H            2.28494728335697        3.69054451075952       -3.34549022873889
H            2.42767634146964        3.10958250614837       -4.74525975828108
O           -0.44565960672611        3.57104675666802       -1.42844065962104
H            0.09154722265202        4.31582634526711       -1.14061562001534
H           -1.32512511744770        3.95628095986706       -1.52576603711792
O            2.37553251772329        2.58620779627495       -0.97180105602318
H            2.21227183396536        3.52864758452262       -0.92943915619599
H            1.80723308815300        2.25817860002078       -1.67248017256008
O           -1.44560901953220        3.80671353219981        0.88048004236674
H           -0.93608938868609        3.04820360944844        1.20377502740725
H           -1.95102223295911        4.14883145985201        1.61304345641304
34
 energy: -56.649131642986 gnorm: 0.064754602867 xtb: 6.7.1 (edcfbbe)
H            1.48088027735269       -0.25075545044352       -0.53016200873202
C            0.43588279292507       -0.53191789816917       -0.61825031284698
H            0.10754561054301        0.57302848702088       -2.38188439911504
H            0.34250583335060       -1.48772416025623       -1.12450632185953
N           -0.26195821615520        0.50795151702885       -1.41672381043890
H            0.30305273226914       -1.49381339938054        1.30417568456208
C           -0.15620135428901       -0.66322352386581        0.77637906216702
O            0.51459362118794        1.61082701875136        1.15123098794342
C            0.06392471900859        0.59101109261292        1.68756022893240
H           -0.14802321630742        1.42618864274720       -0.94657997190855
O           -0.42959576364554        0.51031477585164        2.84515034306787
H           -1.25542800134067        0.28827651156676       -1.45653472794406
H           -1.22831152775860       -0.85438427304727        0.76132092772823
O           -0.88259093993849        3.41595432050026       -5.20469561817985
H           -1.18263016954674        2.52180554235725       -5.39869622609530
H           -1.30682644632937        3.65038285543616       -4.37428543270404
O           -2.48537149656036        2.47189454058585       -2.90082632079653
H           -2.77368783813843        2.19932651575286       -2.03066500005397
H           -1.89794930898960        1.78938849623203       -3.23709710319389
O            0.51916453430523        1.45699825376360       -4.01798934488574
H            1.46543580061568        1.20715083589286       -3.91954876753927
H            0.44047028311891        2.26974328047195       -3.47450059328162
O            2.76351354975236        3.04365496060103       -3.87100599819134
H            2.32607106502705        3.73806764802196       -3.37159468275849
H            2.44968783892290        3.13380715160262       -4.76991701045444
O           -0.37907337872691        3.55908833514789       -1.51497382430695
H            0.09553021256986        4.31665963186819       -1.10432171356019
H           -1.29259371395384        3.89626016805019       -1.52885842923516
O            2.41702087208825        2.56636950694361       -0.99719226119337
H            2.23897222163504        3.50517515852862       -0.86471581329236
H            1.81306460747623        2.28357859559710       -1.68960871482320
O           -1.48678633230367        3.77303548705526        0.87926968749513
H           -0.87392402093898        3.07877440482602        1.21083214298388
H           -1.93161184722652        4.13417097034687        1.64747234250989
34
 energy: -56.658189149118 gnorm: 0.057858612663 xtb: 6.7.1 (edcfbbe)
H            1.47889398310322       -0.22413821009848       -0.52397503100114
C            0.43681236444021       -0.52397044604581       -0.61977050606254
H            0.08250687931230        0.61850495128099       -2.38428026422937
H            0.36218711291046       -1.47427965278267       -1.14616417362274
N           -0.26803258916681        0.52479932647869       -1.40305114217602
H            0.32284602403234       -1.49060989586058        1.30616515079973
C           -0.15768573225228       -0.67374427029408        0.77415754759449
O            0.39078019031042        1.66735158409102        1.10191454291662
C            0.02202177449667        0.60970108837163        1.67681238461418
H           -0.13932067212268        1.43030958881249       -0.91087267858737
O           -0.40178560021446        0.47519104400598        2.85688071038480
H           -1.26527142810970        0.31219440162156       -1.42636720539795
H           -1.22713881448761       -0.87838870444547        0.76108801021947
O           -0.89989557025363        3.47461689349784       -5.21276382985764
H           -1.14080474059666        2.56252016270346       -5.45907401092422
H           -1.36194590409005        3.64458422571683       -4.37356815643826
O           -2.53111314877229        2.45433459484190       -2.93233772340164
H           -2.79190247234727        2.21077469611838       -2.03806212471783
H           -1.90029362115324        1.78786132499213       -3.24094543914684
O            0.49108422896550        1.37195639646413       -3.90999521251673
H            1.43973911051256        1.17018976436319       -3.87051031198499
H            0.42079600164918        2.23721671181099       -3.44611481087543
O            2.75386697136696        3.04418565910990       -3.89138953955756
H            2.36934228191545        3.78933102552188       -3.40165283754666
H            2.47306967001562        3.16070050403637       -4.80468588666428
O           -0.32665739724214        3.55023459121133       -1.55212946553857
H            0.13192234087443        4.27808742609975       -1.16067991549061
H           -1.24838509365141        3.82973161350597       -1.56271321910005
O            2.45903984931974        2.54143631119189       -1.01674710488836
H            2.27780519545268        3.47508349373690       -0.79641567044430
H            1.81510603991489        2.31491144158883       -1.70664602552575
O           -1.48094060560336        3.77404676003085        0.92265003220428
H           -0.86775972554168        3.07977369790406        1.19951791644325
H           -1.91413390298846        4.11256790041703        1.70998299051875
34
 energy: -56.660818213557 gnorm: 0.092341669445 xtb: 6.7.1 (edcfbbe)
H            1.48175754291449       -0.20218128353250       -0.51942747747278
C            0.43937342779565       -0.51620860691613       -0.62152725266724
H            0.05595122824149        0.66264257377640       -2.38415924064711
H            0.38436012277465       -1.46276730338556       -1.16901677259805
N           -0.27647554260854        0.53733965501446       -1.38197272133322
H            0.33599739875866       -1.47788884003311        1.31702175237871
C           -0.16440424996526       -0.67653180791980        0.76993432345310
O            0.33154666503245        1.68034287905131        1.09578633382729
C           -0.07941104809466        0.64537253571725        1.64780568804751
H           -0.12945258353611        1.42986930310743       -0.86672313291957
O           -0.37019297914633        0.44880235399806        2.86314908387809
H           -1.27957568611112        0.33122857283238       -1.38925668442474
H           -1.22998105634903       -0.90227359604433        0.73972013960748
O           -0.90623935040155        3.51251726239649       -5.21901682842442
H           -1.12557292849529        2.60729903139018       -5.49646350425391
H           -1.40330634858785        3.65870292037609       -4.39390907541154
O           -2.54967518012372        2.44988730273944       -2.94712630984552
H           -2.81754798935600        2.21791807548229       -2.05120332499219
H           -1.91254890425709        1.78633481859033       -3.24972354419004
O            0.48416006553839        1.30996718970418       -3.79851743152370
H            1.43803862973642        1.16169638131808       -3.84287186233304
H            0.38679424192771        2.19282422932994       -3.41178096317522
O            2.73454180079778        3.04259437059874       -3.91484906619144
H            2.39844333156336        3.82285499586320       -3.43000008412339
H            2.49126171879542        3.19315870352255       -4.84529140934866
O           -0.25037356542345        3.53510665695755       -1.66799561889350
H            0.13108991572879        4.27658892979764       -1.08556347416028
H           -1.21651218944692        3.74533447038316       -1.58397851603774
O            2.46961424334873        2.52426386860163       -0.99547148210715
H            2.33084677104380        3.44445046788582       -0.77044077793349
H            1.83572348267776        2.33287305738464       -1.70692432577955
O           -1.51734145466228        3.74310818695646        0.91180949326437
H           -0.81350008059285        3.09913248085832        1.16333075658666
H           -1.88263644951906        4.08270616419586        1.75291030974244
34
 energy: -56.666964653588 gnorm: 0.058110881909 xtb: 6.7.1 (edcfbbe)
H            1.48311139119246       -0.19957172873004       -0.52572008399826
C            0.44046361985741       -0.51144765074721       -0.62182618218823
H            0.03718688850428        0.68107720955913       -2.36974130449391
H            0.38642102527082       -1.45282933401553       -1.17747487470135
N           -0.28791802706300        0.54322774937534       -1.35877393957340
H            0.33668748705607       -1.48040022941169        1.31679416701657
C           -0.15891231285550       -0.67826725728070        0.76903486085914
O            0.29403085167734        1.67434941251865        1.10466487480199
C           -0.07255759060382        0.62272984338302        1.65775277239196
H           -0.13164074206853        1.42972173846994       -0.83496516518548
O           -0.39983155102312        0.46881263967693        2.84394255257826
H           -1.29122171910510        0.33843285062579       -1.35897439103902
H           -1.22452970139632       -0.90895934337271        0.72648702151536
O           -0.89004190696711        3.50890474716330       -5.21271313068944
H           -1.14638247502170        2.63960051172407       -5.49972054108930
H           -1.40957163062818        3.68521831252288       -4.42516621953231
O           -2.53086369053050        2.46421400451968       -2.94075690167547
H           -2.84219427399804        2.22099199137004       -2.07202037959198
H           -1.93168653777977        1.78688052309449       -3.25766071258344
O            0.47450722651456        1.27911939515635       -3.74819112969799
H            1.45795545318285        1.18180863483262       -3.83884792198304
H            0.37576139697048        2.19803349549268       -3.41418064700706
O            2.73356149659329        3.06436470774624       -3.94312308738925
H            2.38836547957275        3.81348419183287       -3.45269153579557
H            2.48929162956679        3.20867603707883       -4.86885966683748
O           -0.24826165410407        3.52604356085169       -1.63710527471951
H            0.16776226672870        4.22615442305074       -1.13832335160425
H           -1.17738036696513        3.71617275113221       -1.64432873251812
O            2.46800780043192        2.51291312410525       -0.97924557934164
H            2.36554323263639        3.42609937986905       -0.76223642834084
H            1.85251548910371        2.34503276635494       -1.70779975716123
O           -1.50775511341405        3.75773210013374        0.94860433119424
H           -0.79910337371100        3.10272714599391        1.15688088102415
H           -1.89656706762671        4.04601829592154        1.78454247735365
34
 energy: -56.649417090111 gnorm: 0.212561435937 xtb: 6.7.1 (edcfbbe)
H            1.47903586462514       -0.19412207705595       -0.53002225443341
C            0.43907230844307       -0.50238149641975       -0.61484050984733
H            0.02639593044719        0.69158654716687       -2.33636993293186
H            0.38206243166803       -1.43652795427798       -1.17200603202360
N           -0.30263026119766        0.55050507552878       -1.32648086356468
H            0.34353686817484       -1.47901018182580        1.31625816959931
C           -0.14868528014672       -0.67772653108318        0.77428456511899
O            0.21963172532312        1.67964682723442        1.10316633633267
C           -0.04161485881146        0.58600850207183        1.68223622875153
H           -0.14294757731687        1.43270459270683       -0.80092630486977
O           -0.40932487094674        0.48178255638161        2.84503364852322
H           -1.29987579561136        0.34333692915199       -1.32599826664485
H           -1.21197804540217       -0.92433789276968        0.72783356583018
O           -0.88378060005249        3.52822070179702       -5.20092287382546
H           -1.11274723658975        2.65787363032858       -5.54483056788847
H           -1.46090389878933        3.66404720120874       -4.43421238913147
O           -2.52427518344015        2.47826802251063       -2.95004139173032
H           -2.86623690327809        2.23643082882650       -2.09561233631484
H           -1.93919875068420        1.78560864439015       -3.25270450670585
O            0.57046910913829        1.36756232631083       -3.79344415004672
H            1.39924897929288        1.13069491865095       -3.79893786691174
H            0.33735946061140        2.18630230520094       -3.43975969701443
O            2.72152633524244        3.06982301778426       -3.96537883110574
H            2.39852715646096        3.82233190484569       -3.48037125216441
H            2.48185687203218        3.21438801759916       -4.88035949678585
O           -0.21810771960074        3.51313429454444       -1.64339121644349
H            0.17970585625713        4.21109616640580       -1.17717072793163
H           -1.16537760196184        3.66148261969446       -1.64027403209771
O            2.50197343907010        2.48837013693371       -1.01059676004344
H            2.39197160419032        3.40605785226464       -0.68273881614122
H            1.83989872439098        2.39167054545467       -1.72541654751843
O           -1.44406948231711        3.78246016077938        0.98067904878540
H           -0.84209562400128        3.06974978149747        1.13921540634435
H           -1.89366997522194        4.02002802615972        1.77235765482833
34
 energy: -56.668316070516 gnorm: 0.079028200115 xtb: 6.7.1 (edcfbbe)
H            1.47814085546434       -0.19119083673221       -0.52774898036637
C            0.43711674616641       -0.49966484218666       -0.60948433117711
H            0.02800611330981        0.69218969383660       -2.32567677837524
H            0.37858929297891       -1.43436816372334       -1.16604371909171
N           -0.30483487987987        0.55352498180674       -1.32114033614381
H            0.34979521569985       -1.47964264205704        1.32073474883277
C           -0.14911253491492       -0.67979627875737        0.78066713441189
O            0.21333196568031        1.68912895759411        1.09746948812694
C           -0.05334444558433        0.59124487321582        1.68020963248304
H           -0.14770827809506        1.43584913444230       -0.79511720949047
O           -0.39356530954487        0.46950076442301        2.86208336876113
H           -1.30158568228477        0.34329565399918       -1.32002283614408
H           -1.21127084629061       -0.93309528738908        0.73447777591543
O           -0.86806474329095        3.53022097302990       -5.18823267492732
H           -1.10369331774482        2.65812416138526       -5.55946833149998
H           -1.46713231017204        3.66374509952336       -4.42712419723105
O           -2.53033015062335        2.47928655880853       -2.95779784440230
H           -2.87079187872349        2.23672464561475       -2.09630087871099
H           -1.93510260675094        1.78169091224653       -3.25210715673987
O            0.49004270332401        1.29595821092311       -3.76123095779003
H            1.45802135973189        1.17958067554456       -3.82899097571774
H            0.35169399150775        2.23128310356417       -3.45751774014448
O            2.69969983722681        3.04812551903401       -3.97114723059545
H            2.40258500804817        3.83564670214730       -3.48908456196234
H            2.48016716106785        3.22065759514830       -4.89284730105798
O           -0.20038582872983        3.50408069197123       -1.67411105088217
H            0.17245888691507        4.22711973879994       -1.15090257554604
H           -1.17226238835890        3.65248692753434       -1.62678645744740
O            2.50979654681972        2.47785488816792       -1.01955176805188
H            2.39588215699748        3.40216911452628       -0.67028808606137
H            1.83685657416660        2.39335776053695       -1.73194184319530
O           -1.43832372745502        3.78522673938874        0.96791066822489
H           -0.84391607686017        3.06250947053185        1.12337571709064
H           -1.88600640980278        4.01424050309883        1.77199428890279
34
 energy: -56.661185381149 gnorm: 0.120949422156 xtb: 6.7.1 (edcfbbe)
H            1.47927033084282       -0.18289153822432       -0.52070669589108
C            0.43505908735248       -0.49790684413998       -0.60813830984649
H            0.03500068411318        0.70867886829455       -2.32609481995748
H            0.38168870540670       -1.43508050746098       -1.17142274221726
N           -0.30190438254954        0.55910809134205       -1.32351088206425
H            0.35530844950899       -1.48337401540897        1.32929873746435
C           -0.15794704026230       -0.68843164789215        0.78370575934487
O            0.25958970187395        1.65879130542169        1.11395355956849
C           -0.11756439357160        0.61277494902308        1.65888311456471
H           -0.14664159737249        1.43767420495601       -0.78418760281815
O           -0.37394363927355        0.44320422923774        2.87855220078431
H           -1.30247295686156        0.34619677715488       -1.32225094825624
H           -1.21813829721360       -0.94926782887172        0.73075307295000
O           -0.88443399090200        3.53470844404103       -5.20990199709997
H           -1.12684224487818        2.66644503298994       -5.53575148413861
H           -1.44585319766689        3.68613632580939       -4.44110059432634
O           -2.53154474254481        2.48466680093684       -2.96190098214204
H           -2.89024902157746        2.23974026444385       -2.10186742338650
H           -1.93644004775810        1.77809770660737       -3.25191726996480
O            0.47623301801986        1.30736254022989       -3.74415615551154
H            1.45773992391733        1.19518121696495       -3.85062602800295
H            0.34023381122994        2.20072426500170       -3.42561831544878
O            2.71490396101957        3.06869616445809       -3.98096337649049
H            2.39607255230616        3.83202462609555       -3.48804541416176
H            2.48224165729512        3.22455563417366       -4.90593307419516
O           -0.21364572302178        3.49224125351350       -1.67086751862727
H            0.18909149894354        4.18347141985991       -1.14701649721940
H           -1.13377577960607        3.66246780966855       -1.70399040090061
O            2.46630255821985        2.50517602243935       -0.93889262324800
H            2.40760808584960        3.40477455847024       -0.77707129251347
H            1.89707427946775        2.34464621954410       -1.68471519735944
O           -1.56035800256857        3.77376143466713        0.93856190074312
H           -0.74326277055376        3.12652911801264        1.09827340475921
H           -1.88364747718632        3.99618309863798        1.86292289560575
34
 energy: -56.671933517895 gnorm: 0.047718110223 xtb: 6.7.1 (edcfbbe)
H            1.47591184047667       -0.17945300079981       -0.52063180014399
C            0.43357646811599       -0.49330637715305       -0.60689135198607
H            0.03356472808322        0.71752259466080       -2.31582503379934
H            0.37979378998045       -1.42709889421528       -1.17106801526144
N           -0.30635520195137        0.56401458702872       -1.31469290527955
H            0.35889162198320       -1.48253415038186        1.32720285331973
C           -0.15402509648139       -0.68862009998699        0.78485208770065
O            0.22392679077282        1.66477291231779        1.11245328946831
C           -0.09371144965059        0.59326376152123        1.67226228331464
H           -0.15035672466912        1.43974032819266       -0.77267299722798
O           -0.37453653139119        0.44639544453237        2.87641798038727
H           -1.30425298586543        0.35104172553433       -1.31508083405889
H           -1.21285794978852       -0.95814050394040        0.73317281638099
O           -0.87627016063086        3.52894036729939       -5.20355816264442
H           -1.12711263183368        2.67215131670622       -5.53924351222479
H           -1.44958823844943        3.68504256722241       -4.44991572829553
O           -2.52502421037494        2.49434994680396       -2.96179667110297
H           -2.90617896719865        2.24447974242140       -2.11640894433150
H           -1.94610792407996        1.78004715170993       -3.25228277797545
O            0.47770173161346        1.29548118122819       -3.72932815490228
H            1.43479595747827        1.18782478334377       -3.82105321910191
H            0.34782329170758        2.24012918943207       -3.45838938717777
O            2.69751717367418        3.06294079834107       -3.99302159405676
H            2.39794109900252        3.83670306775076       -3.50647364827216
H            2.48451416378822        3.23357810084288       -4.91870707720639
O           -0.18438609242400        3.48518489907451       -1.69736188195955
H            0.18584417404826        4.18757046359169       -1.13318481346602
H           -1.13394162403096        3.63020871317407       -1.68704117885311
O            2.46206177043178        2.48445125630087       -0.94142775037632
H            2.44171544818375        3.40224189907048       -0.74982047220154
H            1.89127506734975        2.36298114921758       -1.70306866318164
O           -1.45942961373276        3.80370111331726        0.97516492514068
H           -0.82371338489498        3.08161848415995        1.10659135552337
H           -1.89425332924411        3.98984148167863        1.80908598384815
34