37
 energy: -59.707545947848 gnorm: 0.204238967996 xtb: 6.7.1 (edcfbbe)
N            0.06495200000000       -0.17036600000000        2.24069000000000
C           -0.42508700000000       -0.28387700000000        0.86827900000000
C            0.36773000000000        0.64114900000000       -0.07116600000000
C           -0.13442900000000        0.59759400000000       -1.52314500000000
C            0.09666800000000       -0.71348800000000       -2.23073300000000
O            0.72724600000000       -1.73996500000000       -1.62853300000000
O           -0.27063500000000       -0.83895900000000       -3.38700000000000
H            1.07233000000000       -0.44720500000000        2.28653100000000
H           -0.04872800000000        0.81071300000000        2.58374800000000
H           -1.50104700000000       -0.00273500000000        0.84068300000000
H           -0.33838800000000       -1.34087900000000        0.54567800000000
H            1.44982600000000        0.38979400000000       -0.04170700000000
H            0.24571000000000        1.68308900000000        0.29572000000000
H           -1.21792700000000        0.84024100000000       -1.53588800000000
H            0.40005500000000        1.38331800000000       -2.09874700000000
H           -0.48827700000000       -0.80842500000000        2.85559100000000
O           -0.06043300000000       -3.08132200000000       -4.47527200000000
H            0.02301200000000       -3.90090400000000       -3.92578800000000
H           -0.18694900000000       -3.41398800000000       -5.39936100000000
O            1.64746500000000       -3.26419700000000        4.67710300000000
H            2.17285200000000       -3.92693100000000        4.16197000000000
H            1.88177700000000       -3.44261800000000        5.62255300000000
O           -1.75166300000000       -3.12298300000000        3.96249700000000
H           -1.99239300000000       -4.05665400000000        4.18814500000000
H           -1.06956400000000       -2.87307000000000        4.63547300000000
O            0.24920600000000       -3.70656900000000        3.05782800000000
H           -0.26087700000000       -4.54361900000000        2.91721000000000
H            0.94895700000000       -3.72179300000000        2.35730700000000
O            2.52238100000000       -3.86061700000000        0.11674200000000
H            1.53271300000000       -3.84617500000000        0.08576300000000
H            2.74808800000000       -3.49312900000000        1.00815800000000
O           -2.38984100000000       -3.67425200000000        0.94953400000000
H           -1.78010100000000       -4.42126400000000        1.17492400000000
H           -2.14386800000000       -3.42398800000000        0.02353300000000
O            2.09761500000000       -3.07364200000000       -4.07148000000000
H            2.12621000000000       -3.92301400000000       -4.57977200000000
H            2.76610500000000       -2.49499400000000       -4.51746300000000
37
 energy: -59.752279832401 gnorm: 0.101819019211 xtb: 6.7.1 (edcfbbe)
N            0.06130527947576       -0.17585225773408        2.24905428912514
C           -0.42704445464911       -0.28343640093970        0.86572932917351
C            0.36585625171058        0.64823709940747       -0.05238088158389
C           -0.12493603100488        0.60016055644000       -1.49776684106625
C            0.10836667731483       -0.71534499122715       -2.22638998223851
O            0.68258064718281       -1.69266555940078       -1.60193925299887
O           -0.28829633148040       -0.81203257687309       -3.39346648240356
H            1.05687779045924       -0.44464271958235        2.29408146956074
H           -0.04650666509444        0.79295619357888        2.59160824261096
H           -1.48933129926302       -0.01044506015898        0.83366007931620
H           -0.33326017992835       -1.32139814813383        0.52558925005281
H            1.43135568254855        0.38300905476186       -0.04408215232815
H            0.25384744086845        1.68272459528905        0.29871840637938
H           -1.20025965842190        0.82831238941710       -1.54343612536057
H            0.39108936779803        1.36958589865859       -2.09167992353444
H           -0.47911954819937       -0.81507999092716        2.85532938999466
O           -0.18297095075141       -3.11538082976115       -4.49809767441577
H           -0.00207540164120       -3.90003082113703       -3.94485595295600
H           -0.20992952760759       -3.44410586099844       -5.41646070360092
O            1.71237988421520       -3.24064345063933        4.72919036116526
H            2.18065266720583       -3.91546022516384        4.20752341817097
H            1.91182192766050       -3.44274397612715        5.65451426746645
O           -1.83358917105052       -3.08929445751532        4.03364077540519
H           -2.00468656277936       -4.03435530808088        4.19470386024405
H           -1.07934607012979       -2.88201249515036        4.62381368870270
O            0.23933268536712       -3.71937160260971        2.96026553347907
H           -0.24593830700280       -4.55472433190342        2.87751288621441
H            0.95586291001421       -3.75044917745348        2.30931327103959
O            2.52222912870332       -3.89461206177483        0.14303170866632
H            1.55350432638316       -3.81906607403048        0.06621220869919
H            2.74674325144774       -3.48411848970456        0.99763581347048
O           -2.38399208853624       -3.67613127121322        0.93852383968303
H           -1.79072375692472       -4.41203467601177        1.16253897233653
H           -2.14799540431308       -3.42686604929459        0.03066323094290
O            2.20628129845819       -3.09402049717995       -4.04885729727736
H            2.16955782090126       -3.90913454289046       -4.58564657804763
H            2.80104737106346       -2.49525588393587       -4.52818944408769
37
 energy: -59.768753712989 gnorm: 0.040786169769 xtb: 6.7.1 (edcfbbe)
N            0.05371714315752       -0.18899426160814        2.26042442999110
C           -0.42941396706528       -0.27948805843489        0.86426151057026
C            0.36669071871121        0.65693192288291       -0.03559114952030
C           -0.12731298002013        0.61179811712358       -1.47331666764308
C            0.07806705060498       -0.73470101643411       -2.19836994934236
O            0.65843633164972       -1.64696746829394       -1.58957913826316
O           -0.28786418056311       -0.75926244948146       -3.39388557550890
H            1.04215783623723       -0.45001183062901        2.30366970247500
H           -0.05099195655793        0.76957016623632        2.60710776902567
H           -1.48377718206047       -0.01544271914254        0.82971983375748
H           -0.32130377943248       -1.30090663881552        0.50284761040040
H            1.41871331599438        0.37192090450851       -0.04129484777092
H            0.26800056061294        1.68467526264398        0.31141742781253
H           -1.19576249058657        0.83125203440901       -1.54193912900363
H            0.38651409386352        1.36181700855311       -2.08212855892893
H           -0.47746665979545       -0.83551728917103        2.85459104845162
O           -0.23250702529415       -3.16020219428978       -4.53791588010793
H           -0.02746505982760       -3.90369962634576       -3.96177587093489
H           -0.23698307164343       -3.48934941450559       -5.44013878529529
O            1.75625605649170       -3.22394900330148        4.77271904960619
H            2.19338341143957       -3.89774231619408        4.24730491169004
H            1.93363889138794       -3.43311596181604        5.68758677134620
O           -1.86455782136727       -3.06555000621464        4.07928181922226
H           -2.04385110918653       -3.99472395499503        4.21746581909885
H           -1.09005477258778       -2.88086210575607        4.62814224182775
O            0.24532811525432       -3.73214692766879        2.88211040907884
H           -0.23277859477457       -4.56034106338110        2.84535460987615
H            0.96102628947709       -3.77602708089059        2.25210270432997
O            2.52678195146821       -3.95350846341889        0.18094234362389
H            1.57853678951245       -3.77163915327084        0.02885244959296
H            2.75291849068631       -3.45988350159082        0.98527222856635
O           -2.38045304322605       -3.67426771740515        0.92420779436091
H           -1.80280822913896       -4.40734891787904        1.14462707575797
H           -2.15998417862181       -3.42187333651228        0.02715116845178
O            2.27164869393536       -3.12521395946654       -4.04731892878499
H            2.22133189324438       -3.91550895710996       -4.59385552643529
H            2.81287946802098       -2.49544402233414       -4.53044572137466
37
 energy: -59.777482183343 gnorm: 0.053162123330 xtb: 6.7.1 (edcfbbe)
N            0.04288909088704       -0.20976079492264        2.27065146527749
C           -0.43169540986526       -0.27604976663334        0.86421953630499
C            0.36690956429913        0.67096525070632       -0.02056270214222
C           -0.12571421363855        0.63856625218485       -1.45919101637670
C            0.13073982453390       -0.71258636328258       -2.20150888977908
O            0.56522044524389       -1.66311851421987       -1.53833580536209
O           -0.31155828686171       -0.72432185625694       -3.37592082566983
H            1.03150019042253       -0.46443692450051        2.31319723995294
H           -0.06498218858986        0.74210487983914        2.62980336704490
H           -1.48592035705331       -0.01888860349216        0.82919197447235
H           -0.30953863442637       -1.28766379319096        0.48348499651284
H            1.41322618301696        0.37049756660671       -0.03394442846617
H            0.28115102818384        1.69414431785971        0.33789990344019
H           -1.19660774237444        0.83661382752460       -1.53860010356914
H            0.38497028000617        1.38627913086287       -2.06584270007695
H           -0.48466522259641       -0.87080061180585        2.85029339586793
O           -0.29804393831858       -3.21001626850104       -4.57877236450804
H           -0.02796728571345       -3.91884397934397       -3.97948659843555
H           -0.24919694457248       -3.55234667769176       -5.47724116123364
O            1.80011141546727       -3.19280546099859        4.81190853132016
H            2.19662621262974       -3.88888130268426        4.28336706456801
H            1.95007605822605       -3.42251641564252        5.72914697631732
O           -1.90864773061797       -3.01793760120117        4.14703774404897
H           -2.08208102099320       -3.95927920511572        4.22456309986050
H           -1.06657524692932       -2.88819728625281        4.62924482437328
O            0.24747969005557       -3.72486569375536        2.79901702299914
H           -0.21809210776851       -4.56573008032938        2.82768119530472
H            0.97957012604831       -3.81845687676855        2.18828883603857
O            2.52963608887800       -3.99426257134243        0.20961810594306
H            1.60606660860530       -3.73421454630277       -0.00629063122650
H            2.76627965889133       -3.42603259742540        0.96666764667302
O           -2.37927449647025       -3.66442040714263        0.91041676484158
H           -1.81499625834446       -4.40906780005954        1.12060011207378
H           -2.18004591033898       -3.41034969600586        0.01031572144156
O            2.33602196472904       -3.16735120391032       -4.03768832336334
H            2.27437131227328       -3.92734099051019       -4.62247912437922
H            2.81344825307621       -2.48435133629499       -4.53114585008905
37
 energy: -59.783418608677 gnorm: 0.063365442645 xtb: 6.7.1 (edcfbbe)
N            0.02944448752884       -0.23503702589705        2.28259087135748
C           -0.43712237504505       -0.27232160242873        0.86931716605841
C            0.36573737970348        0.68525947693542       -0.00183593630398
C           -0.13362401744722        0.66089430507175       -1.44115294566882
C            0.08343948342216       -0.72315798453818       -2.17261704626075
O            0.52561286146456       -1.66647249870852       -1.50727908824497
O           -0.28099628226108       -0.67903927010825       -3.37393261741346
H            1.02102002357016       -0.48539936969581        2.32411417634995
H           -0.08472088162882        0.71035614357820        2.66117787341502
H           -1.49343737538047       -0.01867502654628        0.83384875481451
H           -0.30586432932000       -1.27659394163076        0.46877068520839
H            1.40876034635756        0.36751110298461       -0.02363034729650
H            0.30011654385260        1.70715054133405        0.37142286892582
H           -1.20111095294611        0.86304372148165       -1.52054537074198
H            0.38901794280103        1.39495475353103       -2.05409419954151
H           -0.49699369024008       -0.91525275289505        2.84456713958411
O           -0.38328514912633       -3.26150405456495       -4.62710689303326
H           -0.02871373829569       -3.93092316346716       -4.00416560245559
H           -0.25989531395142       -3.62487805149013       -5.52350088298339
O            1.85012612111760       -3.15447183988047        4.85914087950806
H            2.19504032420582       -3.88239208643131        4.32352724922116
H            1.97228961196023       -3.41431211679951        5.78013829511106
O           -1.93178132007354       -2.96945113485783        4.20346015003621
H           -2.12863002949736       -3.91466541577775        4.23110847634659
H           -1.07199969035142       -2.87811439734051        4.65174436668835
O            0.26306900522565       -3.71732851825173        2.70588254807586
H           -0.19707659598699       -4.56671763898999        2.80516754180051
H            1.01219307371928       -3.87965681767452        2.11236457291307
O            2.52428022635598       -3.93717347036322        0.20025789398177
H            1.63355161768927       -3.73993771595022       -0.02035743183982
H            2.78417298677564       -3.42108573180648        0.95157398201132
O           -2.37822712828640       -3.65084513628429        0.89648170135811
H           -1.82603205803600       -4.41467767050106        1.08619910702008
H           -2.20485489489540       -3.39308598266570       -0.01203525833392
O            2.40827154528157       -3.20991397817063       -4.02941612682880
H            2.32882566955274       -3.93941092580603       -4.65955839176040
H            2.83008757218562       -2.48239872539475       -4.52202316107893
37
 energy: -59.779946934389 gnorm: 0.122254271574 xtb: 6.7.1 (edcfbbe)
N            0.01796772872047       -0.25667033376308        2.28957169810140
C           -0.44102911699876       -0.27039441118764        0.87555681590673
C            0.36711632798293        0.69465142347898        0.01287150095369
C           -0.13765373081119        0.67461652728364       -1.42904876056748
C            0.01371503068425       -0.73781537988504       -2.14644160783580
O            0.50883975946765       -1.67742394897452       -1.49544509291926
O           -0.23530182315481       -0.65367133489091       -3.37740059028824
H            1.01453076807062       -0.50594683870750        2.33215181597452
H           -0.10517891697864        0.68419391776982        2.68868881719760
H           -1.50143052061705       -0.01599636103044        0.83813035475598
H           -0.30791289677577       -1.27228348862929        0.46256635206346
H            1.41160378773887        0.36979067582897       -0.01185355564572
H            0.31536449985573        1.71772197893799        0.40036554271361
H           -1.20266339079442        0.88716712997138       -1.49820421479738
H            0.39577769111156        1.40104556296125       -2.04690716347847
H           -0.51076576918765       -0.95465337608856        2.83552503337945
O           -0.44417849013309       -3.31008074169066       -4.66619849727839
H           -0.05920529660708       -3.94771840456092       -4.03367943173202
H           -0.29299071694224       -3.68006256880784       -5.55674379814006
O            1.88201244920658       -3.11886539870870        4.90336705362630
H            2.20074371806369       -3.85466580260844        4.35502959740684
H            2.00472598807755       -3.39266556947993        5.82457692524957
O           -1.93486482121701       -2.93298320242364        4.24134142200129
H           -2.17634372223613       -3.86996803497831        4.24831124631715
H           -1.08932818081097       -2.85771184764588        4.67492409523956
O            0.28231491241785       -3.72145886624159        2.63798951939227
H           -0.18394434528343       -4.56115863779069        2.76581191517909
H            1.02638073314984       -3.91941139998703        2.04070102740367
O            2.52503050298015       -4.09676653200304        0.29118173950097
H            1.66496485269269       -3.61668954544730       -0.10546469839574
H            2.79685499254677       -3.33706904374982        0.92670521949324
O           -2.38420345943053       -3.63745243007188        0.88704717684076
H           -1.83702620950977       -4.41927430780801        1.05482532842539
H           -2.22809730102757       -3.37476810809498       -0.03072156590899
O            2.47358322301979       -3.24224383379044       -4.03087143772307
H            2.38159692685329       -3.95747405909153       -4.68238116314341
H            2.86968581587684       -2.50156740809374       -4.50627361926907
37
 energy: -59.791637522002 gnorm: 0.041875414585 xtb: 6.7.1 (edcfbbe)
N            0.01390139755784       -0.26551809917240        2.29268729816635
C           -0.44295719055107       -0.27240003596138        0.88031827490069
C            0.36783522277846        0.69257538578514        0.02101558114474
C           -0.13450238042287        0.67496372764231       -1.42001307264339
C            0.05352730849750       -0.71114604029691       -2.16125657616240
O            0.47860371751212       -1.68158223522962       -1.49545806258581
O           -0.25166708404369       -0.66410214831665       -3.36518677982963
H            1.00881038744242       -0.51561422412147        2.33640951863435
H           -0.11170128141655        0.67043273123509        2.69971293343063
H           -1.50131007854641       -0.01431627023189        0.84209701696363
H           -0.31501364385907       -1.27253840172349        0.46528763498967
H            1.41279773905459        0.37597831381456       -0.00280858794401
H            0.31093059504096        1.71361753394912        0.40829737219128
H           -1.20159758401062        0.88758907364512       -1.48722484553327
H            0.39080026838558        1.40825639178660       -2.03431913565209
H           -0.51525194550325       -0.96684618174563        2.83183084205781
O           -0.42334910574315       -3.32423771257735       -4.68359803650367
H           -0.09472546292826       -3.95477057398979       -4.05652144269692
H           -0.32562274032386       -3.68085342896692       -5.56094799328947
O            1.87390128443928       -3.13385738778319        4.92311236382355
H            2.21177143211365       -3.84119177083284        4.37084430330998
H            2.02145146681420       -3.38836392816157        5.83579964066675
O           -1.92725863264467       -2.92177979861243        4.24447650888282
H           -2.19256819211302       -3.84378256518219        4.26027649184567
H           -1.07310270130737       -2.85967949438558        4.67174322671994
O            0.30251828651786       -3.74379127462095        2.63800377910629
H           -0.18509396396730       -4.55422480631306        2.73570541920849
H            1.01829456978819       -3.91842093335069        2.02312878651538
O            2.52398753402310       -3.97723629619689        0.24400391517909
H            1.66233389766870       -3.66029516989160       -0.08990650735730
H            2.79916316760735       -3.37841876455004        0.94048657326290
O           -2.38849388187847       -3.63708422545312        0.87799069810274
H           -1.83884966625262       -4.41455988881784        1.03848721712613
H           -2.23161894693920       -3.37067264036410       -0.03476508733359
O            2.48224917493101       -3.24458988047047       -4.04639771963563
H            2.41053133443857       -3.96408616883232       -4.67830539457516
H            2.89196669784076       -2.51317681170506       -4.49540115448703
37
 energy: -59.791210800802 gnorm: 0.093763053658 xtb: 6.7.1 (edcfbbe)
N            0.00201011124768       -0.28896345991041        2.30523963329426
C           -0.44896287840156       -0.27834860308640        0.89061583909651
C            0.36803216705834        0.68671117561309        0.04030264299986
C           -0.13516437354205        0.67387798605921       -1.39771738152523
C            0.06879142267176       -0.69845079475921       -2.15873910442599
O            0.45781678965980       -1.67514419100794       -1.49955217786997
O           -0.24969159498550       -0.64932350542437       -3.35831817396388
H            0.99373932326179       -0.53965802614672        2.35054147428442
H           -0.12525135305264        0.63816261213439        2.72517580856171
H           -1.50251631063147       -0.01230931951034        0.85038953082224
H           -0.32712657985226       -1.27303079086447        0.46506152990259
H            1.41148752718609        0.37375182349392        0.01751844683326
H            0.30752686987950        1.70466586343051        0.42663311394894
H           -1.20177068456743        0.89057604522652       -1.46370452861740
H            0.38567832575573        1.40894827615809       -2.01059072696342
H           -0.52783094728102       -0.99676840946557        2.83093042914843
O           -0.50709165756163       -3.36064112676234       -4.72139493214325
H           -0.01856695349462       -3.94858961525483       -4.05949248826212
H           -0.30144301126708       -3.76443372383916       -5.59590873007869
O            1.88833344507165       -3.10365387189018        4.95244873846942
H            2.19619214279687       -3.81867003175321        4.38703336191695
H            2.04382850594966       -3.37149407511936        5.85853787730758
O           -1.94499362342005       -2.86075493404986        4.29231349313114
H           -2.22502396708454       -3.78616681646228        4.25597388496139
H           -0.99711005403860       -2.88779103623386        4.64943404993259
O            0.31780501919021       -3.73055044046473        2.58666952661579
H           -0.18506114529975       -4.54267301787776        2.75474242932855
H            1.02190927318526       -3.96806197421977        1.96564609189568
O            2.50346991570043       -3.95948116100077        0.23735534919300
H            1.66771908607046       -3.67012431262570       -0.06784236797048
H            2.82609928569466       -3.30957139414446        0.89106881440826
O           -2.40156425219381       -3.63353467485326        0.85655011237568
H           -1.84742238767110       -4.40425808517928        1.00355861968897
H           -2.24684126523003       -3.35074238666547       -0.04677608300173
O            2.50497771316728       -3.29456098049697       -4.03953342865369
H            2.46066020920953       -3.97930768821411       -4.71862674496889
H            2.84804690681937       -2.48535933483295       -4.48593892967306
37
 energy: -59.797942459839 gnorm: 0.043844602318 xtb: 6.7.1 (edcfbbe)
N           -0.00587582459734       -0.30573858690786        2.31210010887386
C           -0.45265974092168       -0.28381099757734        0.89796054307991
C            0.36767160068546        0.68285319158904        0.05220583978319
C           -0.13321566857021        0.67545409481308       -1.38694619399686
C            0.06507670153006       -0.69023922320850       -2.15498146036114
O            0.44159824343816       -1.68036963342841       -1.49835226478346
O           -0.23677301097419       -0.63971948506696       -3.35795278210666
H            0.98595183901374       -0.55760781372923        2.35936517059898
H           -0.13582921439539        0.61685027627074        2.74238802611771
H           -1.50517935007579       -0.01117031693602        0.85608203719743
H           -0.33627025263911       -1.27697900507621        0.46592602657333
H            1.41241439461685        0.37261202172356        0.03251255041834
H            0.30448302616187        1.70031516125870        0.44089769398783
H           -1.20054858972031        0.89381345666781       -1.44893877946114
H            0.38620945952178        1.41582895084243       -1.99541453784346
H           -0.53768308852131       -1.01841325972477        2.82988467318982
O           -0.49978691946053       -3.38643074326722       -4.74364497485465
H           -0.08131925791454       -3.96776688084707       -4.08590564139179
H           -0.33095374970236       -3.77580948740624       -5.61381597824868
O            1.90032494953436       -3.08256949737899        4.97910448303936
H            2.18882898525911       -3.80324971404125        4.40209352177575
H            2.06207859355518       -3.36576112985532        5.88301338966628
O           -1.90718431432774       -2.85209140349858        4.27315567541462
H           -2.23671392380038       -3.75301574214619        4.27134544181488
H           -1.05003053705271       -2.84334406690962        4.68517272396420
O            0.35071856399412       -3.73622110554219        2.55591965991815
H           -0.17500837888026       -4.53378987417711        2.74081193976356
H            1.03664932476635       -3.99851233348687        1.91954463216442
O            2.50213089125992       -3.96132750075018        0.25562631162714
H            1.68050604764051       -3.60377413279813       -0.11612646019818
H            2.82037282370620       -3.31696565403394        0.89904111035780
O           -2.40869084443188       -3.62961052144467        0.84580955258394
H           -1.85206180669943       -4.40279244840364        0.97835298624214
H           -2.25842491480558       -3.33700062503099       -0.05644875977193
O            2.54712461725370       -3.31611290751567       -4.03901333542410
H            2.49620778097402       -3.99128807772065       -4.73220573207173
H            2.87655254458040       -2.50196898525512       -4.47896219763957
37
 energy: -59.793730405273 gnorm: 0.124945223076 xtb: 6.7.1 (edcfbbe)
N           -0.01785315204843       -0.33065595984125        2.32105367735168
C           -0.45939973476595       -0.29363189911530        0.90928260443237
C            0.36601820921874        0.67484192424710        0.06843777407636
C           -0.13123158553938        0.67544279428625       -1.37381787935599
C            0.03874163243575       -0.68731546004151       -2.14010648006185
O            0.43315021306022       -1.68753119120362       -1.49833243394800
O           -0.19776848662307       -0.62391019866063       -3.36228803991243
H            0.97516599333112       -0.58519831305689        2.37139307164426
H           -0.15216014358033        0.58607960600312        2.76610622321674
H           -1.51163011959906       -0.01063709759331        0.86639192577813
H           -0.35147003732717       -1.28628386767258        0.47046124258860
H            1.41339380108398        0.36600375407272        0.05477448407762
H            0.30118101084299        1.69311042802786        0.46154962904800
H           -1.19893297518373        0.90079271107001       -1.42917075665516
H            0.39142395969430        1.42246822898734       -1.97577397718800
H           -0.55327882025511       -1.04975025266134        2.82859000895332
O           -0.51160593772170       -3.42363804970978       -4.78071928915074
H           -0.16083208166595       -3.98599922249326       -4.13139368791086
H           -0.38550634328253       -3.79774709153354       -5.63964895409597
O            1.89576717110272       -3.06545396903404        5.02142454199729
H            2.19552465107287       -3.75287674177426        4.42304971330695
H            2.09303852761893       -3.35175613403156        5.91822949294809
O           -1.91046984263492       -2.78360465982996        4.32023024890090
H           -2.26612128086790       -3.68935777529695        4.26091449025001
H           -0.96901638187421       -2.87839465275106        4.66632238454480
O            0.36634016979801       -3.76058036298475        2.54178421678405
H           -0.17143180473387       -4.52139569721371        2.66330959865719
H            1.02244767731792       -3.98228845202467        1.88377617642569
O            2.48554917260291       -3.97703770735273        0.28632216475903
H            1.69013692883652       -3.53338402431399       -0.15608935229602
H            2.82623783213509       -3.28800749433544        0.88653908771551
O           -2.41728520694574       -3.62049174442841        0.83483960402920
H           -1.86019135457633       -4.40355031843467        0.94035918893891
H           -2.27849992029039       -3.31509378569757       -0.06932195212811
O            2.56723654409965       -3.29812278501111       -4.08481620726877
H            2.53772905531291       -4.01546774516483       -4.69585659763073
H            2.98629365995247       -2.58530079343014       -4.45820094282312
37
 energy: -59.803141127254 gnorm: 0.041418229396 xtb: 6.7.1 (edcfbbe)
N           -0.02467929831898       -0.34457455208235        2.32775228258900
C           -0.46426161925770       -0.29912630983039        0.91461317258657
C            0.36421126373384        0.67000995510469        0.07831355852605
C           -0.13124148614815        0.67475532950346       -1.36394741620707