37
 energy: -59.768829015176 gnorm: 0.173329637805 xtb: 6.7.1 (edcfbbe)
N            0.00260500000000        0.26833900000000        2.34949800000000
C            0.00561000000000       -0.53426800000000        1.12782400000000
C           -0.01360500000000        0.36044200000000       -0.11757000000000
C           -0.00658000000000       -0.48411400000000       -1.39958300000000
C            0.00530900000000        0.34606300000000       -2.65559300000000
O            0.01598000000000        1.56658800000000       -2.61114500000000
O            0.01013600000000       -0.27058000000000       -3.85192000000000
H            0.84383000000000        0.88923800000000        2.37341700000000
H           -0.86762500000000        0.84621600000000        2.39703300000000
H           -0.88589600000000       -1.19861800000000        1.12403900000000
H            0.91775600000000       -1.17084600000000        1.11100500000000
H            0.88289000000000        1.01613200000000       -0.10393900000000
H           -0.92488100000000        0.99783100000000       -0.09978000000000
H           -0.91002800000000       -1.12912700000000       -1.41351300000000
H            0.89428700000000       -1.13411000000000       -1.40682800000000
H            0.03021100000000       -0.36918600000000        3.17705500000000
O            1.13105800000000       -3.10934700000000        3.71587900000000
H            1.77202100000000       -2.51991500000000        4.18741600000000
H            1.35914800000000       -4.02188300000000        4.02550000000000
O           -2.25546400000000        1.21136100000000       -4.87973100000000
H           -1.65873900000000        0.69599400000000       -5.47883600000000
H           -3.12692300000000        0.74445000000000       -4.93599700000000
O           -2.23493200000000       -1.40026100000000       -5.82212900000000
H           -3.18435900000000       -1.21177300000000       -6.03111000000000
H           -1.75204500000000       -1.20517600000000       -6.66437300000000
O           -3.25927100000000       -1.29703200000000       -2.38404900000000
H           -3.17574700000000       -0.34991100000000       -2.66081000000000
H           -2.48738200000000       -1.74873800000000       -2.80921000000000
O           -2.61582500000000       -3.49547000000000        1.67349600000000
H           -1.79974100000000       -3.98907400000000        1.40708800000000
H           -2.55155700000000       -2.63206800000000        1.19285100000000
O           -0.45582400000000       -3.90007400000000       -2.19568000000000
H            0.05494400000000       -3.06551700000000       -2.04323100000000
H           -1.01384700000000       -3.70769200000000       -2.99079800000000
O            0.45682400000000       -4.20545600000000        0.73125300000000
H            0.93211900000000       -3.33672200000000        0.73373900000000
H           -0.15882500000000       -4.14921800000000       -0.04232700000000
37
 energy: -59.791790298065 gnorm: 0.087176143633 xtb: 6.7.1 (edcfbbe)
N            0.00293634111716        0.26445197440245        2.35744799909454
C            0.00772628200489       -0.53882532780495        1.12591041718002
C           -0.01069170074110        0.35575144459864       -0.11344558171914
C           -0.00654885393115       -0.48498612054992       -1.38979550262746
C            0.00930337593224        0.35260034823555       -2.66032274664289
O            0.03089495417239        1.58891240959524       -2.60508386492707
O            0.03187033626129       -0.29161937727446       -3.78323009812823
H            0.82901000684532        0.88367042999729        2.38207634166912
H           -0.85217224507508        0.84128003189573        2.40386283859888
H           -0.86834436843972       -1.19753790373986        1.12224561169330
H            0.90635962479621       -1.16636013671695        1.11255319842028
H            0.86549027973902        1.01543383362032       -0.12481513769521
H           -0.90366222670860        0.99257265911680       -0.11801050229324
H           -0.89856276341990       -1.12406160926930       -1.41442439246121
H            0.88380986718558       -1.12857250456049       -1.41333313322630
H            0.02703933118446       -0.36248449091277        3.17754888945557
O            1.13213959087003       -3.09114832409976        3.73252371123099
H            1.78818310047667       -2.54341574138734        4.19520484525373
H            1.33464387213177       -4.00267759944045        3.99891687599776
O           -2.30176841092871        1.26857910230870       -4.91997588955623
H           -1.64931480738630        0.69910122757927       -5.38968838117775
H           -3.12463649947545        0.74504252623717       -4.94047207587871
O           -2.25026615057513       -1.41867299481868       -5.84672673626726
H           -3.18187325550052       -1.23914452833014       -6.05906292283481
H           -1.75967963208045       -1.23183187387106       -6.66316807425307
O           -3.23336403155681       -1.28679789176083       -2.37892202316732
H           -3.17195798905541       -0.36070890820657       -2.66501605364123
H           -2.50461614508767       -1.73047558879048       -2.84541410178288
O           -2.59350919881209       -3.48339034873214        1.69149999068311
H           -1.79749753433492       -3.97683220756805        1.42471910864935
H           -2.56703531534880       -2.65647013733691        1.17861013872423
O           -0.48615158543270       -3.86776120951107       -2.16006976057287
H            0.06545194239152       -3.06559252547778       -2.08978690039554
H           -0.99031675013277       -3.73836777478018       -2.98350506788595
O            0.39548502926712       -4.18004926720448        0.75325478958175
H            0.93377531316104       -3.36689024091585        0.72055804203033
H           -0.11651778351359       -4.16624335452679       -0.08372285112840
37
 energy: -59.800023406873 gnorm: 0.031799116981 xtb: 6.7.1 (edcfbbe)
N            0.00009193907143        0.25881461557528        2.36989118908480
C            0.01116117538423       -0.54254625980146        1.12565561864533
C           -0.00565818933879        0.35347331055249       -0.10608155972493
C            0.00154251067472       -0.48766691952064       -1.37617946734097
C            0.04675886309207        0.35453474250901       -2.67116656288076
O            0.04974961776497        1.60171620046434       -2.58013113557446
O            0.01178739360471       -0.29423964147712       -3.72929815010945
H            0.81425675633796        0.87803119933817        2.39576233425986
H           -0.84459613771163        0.83461812357780        2.41112577517354
H           -0.85517907725359       -1.19652265716554        1.11882270008976
H            0.90408991146760       -1.15911724283533        1.11745629506832
H            0.85975616641997        1.01242560433399       -0.13526271972882
H           -0.89025883186367        0.98543509841317       -0.12976195265298
H           -0.88828641344613       -1.11346753729465       -1.42067647065599
H            0.88341609989692       -1.12670410620498       -1.41517900547452
H            0.01883378632877       -0.36501205227848        3.18129077136903
O            1.13459671935885       -3.05982866063339        3.74674431678636
H            1.82102132789073       -2.56518043457042        4.20313535631685
H            1.29182950008469       -3.98269261061663        3.96068794005196
O           -2.32500559488208        1.27525221632381       -4.90262190084982
H           -1.65087051185170        0.72540648969858       -5.32398284308050
H           -3.13507510194767        0.76826294639673       -4.96377727496662
O           -2.26640218039405       -1.41004944632588       -5.86443840924015
H           -3.18889833683295       -1.28670838755162       -6.10385197364828
H           -1.75937807100922       -1.27410464262719       -6.66584583959516
O           -3.21328028403803       -1.27499945288142       -2.39476430935602
H           -3.16214516315931       -0.35486132074067       -2.65287874653623
H           -2.51590242710892       -1.70837133038367       -2.89200088670104
O           -2.56664410273298       -3.47504016347032        1.71384810640734
H           -1.77701828952010       -3.96000648620308        1.45635126304301
H           -2.59522356108365       -2.68678913436734        1.15808456116510
O           -0.46678617205526       -3.84436639868789       -2.14936633265917
H            0.06688951361499       -3.04470642113651       -2.13264268282530
H           -0.98924428809248       -3.77593887275798       -2.95062567967885
O            0.35144514787105       -4.17858127591857        0.73049769686660
H            0.90955000061964       -3.39817436658740        0.72249539281085
H           -0.10529169516136       -4.17581672514557       -0.12237441385824
37
 energy: -59.802320930328 gnorm: 0.093490659559 xtb: 6.7.1 (edcfbbe)
N           -0.00167620980823        0.25410386842710        2.38348485667623
C            0.01777210695616       -0.54247446141791        1.13147097823630
C            0.00045546782328        0.35683368625696       -0.09557270252758
C            0.00271889774397       -0.48541822997110       -1.36181152292636
C            0.02296265157645        0.35469481826332       -2.67665281584439
O            0.09756233806875        1.60257459121468       -2.56547466894684
O            0.03820335481206       -0.30414809534391       -3.71751589958669
H            0.81011199915642        0.87564733613177        2.41262385965091
H           -0.84671270539319        0.82936319775283        2.41928319865590
H           -0.84765583624169       -1.19807398960255        1.11964031028456
H            0.91462074724960       -1.15367626610237        1.12544593149569
H            0.86581370109115        1.01571660456234       -0.13354971738881
H           -0.88738938568824        0.98420453793917       -0.12501642812219
H           -0.88856826827024       -1.10639789275333       -1.40977378205999
H            0.88576217814131       -1.12252861584168       -1.41419215411444
H            0.01272796023972       -0.37534744300389        3.19034245182141
O            1.12778789170886       -3.01170805315937        3.76386769131841
H            1.87400200845926       -2.59068063688067        4.22242450851019
H            1.23039729886641       -3.96750923144569        3.90540905908548
O           -2.38041265886541        1.33933675301288       -4.93984299357075
H           -1.62162661973026        0.72619700060894       -5.20173933801050
H           -3.15396863973563        0.76351948669103       -4.98063431513615
O           -2.28512549856552       -1.40125267140691       -5.87473541787780
H           -3.20694868932372       -1.34336681635589       -6.16425940036430
H           -1.74766554789326       -1.32565703457190       -6.67065817381020
O           -3.17474242651629       -1.26316296301853       -2.38982407122414
H           -3.16372437449674       -0.33883281108755       -2.64562553372400
H           -2.52628488367448       -1.68965724007547       -2.97536985155403
O           -2.52712483991122       -3.45722990759343        1.76160314448909
H           -1.74578888294648       -3.94407505058480        1.48168159652014
H           -2.63555372603148       -2.71946239068509        1.11988621318007
O           -0.48098858677824       -3.80053051117127       -2.08806480710332
H            0.09707631595067       -3.01028306410297       -2.21064670460949
H           -0.98170456866605       -3.85000390476259       -2.92712335806624
O            0.23289220625881       -4.15097211378541        0.75946486711525
H            0.91766933945525       -3.44478360223490        0.70706645945744
H           -0.06924211502238       -4.19848088390229       -0.20667046992781
37
 energy: -59.805786660126 gnorm: 0.065015762672 xtb: 6.7.1 (edcfbbe)
N           -0.00537697254728        0.24952357169388        2.39299102807104
C            0.02179318221801       -0.54182841216963        1.13728798167062
C            0.00508789541441        0.36016954154090       -0.08793233509575
C            0.00657480656615       -0.48163150620234       -1.35251817467389
C            0.01810643626943        0.35614638819075       -2.67580888196441
O            0.12824202151151        1.60168750863463       -2.56538249565928
O            0.05391472070487       -0.31968284814547       -3.72154954306070
H            0.80694422817970        0.87333181729361        2.42753912453993
H           -0.85365657705476        0.82375542504873        2.42553152495390
H           -0.84240583304444       -1.20303030829622        1.12025234367468
H            0.92286469471680       -1.15101450580854        1.13272883374321
H            0.87109214313926        1.02076928222399       -0.12692155266757
H           -0.88570615739192        0.98634954232825       -0.11893865525554
H           -0.88626373432161       -1.10264084309571       -1.40188365464933
H            0.89063263226345       -1.12028761964636       -1.40468879686698
H            0.00595601352959       -0.38637345076627        3.19738992445550
O            1.13061436661885       -2.98008956137183        3.76408037185591
H            1.90464500744141       -2.60261681332168        4.22934643938333
H            1.19679058874244       -3.94934154178924        3.87349547641704
O           -2.38728899236727        1.33571336058953       -4.89442847174133
H           -1.63615150891970        0.77479074772922       -5.18256905127653
H           -3.16717935952544        0.77243154283840       -4.98387071935885
O           -2.30302164263255       -1.40988839989801       -5.88456817392710
H           -3.22067861952044       -1.38134636374814       -6.20934557391840
H           -1.73937064807403       -1.36102435507312       -6.67123147428857
O           -3.15125043084438       -1.25574023030846       -2.39347896525119
H           -3.16704818508199       -0.32308809468909       -2.63869522215938
H           -2.52722349258783       -1.66795613439464       -3.02916140454110
O           -2.52033822255338       -3.45652458773495        1.76609817462037
H           -1.72351897579148       -3.93182856793159        1.49913562458108
H           -2.64417199317117       -2.73267584321378        1.11956801901303
O           -0.44781459492054       -3.79763929009625       -2.09558827326955
H            0.09066888961218       -2.99208500431974       -2.22490433103121
H           -0.98741056671176       -3.87177861357530       -2.90471230278055
O            0.28101976713125       -4.19972169743385        0.66941837405591
H            0.87245712237417       -3.45118562328898        0.72309345397102
H           -0.13589600937222       -4.17717051179371       -0.18083764156840
37
 energy: -59.805292057127 gnorm: 0.083527007309 xtb: 6.7.1 (edcfbbe)
N           -0.00845669184129        0.24477272107460        2.40239409708311
C            0.02541562447590       -0.53968176882731        1.14479350903372
C            0.00830131510803        0.36374605400766       -0.08098583209346
C            0.01926799250109       -0.47825863400097       -1.34567666542990
C            0.09260539663495        0.35932782583184       -2.66761705195888
O            0.12053076222781        1.59834350254248       -2.56730870417701
O            0.00813577212305       -0.32511399830982       -3.73277332271868
H            0.80603684104990        0.87063442855531        2.44427556395396
H           -0.86193850483338        0.81692838622242        2.43448883946827
H           -0.83666087363535       -1.20920762770901        1.12274112157410
H            0.93165551420294       -1.14760039889943        1.14055008089976
H            0.87666199196149        1.02546892700870       -0.11069840034212
H           -0.88443078377111        0.99221424685043       -0.10752406134250
H           -0.87943458110046       -1.09773186120890       -1.40580624106798
H            0.90058425586340       -1.12354009012724       -1.37830582678649
H            0.00191094895420       -0.39938430020055        3.20441961493388
O            1.13458715843739       -2.98497710264599        3.73876605332464
H            1.88301902147275       -2.59625071856304        4.19698561871951
H            1.20612569929171       -3.92670561105760        3.87232944114988
O           -2.37102295559627        1.29903435341016       -4.81896036451519
H           -1.66815036937939        0.83260706850628       -5.19508856510917
H           -3.17632414050318        0.78938047235279       -4.99301877834374
O           -2.32314789187181       -1.44528040396043       -5.90578149239420
H           -3.22801419221000       -1.40165978447333       -6.23790888848127
H           -1.74115959123297       -1.37825136891659       -6.67225951909158
O           -3.16422615207113       -1.25910862498814       -2.46153485432442
H           -3.15774202316459       -0.30627898885116       -2.63630811671031
H           -2.49789028157734       -1.63453937040596       -3.02562788668154
O           -2.52618380721161       -3.46306180937352        1.74544957184305
H           -1.70012407649159       -3.91646488794424        1.50685456707711
H           -2.62661623511039       -2.73247184604160        1.15539096332206
O           -0.38405964483759       -3.82051458036736       -2.15473260036259
H            0.05864706854632       -2.99151705491040       -2.19764074004610
H           -1.00230356756629       -3.85013311493779       -2.87768601508953
O            0.19491454659213       -4.18746952405493        0.69320227073223
H            0.86501306621221       -3.48576220782048        0.73409853893703
H           -0.11989461164990       -4.18501430776860       -0.23455492498468
37
 energy: -59.811342421390 gnorm: 0.040980732618 xtb: 6.7.1 (edcfbbe)
N           -0.01268094670571        0.23937062748090        2.40802968293917
C            0.02783702609687       -0.54131092658912        1.14748052817120
C            0.01066977671029        0.36284790562028       -0.07763003809739
C            0.02311007485156       -0.48051752170944       -1.34265987321502
C            0.09256590504277        0.35875489348673       -2.66438356296073
O            0.13869786497562        1.59679649303273       -2.55972231217082
O            0.02305015680849       -0.31469409791618       -3.72234814037984
H            0.79919403109371        0.86643663316045        2.45579704660513
H           -0.86666929507662        0.80876938405682        2.43940229033789
H           -0.83063285336867       -1.21328518371706        1.12213367307215
H            0.93507514897488       -1.14536070355592        1.14487436989156
H            0.87756506743514        1.02534023489887       -0.10418814567286
H           -0.88135785454125        0.99076300765277       -0.10153900217579
H           -0.87486077911690       -1.09845803247450       -1.40377018408935
H            0.90425149290888       -1.12475998003131       -1.37361103527149
H           -0.00371458917434       -0.40736653019322        3.20674650679228
O            1.13184122197945       -2.96313578664165        3.73270905001973
H            1.89666019513215       -2.60180749421401        4.19254801578711
H            1.17876265145342       -3.91337793795748        3.84689219753645
O           -2.42540504098855        1.34363913124208       -4.84357817329567
H           -1.61761886546576        0.83290996646467       -5.08996583615320
H           -3.18582965907560        0.76190177424170       -5.02450816612862
O           -2.33325266837738       -1.45357750417094       -5.91713591545046
H           -3.23248460614910       -1.42380543472985       -6.26467940341727
H           -1.73955622165530       -1.39062824065587       -6.67221573292168
O           -3.14338923671520       -1.24674002108534       -2.46552831626942
H           -3.16003454701482       -0.29540122629960       -2.63727098269835
H           -2.49351275828758       -1.60792356189050       -3.07035044939909
O           -2.48364672179205       -3.44985475977242        1.79700389129113
H           -1.68020066125396       -3.90708673991718        1.50193024065179
H           -2.66305655773781       -2.75948915743065        1.12368403844248
O           -0.35365489668320       -3.81294759863919       -2.14262903502765
H            0.06279400828216       -2.95590085888818       -2.24377142338330
H           -1.01658384340925       -3.89343164834702       -2.84320311206660
O            0.17352554255143       -4.19675141503670        0.67751902096099
H            0.83519210149416       -3.49713607380992        0.74264263763171
H           -0.13701766320264       -4.18630361566674       -0.24576334988481
37
 energy: -59.808777562191 gnorm: 0.099200274478 xtb: 6.7.1 (edcfbbe)
N           -0.01249765856632        0.23076628857364        2.41939760774285
C            0.03721273201817       -0.54470551667448        1.15403507087562
C            0.01728039250787        0.36172792491342       -0.06872961050089
C            0.02117959580128       -0.48170281991439       -1.33453893250126
C            0.03256825325191        0.36168052184933       -2.65768881356216
O            0.19390516065456        1.60025809016914       -2.54201934010086
O            0.06150615270121       -0.29747414029736       -3.70092886549156
H            0.79409361721336        0.85999020908979        2.47505942275630
H           -0.86659772839671        0.79560334332520        2.45073268304902
H           -0.81577543689476       -1.21919024621530        1.12587905268189
H            0.94565798719797       -1.14180608536925        1.15229304083597
H            0.88062286291872        1.02633522125126       -0.09898728250332
H           -0.87402392854475        0.98711015472809       -0.08852895763816
H           -0.87385407783252       -1.09716471120251       -1.38735621780700
H            0.90302119362382       -1.12372015714317       -1.37721387289027
H           -0.00475678212793       -0.41960217023802        3.21229793643842
O            1.13299894203567       -2.90655621443882        3.72884186280086
H            1.95005965037762       -2.62758939646691        4.20572401131725
H            1.10572128903645       -3.89188919757215        3.78132417383795
O           -2.42637640140770        1.33321085019131       -4.80790400403871
H           -1.64099721997654        0.83540190602149       -5.06522727796567
H           -3.18575543513010        0.77813667271080       -5.00728889761440
O           -2.35763041194011       -1.43708014186425       -5.92469782135091
H           -3.25220718441688       -1.47527201402754       -6.32145783080755
H           -1.74057479616998       -1.42913101743078       -6.67144035126531
O           -3.08219292395893       -1.22786802570161       -2.44124195633157
H           -3.17342374338516       -0.28748353778424       -2.64460629459427
H           -2.50003243732162       -1.57114876462043       -3.18564743374702
O           -2.47894017246882       -3.46197675110543        1.77197675037596
H           -1.64560836765460       -3.88422644475540        1.51259068338568
H           -2.64303848408232       -2.75447692211117        1.16318679772553
O           -0.36643803453523       -3.78298285747565       -2.08420143023597
H            0.08389548055874       -2.91916072005098       -2.33696110462582
H           -1.01481263967347       -3.96743455239283       -2.80848031765197
O            0.09498123423871       -4.18593774392540        0.68270053393777
H            0.81298345264826       -3.52908005726398        0.73427610098162
H           -0.13652213230049       -4.19908297678350       -0.28622811551636
37
 energy: -59.815903431063 gnorm: 0.038103712119 xtb: 6.7.1 (edcfbbe)
N           -0.01603990659978        0.22456155364537        2.42472998985912
C            0.03923838648464       -0.54734610864023        1.15851293228573
C            0.01911215069483        0.36140534927348       -0.06316093532742
C            0.02613714061253       -0.47983505258667       -1.33014939470966
C            0.06365273804980        0.36490499724270       -2.65049049829211
O            0.20140999547825        1.60074510753323       -2.53782144648278
O            0.04578366326248       -0.29711631518163       -3.70417450443088
H            0.79031598809677        0.85571150996475        2.48564063255609
H           -0.87312091478394        0.78720392199864        2.45559261070386
H           -0.81232978000771       -1.22596087415842        1.12617653390216
H            0.95121669294936       -1.14187807811638        1.15718655244882
H            0.88368270935587        1.02635379741558       -0.09121928600147
H           -0.87368006438455        0.98693704673863       -0.08240609702199
H           -0.87159954123487       -1.09442936831590       -1.38802909898345
H            0.90658139112050       -1.12521199252180       -1.36718186754984
H           -0.00853678379644       -0.43004159602596        3.21588428350852
O            1.13549832105455       -2.90811437503852        3.70692052525224
H            1.92722613626924       -2.61474865031445        4.18040275082775
H            1.11567105962907       -3.87145267643964        3.78138817678147
O           -2.43693052121112        1.34802089118416       -4.80868665120792
H           -1.63831986413160        0.83046085161193       -5.01494387609903
H           -3.18359536295071        0.77159368448620       -5.00912413385982
O           -2.36961189958271       -1.45366488412526       -5.93749470797143
H           -3.25546999367970       -1.48365344932945       -6.33454841693263
H           -1.74391568838722       -1.43711077350213       -6.67297493941975
O           -3.10553536280762       -1.22229033325820       -2.51212394301302
H           -3.15607057306482       -0.26960710854387       -2.65339085067225
H           -2.47179402385322       -1.54403798933713       -3.15710286283031
O           -2.44245135844043       -3.44800089209512        1.81630222385545
H           -1.62735747318448       -3.87530924725966        1.50235041009620
H           -2.67260127507195       -2.77948858959406        1.14102975439904
O           -0.36427830354562       -3.79496824446809       -2.11326925137079
H            0.07829066495422       -2.95217924994211       -2.30473471601481
H           -0.99768016451367       -3.92403159632615       -2.81651478897750
O            0.08626585445376       -4.19406926385713        0.66674458945705
H            0.79022717376107       -3.53599304305049        0.73403643237639
H           -0.16375921099549       -4.20088095906869       -0.27441513113926
37
 energy: -59.812618725019 gnorm: 0.086865156608 xtb: 6.7.1 (edcfbbe)
N           -0.02051400736773        0.21250584151500        2.43495304076889
C            0.04318988494804       -0.55211632479593        1.16706824317798
C            0.02268516497600        0.36149967704592       -0.05221935723262
C            0.04110036234697       -0.47529112238371       -1.32180211494784
C            0.16406178588018        0.36985930818669       -2.63629586224631
O            0.19650660500332        1.60066322262754       -2.53289055568477
O           -0.03069335086501       -0.29840370932709       -3.70948440294365
H            0.78524040262204        0.84728470285372        2.50442251880103
H           -0.88304172395510        0.77085067563230        2.46629599724545
H           -0.80523232227443       -1.23851602905973        1.12785861285778
H            0.96101677064583       -1.14252781964183        1.16627063577767
H            0.88967580463226        1.02616101658263       -0.07364195799345
H           -0.87174972287675        0.98859184162664       -0.07079029909804
H           -0.86356090113008       -1.08659967722790       -1.39614505514328
H            0.91600681418229       -1.12929488679708       -1.34024153360196
H           -0.01209318428479       -0.44989591115703        3.22275144762485
O            1.13486383948458       -2.89031244016768        3.67898289484279
H            1.91555705198169       -2.60752536221488        4.14961625212281
H            1.10506099632564       -3.83442958158434        3.75974419594410
O           -2.46957276710529        1.36595667833861       -4.79641867348058
H           -1.61069897703487        0.84650090279929       -4.91173560955093
H           -3.18679318468072        0.73816381525577       -5.04307930827138
O           -2.38980509000588       -1.49339398098227       -5.96464118570576
H           -3.25964338991241       -1.49668772425002       -6.34906485491756
H           -1.75519304175927       -1.44429637888846       -6.67842736272129
O           -3.05574757907489       -1.20391144786588       -2.51529276220360
H           -3.16869397389722       -0.24801327595233       -2.65797397358586
H           -2.46351370080912       -1.49259254691545       -3.24750790512916
O           -2.43725919016125       -3.44748121099657        1.81047804283340
H           -1.60899395129684       -3.86296959280947        1.50082284297322
H           -2.65587990676408       -2.78264286904899        1.17012153917868
O           -0.31669697942316       -3.78746472052394       -2.12005953637064
H            0.06152951923121       -2.92168457919967       -2.34477134778038
H           -1.01352908756244       -3.97954172445245       -2.78367609929584
O            0.05540776325435       -4.20200423367973        0.64785519054814
H            0.75080496871940       -3.54992702410332        0.74898113769018
H           -0.18816970199306       -4.20403550844143       -0.28112183448002
37
 energy: -59.818739468056 gnorm: 0.053190680784 xtb: 6.7.1 (edcfbbe)
N           -0.02242784397325        0.20477678655090        2.43987719523834
C            0.04684369875971       -0.55656056230440        1.16975684644362
C            0.02606442810847        0.35918241781090       -0.04783536493808
C            0.04058634664206       -0.47594656123709       -1.31929232420134