40
 energy: -64.895879761918 gnorm: 0.170307609433 xtb: 6.7.1 (edcfbbe)
N           -0.25046522610000        0.62615573940000       -0.23722499070000
C            0.29545168660000        1.97923343250000       -0.41845935360000
C           -0.05626679590000        2.54040858200000       -1.79405880300000
C            0.72552037810000        1.89861534990000       -2.95335812560000
C            0.07799037330000        0.62825659100000       -3.51837142890000
O           -0.32461531970000        0.64217038600000       -4.69641697880000
O           -0.01973794060000       -0.37620296100000       -2.75986632340000
H            0.15650851690000        0.15975937650000        0.60625586530000
H           -1.29125590030000        0.65422853450000       -0.16933576970000
H           -0.11765926710000        2.63177004030000        0.35115253240000
H            1.37983348800000        1.94245386920000       -0.30185910490000
H            0.16934864810000        3.60692343660000       -1.79381662270000
H           -1.12823917850000        2.42949851700000       -1.96986387930000
H            1.73675088830000        1.64376815850000       -2.62850117230000
H            0.79788046620000        2.59918125820000       -3.78700626170000
H           -0.03072777450000        0.06433940910000       -1.08573324900000
O            0.88704124290000       -0.64989479060000        1.88749396580000
H            0.97767333330000       -1.54783816420000        1.51065195820000
H            0.44027109800000       -0.74746131560000        2.73354118850000
O           -2.66594763280000       -1.13289433050000       -2.48300614160000
H           -2.97892037550000       -1.10733866760000       -3.39929231140000
H           -1.70369264840000       -0.99020097820000       -2.56281612370000
O           -2.61232943620000       -0.75177406540000       -5.28527926380000
H           -3.05999109540000       -0.24385063460000       -5.96860565940000
H           -1.74533973680000       -0.31462769360000       -5.15215275050000
O           -3.00788680870000        0.58763089320000       -0.37804772320000
H           -3.03496233630000       -0.00912605320000       -1.15191921540000
H           -3.55153598550000        0.17504714600000        0.29955816170000
H            0.78330458510000       -1.98149051260000       -2.41207830170000
H            0.92531485110000       -3.48370727740000       -2.76209170090000
O            1.15298733470000       -2.82403022260000       -2.10128352110000
H            1.03672988030000       -2.99873227600000       -0.29234298540000
H           -0.01903664450000       -3.59265839770000        0.66804924180000
O            0.79920386550000       -3.08615388560000        0.64803127720000
O            0.47298707560000       -1.93545907960000       -5.40645317360000
H            0.36298906750000       -1.21509497010000       -4.75107203410000
H           -0.35590932940000       -2.42351763650000       -5.40133605300000
O           -1.97503484640000        0.00108007820000        1.18484666050000
H           -2.40592613890000        0.23232601470000        2.03424840940000
H           -2.06257381700000       -0.95284520190000        1.09761284500000
40
 energy: -64.941581793466 gnorm: 0.050000463047 xtb: 6.7.1 (edcfbbe)
N           -0.23449481049860        0.63299264442503       -0.25545157517205
C            0.30288547487378        1.98433278382499       -0.42379282790430
C           -0.05581891948985        2.54529110241324       -1.79508778301834
C            0.72592188754514        1.90268987291894       -2.95207480688951
C            0.07482527697916        0.63778972973339       -3.51471262591299
O           -0.32430810340714        0.65301845289960       -4.69451355721216
O           -0.01343668417146       -0.37758093073750       -2.76997950893588
H            0.16392772562965        0.16735199142024        0.59299498516565
H           -1.27958261588736        0.65394102821779       -0.16710001463143
H           -0.11699553771165        2.62832090562714        0.34981641615749
H            1.38623101007540        1.94930038835645       -0.30397580229884
H            0.16844964053584        3.61132069449089       -1.79508667823760
H           -1.12778485547998        2.42995549927929       -1.96827906657356
H            1.73658171481089        1.64431399303643       -2.62831840747685
H            0.79856950522761        2.60123320227748       -3.78711619874807
H           -0.02031461706897        0.06692959071464       -1.09586394206596
O            0.89517593309641       -0.65063674501120        1.88777209327563
H            0.97774603193213       -1.54827578246204        1.50948366446840
H            0.44569922284296       -0.74577021423586        2.73199475681934
O           -2.66339727842332       -1.14887519734221       -2.49034195885862
H           -2.97768780283068       -1.10452953498562       -3.40469467783019
H           -1.70356997754487       -0.98743279487487       -2.56260829172541
O           -2.60919418566041       -0.75271611771360       -5.28758539728392
H           -3.06055743083494       -0.24588396493225       -5.96865453083584
H           -1.74787356464229       -0.30591357753979       -5.15369621892541
O           -3.09646527221511        0.64793738480300       -0.49817783455138
H           -3.06288105034409       -0.01105264502794       -1.21445760886778
H           -3.57158287833005        0.21486667008344        0.22838842615334
H            0.78570351493991       -1.98186207408701       -2.41009274096156
H            0.92845740351529       -3.48265788754555       -2.76398072136863
O            1.14852416122704       -2.82636177950921       -2.09715039732033
H            1.03614690896354       -2.99885083496298       -0.29184474028412
H           -0.01804136739124       -3.59742897628781        0.66695028793183
O            0.79624811085996       -3.08563916389140        0.64793911954557
O            0.48571542553837       -1.96436768324111       -5.38638558837636
H            0.35518314551117       -1.21760911888084       -4.77786005159662
H           -0.36331856256126       -2.41993124710748       -5.41398571854722
O           -1.91667992079419       -0.04690193346123        1.34658358063068
H           -2.41194697096781        0.19329451031424        2.13672400195063
H           -2.05632714284898       -0.98665454269874        1.17401502371230
40
 energy: -64.951574426063 gnorm: 0.042217094817 xtb: 6.7.1 (edcfbbe)
N           -0.22330959867534        0.63449310228216       -0.26331378395360
C            0.30697402403224        1.98885318437009       -0.42614763408543
C           -0.05503093928078        2.55607491113546       -1.79392333168889
C            0.72653097759413        1.91400891429437       -2.95116632377587
C            0.08437968348627        0.65046266353774       -3.51997719022112
O           -0.32588522984445        0.67353839925594       -4.69711056310370
O           -0.00696034278010       -0.37136393172762       -2.78439223969968
H            0.17539843006348        0.16868682285938        0.58378285544826
H           -1.26404847323118        0.64878399511136       -0.15276792001489
H           -0.11491072026429        2.62563719798057        0.35185838404459
H            1.39131795310148        1.96169816845829       -0.30903423554538
H            0.16494183900395        3.62305200135505       -1.79531922040638
H           -1.12688354672889        2.43578385135448       -1.96381826788430
H            1.73627916489275        1.65350774091159       -2.62654850562085
H            0.80129872562134        2.61212426542514       -3.78623448125453
H           -0.01201381198655        0.07117583377630       -1.10593279205319
O            0.92519603380752       -0.64978585927346        1.88273114837295
H            0.98087212615929       -1.54982981911513        1.50488321540409
H            0.46299485243626       -0.73225075968394        2.72137829341024
O           -2.65390368742869       -1.17004273410730       -2.49597868063489
H           -2.97391031218738       -1.10311948066527       -3.40801148721409
H           -1.69702088456667       -0.99094776818028       -2.56730444362337
O           -2.59948770248434       -0.75234192997328       -5.29233885485264
H           -3.06585603745267       -0.25509227026931       -5.97055286416845
H           -1.75270211303148       -0.27820011197594       -5.15777646851688
O           -3.10160605666471        0.67232879049192       -0.53174202489664
H           -3.04911649581901       -0.00215255087676       -1.23693698297487
H           -3.59387927622128        0.25789049920793        0.18389690307510
H            0.79185516853161       -1.98095297417298       -2.40806737602959
H            0.94200941246489       -3.47835520980047       -2.77152026218180
O            1.13552081447754       -2.83066362486620       -2.08706214254932
H            1.03305479610949       -3.00073767407067       -0.29026817805911
H           -0.01552035054108       -3.61444305195334        0.66477094576535
O            0.78886414282617       -3.08729547644369        0.64833502771701
O            0.51511269995593       -2.05241376563556       -5.33375896138110
H            0.33712640509523       -1.21464551426457       -4.84246780628982
H           -0.39042675921641       -2.41128251897971       -5.46250482427612
O           -1.94676624072657       -0.08480605159222        1.43953393600260
H           -2.46586409265306        0.15682938676486        2.20805011300205
H           -2.08489203287472       -1.01625895264493        1.24255010811387
40
 energy: -64.957948756936 gnorm: 0.039476313777 xtb: 6.7.1 (edcfbbe)
N           -0.21313695193735        0.63710478207615       -0.27103741566534
C            0.31017201400728        1.99532119383725       -0.42779010359781
C           -0.05455236925999        2.56765223871626       -1.79365372583879
C            0.72767963412463        1.92689137325042       -2.95145671619969
C            0.09046543511144        0.66379463452743       -3.51891687430070
O           -0.30719600472298        0.67546523721717       -4.70364967188520
O            0.00543122483908       -0.36357132104723       -2.79288729074903
H            0.18056302682484        0.17073802119819        0.57692237529816
H           -1.24482568801917        0.64778214973783       -0.13980634788226
H           -0.11481060066576        2.62444048566306        0.35405983248030
H            1.39559046797081        1.97690359022409       -0.31227537387082
H            0.16088294227681        3.63549189677167       -1.79668571352123
H           -1.12643713220027        2.44296826909582       -1.95995900504846
H            1.73563752671774        1.66454608657961       -2.62209828143311
H            0.80764946042969        2.62383352330187       -3.78714198582846
H           -0.00214515853287        0.07619133225663       -1.11547872699169
O            0.96730613707445       -0.64605510550785        1.87445955720516
H            0.98765746911075       -1.54956856644663        1.49884878969455
H            0.48532294812333       -0.71019302253541        2.70426811041292
O           -2.63967705982333       -1.18921557128451       -2.50814052405021
H           -2.96475321678193       -1.10993302533276       -3.41757490447036
H           -1.68462691722997       -1.00480539952247       -2.57886494233146
O           -2.58140664899096       -0.75084191855903       -5.30585315227163
H           -3.06924715378101       -0.26264270702538       -5.97646863566900
H           -1.75774406279134       -0.23663575549438       -5.16245949802166
O           -3.10843018215232        0.71006255779152       -0.59522934924966
H           -3.03843613989636        0.01084918379126       -1.27975870933907
H           -3.61522321034034        0.32186392965640        0.11713074296090
H            0.80057460041913       -1.98323122999929       -2.40491191320413
H            0.96518868730066       -3.47206450657615       -2.78378699266365
O            1.11668764986259       -2.83918921477296       -2.07166060392469
H            1.02401311383861       -3.00256052644538       -0.28549983138710
H           -0.01461484989634       -3.63889250065376        0.66460222926129
O            0.77430461409356       -3.08836784895091        0.65185446536483
O            0.45793064481881       -2.02617339972435       -5.41078414918792
H            0.33876874832649       -1.25301892395275       -4.87854875174264
H           -0.37817700284854       -2.46423102835854       -5.43157620187505
O           -1.97684960110816       -0.14327635672340        1.58241571097224
H           -2.53735173932934        0.10093652580876        2.31588368488073
H           -2.12245210996282       -1.06042138428847        1.34330297706876
40
 energy: -64.962291342470 gnorm: 0.021598632391 xtb: 6.7.1 (edcfbbe)
N           -0.21361038933268        0.63553593510518       -0.26096049056240
C            0.30773000250145        1.99676338103125       -0.42152892723636
C           -0.05740053057089        2.56925801811911       -1.78888454579283
C            0.72913388583907        1.93852462558553       -2.95050437785717
C            0.09623912021057        0.67476598339031       -3.52193950257191
O           -0.29794072959813        0.68370050591256       -4.70921305244284
O            0.01315356041675       -0.35182011808157       -2.79530207870854
H            0.18691266237068        0.16753581626493        0.58301320136803
H           -1.23978234217217        0.64746781536968       -0.12754789704376
H           -0.11568426291096        2.62648919256440        0.36032461116057
H            1.39340946224592        1.97964530724329       -0.30827509879002
H            0.15676160453654        3.63743560263564       -1.78765255849712
H           -1.12919689021381        2.44614192317384       -1.95672205247413
H            1.73766645172792        1.67942508957347       -2.61935023436343
H            0.80914477347612        2.64026523140237       -3.78230672446224
H           -0.00462008345548        0.07873230944530       -1.11149376634953
O            0.99836807406357       -0.64360764311024        1.86163644909275
H            1.00308909345536       -1.55056209160111        1.49378726822276
H            0.50555130803747       -0.69159963193386        2.68692065526699
O           -2.62704502271238       -1.18590648718769       -2.51538131042248
H           -2.95296791382249       -1.12836013597191       -3.42404983654797
H           -1.67021212764772       -1.02065611198603       -2.59119147833714
O           -2.57642444620398       -0.73225653110635       -5.30408972561989
H           -3.06403641379615       -0.26507597485327       -5.98945529855277
H           -1.75424032424280       -0.21646884666955       -5.17107504371929
O           -3.08696634210229        0.73556265973302       -0.63508349988255
H           -3.03208544281911        0.03359657663138       -1.31271732567176
H           -3.61413550053466        0.37120083650672        0.08010146537299
H            0.79386146066332       -1.98614198850528       -2.40473215773858
H            0.98256337945718       -3.46797353021964       -2.78955988961723
O            1.11486927578357       -2.83842188426091       -2.07219856146236
H            1.01157276363766       -3.00534937417959       -0.28370939189215
H           -0.01220403040314       -3.66373613214254        0.66664570310094
O            0.76236257195510       -3.09203652008671        0.65376099240058
O            0.46406824701025       -2.10782950205205       -5.37329666187535
H            0.32144462198912       -1.23120654030405       -4.96097294931908
H           -0.41596699398171       -2.47357302066341       -5.45706191085738
O           -1.99034950015220       -0.18190349679235        1.66373759683208
H           -2.59102448895277        0.06149491739610        2.37466482506752
H           -2.16227599875273       -1.09110846707662        1.40145666418130
40
 energy: -64.963544087909 gnorm: 0.047277285521 xtb: 6.7.1 (edcfbbe)
N           -0.21837823574995        0.63496070236868       -0.24716226400171
C            0.30301041737984        1.99790753085891       -0.41593709393420
C           -0.06308612823225        2.56798764304234       -1.78522990868779
C            0.73038029251220        1.94628172438872       -2.94851213572447
C            0.11947796638355        0.67135652640702       -3.52429985832682
O           -0.26586046877450        0.66961063501286       -4.71556387670588
O            0.02336563960207       -0.34297354094343       -2.78488035302573
H            0.19596343345409        0.16560321178780        0.59109182392529
H           -1.24240092047453        0.65000953457720       -0.11873876554820
H           -0.11880906167754        2.63109371558223        0.36381150277228
H            1.38852091397688        1.97971230214393       -0.30382919197509
H            0.14795348454188        3.63726683560943       -1.77807228454741
H           -1.13412126639254        2.44319784200109       -1.95574271608872
H            1.74078880562881        1.69849898307511       -2.61410384849922
H            0.80682294580297        2.65345909983279       -3.77621339345945
H           -0.01123564613499        0.08252789226038       -1.10316364810894
O            1.03012946640005       -0.63614082736858        1.84365782049493
H            1.02419262785096       -1.54740921582485        1.48963367626049
H            0.52285339514979       -0.66232171332796        2.66215821582132
O           -2.61248423885602       -1.19675072870410       -2.52685769117856
H           -2.93486155774405       -1.13857298071561       -3.43696277077297
H           -1.65421194591210       -1.03669824276325       -2.60020166956540
O           -2.56757044210406       -0.71428340988694       -5.31018616748228
H           -3.05441726510967       -0.26372961245674       -6.00662707477022
H           -1.74994094804226       -0.19391321619167       -5.17688963852886
O           -3.06051926936466        0.76803264098358       -0.68437378065778
H           -3.02038435298743        0.05657831301239       -1.35190163814805
H           -3.61468440909762        0.43601555900774        0.03286240945273
H            0.79635484106018       -1.98633144775248       -2.40155185441508
H            1.00623201412648       -3.46050041034338       -2.79924650820286
O            1.11248086238326       -2.84022716700717       -2.07052918521030
H            0.99505272372425       -3.00773329384480       -0.27782213542908
H           -0.00755272442648       -3.69402985988098        0.67396455892899
O            0.74871067899260       -3.09754827235010        0.65987515420181
O            0.45666373652609       -2.16318705616008       -5.33881282682693
H            0.29791739364413       -1.25439962783244       -4.99383223239810
H           -0.48195025307197       -2.43685947203776       -5.55836121619323
O           -2.00944122462929       -0.22767881408178        1.75958503996695
H           -2.63169238490934        0.01508576648495        2.45041741012048
H           -2.21353635044985       -1.12594985066374        1.47834119986521
40
 energy: -64.965666855499 gnorm: 0.012941357208 xtb: 6.7.1 (edcfbbe)
N           -0.22211438678445        0.63451584156210       -0.23819347048358
C            0.29969889651767        1.99791221929317       -0.41118604936771
C           -0.06684386184422        2.56759538915577       -1.78047415314844
C            0.73129819190838        1.95276579158544       -2.94445259939637
C            0.13431378642160        0.67157920519395       -3.52434907430398
O           -0.25006607233011        0.66994178742132       -4.71528529801552
O            0.03007560727958       -0.33722494124093       -2.77845501089521
H            0.20368864268727        0.16373212917110        0.59523725478136
H           -1.24745918469096        0.65094735484149       -0.11433195415099
H           -0.12138947671113        2.63331681568051        0.36728109976214
H            1.38496346021651        1.97838549167934       -0.29957423876162
H            0.14073371378115        3.63787482703796       -1.76941050756568
H           -1.13700660648502        2.43926186230052       -1.95322203741697
H            1.74408884909120        1.71290703085802       -2.61142043179064
H            0.80174492621543        2.66352285407391       -3.76963380715785
H           -0.01670009809096        0.08533585054344       -1.09760356935634
O            1.04869384765919       -0.63054354910225        1.83090844388074
H            1.03799518567994       -1.54456215698162        1.48675269013945
H            0.53267920375294       -0.64205200674687        2.64476073139700
O           -2.60314072941421       -1.20705284006247       -2.53585713649094
H           -2.92022858909350       -1.14252238517597       -3.44823359166151
H           -1.64404071436669       -1.04503723120977       -2.60366352150448
O           -2.56075970267131       -0.70222348014307       -5.31584177743475
H           -3.04401256236293       -0.26016766249027       -6.01959846502862
H           -1.74379513128612       -0.18334848851369       -5.18163517168808
O           -3.04293514428568        0.78811283624485       -0.71313347566667
H           -3.00903125043934        0.07241761081456       -1.37685546665755
H           -3.61641421697340        0.47471733935144       -0.00094825276982
H            0.79817690403456       -1.98378200110618       -2.39948533625846
H            1.01930995669616       -3.45416956498570       -2.80572614933226
O            1.11354845663474       -2.83937599319679       -2.07248876007988
H            0.98359776215090       -3.01003827555035       -0.27496930262636
H           -0.00359319798054       -3.71384469196444        0.67941102740236
O            0.74050514593000       -3.10210166516639        0.66302681494929
O            0.41244036380099       -2.14669656001967       -5.39505043734375
H            0.27823215614739       -1.25475348477840       -5.03919543655469
H           -0.48030575533221       -2.49443076054672       -5.53005536413135
O           -2.02519930558691       -0.25789053098695        1.82069241180362
H           -2.65625219434144       -0.01590565107896        2.50089921828160
H           -2.24476433053592       -1.14917061746258        1.53115323803894
40
 energy: -64.966487064119 gnorm: 0.017896144468 xtb: 6.7.1 (edcfbbe)
N           -0.23022551079636        0.63523022221186       -0.22766138829328
C            0.29516450034840        1.99720796159944       -0.40421076379085
C           -0.07044737491850        2.56639370347787       -1.77366908843571
C            0.72993490917180        1.95870325683944       -2.93896173915712
C            0.12657670952631        0.67657519947175       -3.51181932465316
O           -0.21478270899535        0.65641642669884       -4.71695888533326
O            0.03924865462127       -0.33313584300090       -2.76534537552563
H            0.20515122188462        0.16190899652971        0.60130891284796
H           -1.25807719064552        0.65548851329173       -0.11296375930332
H           -0.12464287171350        2.63610320044165        0.37237706926006
H            1.38011839297981        1.97398494573701       -0.29222453062572
H            0.13284372554759        3.63750882450170       -1.76076499067597
H           -1.13961403604340        2.43286588429519       -1.94815719401327
H            1.74542630801337        1.72479675835283       -2.60922765181329
H            0.79291012286762        2.66997831520255       -3.76440471931467
H           -0.02626813379437        0.08773061390548       -1.08834835993714
O            1.06553070409873       -0.62277106758287        1.81584937547701
H            1.05236346243347       -1.53884865744860        1.48050207781794
H            0.53884052924742       -0.62097064614118        2.62265964844656
O           -2.59247678663503       -1.21355638937827       -2.54717250286008
H           -2.89732403483602       -1.14632474113264       -3.46405812374806
H           -1.63111666349116       -1.05778816093899       -2.60340109308215
O           -2.54843443112337       -0.69137197210292       -5.32733091221283
H           -3.03287507058522       -0.25343914724625       -6.03225629166377
H           -1.73550372778654       -0.16698164484051       -5.18777613764297
O           -3.02332619573377        0.81070057952817       -0.74279103191496
H           -2.99002633470450        0.09245578490893       -1.40464449411912
H           -3.61443939454600        0.50906890718715       -0.04327091292742
H            0.80844575849773       -1.97576003293393       -2.39748511520122
H            1.04611137825167       -3.44013633355588       -2.82342540876045
O            1.11101689338884       -2.83813407915468       -2.07225751237585
H            0.97170770941145       -3.01530575685589       -0.27238205398392
H            0.00460525170707       -3.73736788805860        0.68773360623872
O            0.73394578933992       -3.10877640626452        0.66633771880678
O            0.37868162265476       -2.16829720150247       -5.40910684874952
H            0.24450245125580       -1.24477934879390       -5.10605400673331
H           -0.50672978277591       -2.51793869360601       -5.54228464476736
O           -2.04200944277306       -0.28997349781437        1.88888413041711
H           -2.67894765679092       -0.04921036808275        2.56156603686267
H           -2.26612620156118       -1.17430251944672        1.59298936883598
40
 energy: -64.967297952601 gnorm: 0.007819047831 xtb: 6.7.1 (edcfbbe)
N           -0.24004576935730        0.63716870250493       -0.21492600145317
C            0.28942928747915        1.99665545881572       -0.39689921541047
C           -0.07596777349071        2.56079603242159       -1.76825872219693
C            0.72890864863709        1.96023091717257       -2.93402693710254
C            0.15035781150996        0.66315753082334       -3.50523961619114
O           -0.17349914307257        0.62983461767366       -4.71450328071343
O            0.04750325672504       -0.33314785198696       -2.74379144915668
H            0.20374466111438        0.16217724271575        0.61043080536038
H           -1.27119288431134        0.66184062195762       -0.11379294685099
H           -0.12916315606959        2.64078474340894        0.37641350399168
H            1.37408379877755        1.96956549359443       -0.28395100779408
H            0.11842056563361        3.63367950206894       -1.75516707348535
H           -1.14377213455199        2.41838579298676       -1.94377437753578
H            1.74939896174812        1.74348961326680       -2.60739807500018
H            0.77845731610554        2.67080568113230       -3.76121872861379
H           -0.03598853919407        0.08943045886104       -1.07490688349656
O            1.08121834328487       -0.61158399052180        1.80070307932196
H            1.06623427018194       -1.52979530763234        1.47444960579427
H            0.54404614661370       -0.59588210393489        2.59960865596795
O           -2.58210176184719       -1.21168517719912       -2.56274046202138
H           -2.87111423458526       -1.15091268099970       -3.48519625234663
H           -1.61709100526851       -1.07365108462748       -2.60595864487349
O           -2.53840304512903       -0.67379821166603       -5.33772242225441
H           -3.01476195075754       -0.23878886392242       -6.04929276511586
H           -1.72261732920204       -0.15754485027926       -5.19553666354310
O           -2.99497664912889        0.83471780369889       -0.77554606639797
H           -2.96557461272004        0.11331423568201       -1.43466778202433
H           -3.60951958695559        0.54949255855798       -0.09243224078800
H            0.81246579447918       -1.96930626705423       -2.38900921659174
H            1.06511098746909       -3.42572806283824       -2.83152863446555
O            1.12145600896481       -2.83370036418652       -2.07712404419962
H            0.95997853965742       -3.02123040967753       -0.27069725960674
H            0.01765521412403       -3.76376417577269        0.69796212239676
O            0.72749681188710       -3.11331004790696        0.66897777824158
O            0.33492606855177       -2.17063793565947       -5.42894547286811
H            0.20456867507486       -1.25440045770211       -5.14267147077472
H           -0.55252654379198       -2.51217364803423       -5.59765541941822
O           -2.05769041718030       -0.32649056699098        1.96979180974743
H           -2.70829216846616       -0.08585654839789        2.63373756047547
H           -2.29142991794203       -1.20419070205431        1.66229729438754
40
 energy: -64.967593881892 gnorm: 0.017251786996 xtb: 6.7.1 (edcfbbe)
N           -0.25028718219903        0.63923703827311       -0.20602988731489
C            0.28407957466379        1.99530595495462       -0.39183337025381
C           -0.08220228938145        2.55351155709918       -1.76530418645560
C            0.72642207716626        1.95769996816073       -2.93086209232696
C            0.18258092239417        0.64264939563409       -3.50192265356649
O           -0.13754553624512        0.60075635460320       -4.70979320660789
O            0.05220424570931       -0.33711889718514       -2.72364652401077
H            0.19365500752297        0.16386259940175        0.61955431386726
H           -1.28438877863168        0.66899256025513       -0.12038126989715
H           -0.13325903694576        2.64442957746837        0.37823701121382
H            1.36857590215636        1.96498242362909       -0.27723466452029
H            0.10236080907149        3.62817197216369       -1.75446755735082
H           -1.14891361319115        2.40166824905452       -1.93986727668117
H            1.75252347479942        1.76098203957636       -2.60833263276322
H            0.76062532955686        2.66560334214575       -3.76134688794390