
                                 *****************
                                 * O   R   C   A *
                                 *****************

                                            #,                                       
                                            ###                                      
                                            ####                                     
                                            #####                                    
                                            ######                                   
                                           ########,                                 
                                     ,,################,,,,,                         
                               ,,#################################,,                 
                          ,,##########################################,,             
                       ,#########################################, ''#####,          
                    ,#############################################,,   '####,        
                  ,##################################################,,,,####,       
                ,###########''''           ''''###############################       
              ,#####''   ,,,,##########,,,,          '''####'''          '####       
            ,##' ,,,,###########################,,,                        '##       
           ' ,,###''''                  '''############,,,                           
         ,,##''                                '''############,,,,        ,,,,,,###''
      ,#''                                            '''#######################'''  
     '                                                          ''''####''''         
             ,#######,   #######,   ,#######,      ##                                
            ,#'     '#,  ##    ##  ,#'     '#,    #''#        ,####,   ,####,        
            ##       ##  ##   ,#'  ##            #'  '#       #'       #'  '#        
            ##       ##  #######   ##           ,######,      #####,   #    #        
            '#,     ,#'  ##    ##  '#,     ,#' ,#      #,     #,   #   #,  ,#        
             '#######'   ##     ##  '#######'  #'      '#     '####' # '####'        



                #########################################################
                #                        -***-                          #
                #          Department of theory and spectroscopy        #
                #                                                       #
                #                      Frank Neese                      #
                #                                                       #
                #     Directorship, Architecture, Infrastructure        #
                #                    SHARK, DRIVERS                     #
                #        Core code/Algorithms in most modules           #
                #                                                       #
                #        Max Planck Institute fuer Kohlenforschung      #
                #                Kaiser Wilhelm Platz 1                 #
                #                 D-45470 Muelheim/Ruhr                 #
                #                      Germany                          #
                #                                                       #
                #                  All rights reserved                  #
                #                        -***-                          #
                #########################################################


                         Program Version 6.0.1  -  RELEASE   -


 With contributions from (in alphabetic order):
[Max-Planck-Institut fuer Kohlenforschung]                               
  Daniel Aravena         : Magnetic Suceptibility                        
  Michael Atanasov       : Ab Initio Ligand Field Theory (pilot matlab implementation)
  Alexander A. Auer      : GIAO ZORA, VPT2 properties, NMR spectrum      
  Ute Becker             : All parallelization in ORCA, NUMFREQ, NUMCALC 
  Giovanni Bistoni       : ED, misc. LED, open-shell LED, HFLD           
  Martin Brehm           : Molecular dynamics                            
  Dmytro Bykov           : pre 5.0 version of the SCF Hessian            
  Marcos Casanova-Páez   : Triplet and SCS-CIS(D). UHF-(DLPNO)-IP/EA/STEOM-CCSD. UHF-CVS-IP/STEOM-CCSD   
  Vijay G. Chilkuri      : MRCI spin determinant printing, contributions to CSF-ICE 
  Pauline Colinet        : FMM embedding                                 
  Dipayan Datta          : RHF DLPNO-CCSD density                        
  Achintya Kumar Dutta   : EOM-CC, STEOM-CC                              
  Nicolas Foglia         : Exact transition moments, OPA infrastructure, MCD improvements    
  Dmitry Ganyushin       : Spin-Orbit,Spin-Spin,Magnetic field MRCI      
  Miquel Garcia-Rates    : C-PCM and meta-GGA Hessian, CCSD/C-PCM, Gaussian charge scheme 
  Tiago L. C. Gouveia    : GS-ROHF, GS-ROCIS                             
  Yang Guo               : DLPNO-NEVPT2, F12-NEVPT2, CIM, IAO-localization        
  Andreas Hansen         : Spin unrestricted coupled pair/coupled cluster methods 
  Ingolf Harden          : AUTO-CI MPn and infrastructure                
  Benjamin Helmich-Paris : MC-RPA, TRAH-(SCF,CASSCF), AVAS, COSX integrals, SCF dyn. polar. 
  Lee Huntington         : MR-EOM, pCC                                   
  Robert Izsak           : Overlap fitted RIJCOSX, COSX-SCS-MP3, EOM     
  Riya Kayal             : Wick's Theorem for AUTO-CI, AUTO-CI UHF-CCSDT 
  Emily Kempfer          : AUTO-CI, RHF CISDT and CCSDT                  
  Christian Kollmar      : KDIIS, OOCD, Brueckner-CCSD(T), CCSD density, CASPT2, CASPT2-K, improved NEVPT2 
  Axel Koslowski         : Symmetry handling                             
  Simone Kossmann        : meta-GGA functionals, TD-DFT gradient, OOMP2, (MP2 Hessian; deprecated post 5.0) 
  Lucas Lang             : DCDCAS                                        
  Marvin Lechner         : AUTO-CI (C++ implementation), FIC-MRCC        
  Spencer Leger          : CASSCF response                               
  Dagmar Lenk            : GEPOL surface, SMD, ORCA-2-JSON               
  Dimitrios Liakos       : Extrapolation schemes; Compound Job, initial MDCI parallelization 
  Dimitrios Manganas     : Further ROCIS development; embedding schemes. LFT, Crystal Embedding 
  Dimitrios Pantazis     : SARC Basis sets                               
  Anastasios Papadopoulos: AUTO-CI, single reference methods and gradients 
  Taras Petrenko         : pre 6.0 DFT Hessian and TD-DFT gradient, (ASA, deprecated), ECA, 1-Electron XAS/XES, NRVS 
  Peter Pinski           : DLPNO-MP2, DLPNO-MP2 Gradient                 
  Christoph Reimann      : Effective Core Potentials                     
  Marius Retegan         : Local ZFS, SOC                                
  Christoph Riplinger    : Optimizer, TS searches, QM/MM, DLPNO-CCSD(T), (RO)-DLPNO pert. Triples 
  Michael Roemelt        : Original ROCIS implementation                 
  Masaaki Saitow         : Open-shell DLPNO-CCSD energy and density      
  Barbara Sandhoefer     : DKH picture change effects                    
  Kantharuban Sivalingam : CASSCF convergence/infrastructure, NEVPT2 and variants, FIC-MRCI 
  Bernardo de Souza      : ESD, SOC TD-DFT                               
  Georgi L. Stoychev     : AutoAux, RI-MP2 NMR, DLPNO-MP2 response, X2C  
  Van Anh Tran           : RI-MP2 g-tensors                              
  Willem Van den Heuvel  : Paramagnetic NMR                              
  Zikuan Wang            : NOTCH, Electric field optimization            
  Frank Wennmohs         : Technical directorship and infrastructure     
  Hang Xu                : AUTO-CI-Response properties                   
                                                                         
[FACCTs GmbH]                                                            
  Markus Bursch, Miquel Garcia-Rates, Christoph Riplinger, Bernardo de Souza, Georgi L. Stoychev 
                                                                 
  APM, Basis sets (HGBS, AHGBS, def-TZVP (Ac-Lr), def2-XVPD (La-Lu)), CI-OPT, improved COSX, DLPNO-Multilevel,           
  DOCKER, DRACO, updates on ESD, GOAT, IRC, LR-CPCM, MBIS, meta-GGA TD-DFT gradient, ML-optimized integration grids, 
  MM, NACMEs, nearIR, NEB, NEB-TS, NL-DFT gradient (VV10), 2- and 3-layer-ONIOM, interface openCOSMO-RS, QMMM,   
  Crystal-QMMM, SF, symmetry and pop. for TD-DFT, r2SCAN hybrids, SOLVATOR                                   
                                                                         
[Other institutions]                                                     
  V. Asgeirsson          : NEB                                           
  Christoph Bannwarth    : sTDA-DFT, sTD-DFT, PBEh-3c, B97-3c, D3        
  Sebastian Ehlert       : rSCAN, r2SCAN, r2SCAN-3c, D4, dhf basis sets  
  Marvin Friede          : D4 for Fr, Ra, Ac-Lr                          
  Lars Goerigk           : TD-DFT with DH, B97 family of functionals     
  Stefan Grimme          : VdW corrections, initial TS optimization, DFT functionals, gCP, sTDA/sTD-DF 
  Waldemar Hujo          : DFT-NL                                        
  H. Jonsson             : NEB                                           
  Holger Kruse           : gCP                                           
  Marcel Mueller         : wB97X-3c, vDZP basis set                      
  Hagen Neugebauer       : wr2SCAN                                       
  Tobias Risthaus        : range-separated hybrid DFT                    
  Lukas Wittmann         : regularized MP2, r2SCAN double-hybrids, wr2SCAN        
                                                                         
We gratefully acknowledge several colleagues who have allowed us to      
interface, adapt or use parts of their codes:                            
  Ed Valeev, F. Pavosevic, A. Kumar             : LibInt (2-el integral package), F12 methods 
  Garnet Chan, S. Sharma, J. Yang, R. Olivares  : DMRG                   
  Ulf Ekstrom                                   : XCFun DFT Library      
  Mihaly Kallay                                 : mrcc  (arbitrary order and MRCC methods)
  Frank Weinhold                                : gennbo (NPA and NBO analysis)           
  Simon Mueller                                 : openCOSMO-RS                            
  Christopher J. Cramer and Donald G. Truhlar   : smd solvation model                     
  S Lehtola, MJT Oliveira, MAL Marques          : LibXC Library                           
  Liviu Ungur et al                             : ANISO software                          


 Your calculation uses the libint2 library for the computation of 2-el integrals
 For citations please refer to: http://libint.valeyev.net

 Your ORCA version has been built with support for libXC version: 6.2.2
 For citations please refer to: https://libxc.gitlab.io

 This ORCA versions uses:
   CBLAS   interface :  Fast vector & matrix operations
   LAPACKE interface :  Fast linear algebra routines
   SCALAPACK package :  Parallel linear algebra routines
   Shared memory     :  Shared parallel matrices
   BLAS/LAPACK       :  OpenBLAS 0.3.27  USE64BITINT DYNAMIC_ARCH NO_AFFINITY SkylakeX SINGLE_THREADED
        Core in use  :  SkylakeX
   Copyright (c) 2011-2014, The OpenBLAS Project


NOTE: MaxCore=5000 MB was set to SCF,MP2,MDCI,CIPSI,MRCI and CIS
      => If you want to overwrite this, your respective input block should be placed after the MaxCore statement
Your calculation utilizes the atom-pairwise dispersion correction
based on EEQ partial charges (D4)


Warning: RI is on but no J-basis has been assigned. Assigning Def2/J (nothing to worry about!)
================================================================================

----- Orbital basis set information -----
Your calculation utilizes the basis: def2-TZVP
   F. Weigend and R. Ahlrichs, Phys. Chem. Chem. Phys. 7, 3297 (2005).

----- AuxJ basis set information -----
Your calculation utilizes the auxiliary basis: def2/J
   F. Weigend, Phys. Chem. Chem. Phys. 8, 1057 (2006).

================================================================================
                                        WARNINGS
                       Please study these warnings very carefully!
================================================================================


WARNING: Geometry Optimization
  ===> : Switching off AutoStart
         For restart on a previous wavefunction, please use MOREAD

================================================================================
                                       INPUT FILE
================================================================================
NAME = 04_Aminobutyric-acid_zwitterion.inp
|  1> ! Opt B3LYP D4 def2-TZVP TightSCF TightOpt CPCM(water)
|  2> 
|  3> %maxcore 5000
|  4> 
|  5> %pal
|  6> nprocs 6
|  7> end
|  8> 
|  9> * xyz 0 1
| 10> N          0.59830        0.70120        0.63310
| 11> C          0.84240        1.92740       -0.12830
| 12> C          0.56610        1.74850       -1.63420
| 13> C          1.41690        0.68250       -2.35020
| 14> C          2.89080        0.98680       -2.34870
| 15> O          3.53250        1.19690       -3.51400
| 16> O          3.52190        1.01120       -1.30460
| 17> H          0.72880        0.90270        1.65080
| 18> H         -0.38100        0.36850        0.47840
| 19> H          0.16430        2.72450        0.24970
| 20> H          1.88140        2.27770        0.04440
| 21> H          0.72340        2.72650       -2.13940
| 22> H         -0.50410        1.47380       -1.75900
| 23> H          1.24380       -0.32090       -1.90880
| 24> H          1.07250        0.64090       -3.40650
| 25> H          1.27730       -0.04390        0.35930
| 26> *
| 27> 
| 28>                          ****END OF INPUT****
================================================================================

                       *****************************
                       * Geometry Optimization Run *
                       *****************************

Geometry optimization settings:
Update method            Update   .... BFGS
Choice of coordinates    CoordSys .... (2022) Redundant Internals
Initial Hessian          InHess   .... Almloef's Model
Max. no of cycles        MaxIter  .... 50

Convergence Tolerances:
Energy Change            TolE     ....  1.0000e-06 Eh
Max. Gradient            TolMAXG  ....  1.0000e-04 Eh/bohr
RMS Gradient             TolRMSG  ....  3.0000e-05 Eh/bohr
Max. Displacement        TolMAXD  ....  1.0000e-03 bohr
RMS Displacement         TolRMSD  ....  6.0000e-04 bohr
Strict Convergence                .... False

------------------------------------------------------------------------------
                        ORCA OPTIMIZATION COORDINATE SETUP
------------------------------------------------------------------------------

The optimization will be done in redundant internal coordinates (2022)
Making redundant internal coordinates   ...  (2022 redundants) done
Evaluating the initial hessian          ...  (Almloef) done
Evaluating the coordinates              ...  done
Calculating the B-matrix                .... done
Calculating the G-matrix                .... done
Diagonalizing the G-matrix              .... done
Small eigenvalue found = 2.578e-02
The first mode is                       ....   23
The number of degrees of freedom        ....   42

    -----------------------------------------------------------------
                    Redundant Internal Coordinates


    -----------------------------------------------------------------
         Definition                    Initial Value    Approx d2E/dq
    -----------------------------------------------------------------
      1. B(C   1,N   0)                  1.4639         0.426618   
      2. B(C   2,C   1)                  1.5415         0.358181   
      3. B(C   3,C   2)                  1.5404         0.359554   
      4. B(C   4,C   3)                  1.5050         0.409530   
      5. B(O   5,C   4)                  1.3468         0.655863   
      6. B(O   6,C   4)                  1.2203         1.043973   
      7. B(H   7,N   0)                  1.0456         0.379618   
      8. B(H   8,N   0)                  1.0458         0.379415   
      9. B(H   9,C   1)                  1.1127         0.331305   
     10. B(H  10,C   1)                  1.1100         0.334615   
     11. B(H  11,C   2)                  1.1120         0.332191   
     12. B(H  12,C   2)                  1.1119         0.332241   
     13. B(H  13,C   3)                  1.1098         0.334863   
     14. B(H  14,C   3)                  1.1118         0.332379   
     15. B(H  15,N   0)                  1.0446         0.381065   
     16. A(H   8,N   0,H  15)          110.0595         0.291080   
     17. A(H   7,N   0,H   8)          108.7933         0.290906   
     18. A(C   1,N   0,H   8)          110.2243         0.329527   
     19. A(C   1,N   0,H  15)          110.6565         0.329764   
     20. A(C   1,N   0,H   7)          108.9054         0.329556   
     21. A(H   7,N   0,H  15)          108.1460         0.291104   
     22. A(H   9,C   1,H  10)          106.9488         0.283804   
     23. A(C   2,C   1,H  10)          110.8799         0.318248   
     24. A(N   0,C   1,H  10)          109.8474         0.325540   
     25. A(C   2,C   1,H   9)          107.8055         0.317733   
     26. A(N   0,C   1,C   2)          112.3974         0.366737   
     27. A(N   0,C   1,H   9)          108.7688         0.325008   
     28. A(C   1,C   2,H  11)          108.4465         0.317871   
     29. A(C   3,C   2,H  12)          107.9666         0.318077   
     30. A(C   1,C   2,H  12)          108.1100         0.317879   
     31. A(C   3,C   2,H  11)          108.6231         0.318069   
     32. A(C   1,C   2,C   3)          115.8110         0.358408   
     33. A(H  11,C   2,H  12)          107.6047         0.283608   
     34. A(H  13,C   3,H  14)          107.2016         0.283980   
     35. A(C   2,C   3,C   4)          113.6110         0.366703   
     36. A(C   4,C   3,H  14)          108.1726         0.324947   
     37. A(C   2,C   3,H  14)          107.2420         0.318098   
     38. A(C   4,C   3,H  13)          109.5830         0.325345   
     39. A(C   2,C   3,H  13)          110.7730         0.318485   
     40. A(O   5,C   4,O   6)          119.3928         0.475788   
     41. A(C   3,C   4,O   6)          120.7571         0.439565   
     42. A(C   3,C   4,O   5)          119.8218         0.404556   
     43. D(H   9,C   1,N   0,H   8)     62.9705         0.016626   
     44. D(H   9,C   1,N   0,H   7)    -56.3091         0.016626   
     45. D(H   9,C   1,N   0,H  15)   -175.0554         0.016626   
     46. D(C   2,C   1,N   0,H  15)     65.6463         0.016626   
     47. D(C   2,C   1,N   0,H   7)   -175.6074         0.016626   
     48. D(C   2,C   1,N   0,H   8)    -56.3278         0.016626   
     49. D(C   3,C   2,C   1,N   0)    -60.3532         0.010300   
     50. D(H  11,C   2,C   1,H  10)    -59.3325         0.010300   
     51. D(H  11,C   2,C   1,H   9)     57.4252         0.010300   
     52. D(H  11,C   2,C   1,N   0)    177.2844         0.010300   
     53. D(C   3,C   2,C   1,H  10)     63.0299         0.010300   
     54. D(C   3,C   2,C   1,H   9)    179.7876         0.010300   
     55. D(C   4,C   3,C   2,H  12)    175.6706         0.010374   
     56. D(C   4,C   3,C   2,H  11)     59.2602         0.010374   
     57. D(C   4,C   3,C   2,C   1)    -63.0086         0.010374   
     58. D(H  13,C   3,C   2,H  12)    -60.4783         0.010374   
     59. D(H  13,C   3,C   2,H  11)   -176.8887         0.010374   
     60. D(H  13,C   3,C   2,C   1)     60.8425         0.010374   
     61. D(O   6,C   4,C   3,C   2)     65.1643         0.012423   
     62. D(O   5,C   4,C   3,H  14)      2.1625         0.012423   
     63. D(O   5,C   4,C   3,H  13)    118.7231         0.012423   
     64. D(O   6,C   4,C   3,H  13)    -59.3310         0.012423   
     65. D(O   5,C   4,C   3,C   2)   -116.7816         0.012423   
    -----------------------------------------------------------------

Number of atoms                         .... 16
Number of degrees of freedom            .... 65


         *************************************************************
         *                GEOMETRY OPTIMIZATION CYCLE   1            *
         *************************************************************
---------------------------------
CARTESIAN COORDINATES (ANGSTROEM)
---------------------------------
  N      0.598300    0.701200    0.633100
  C      0.842400    1.927400   -0.128300
  C      0.566100    1.748500   -1.634200
  C      1.416900    0.682500   -2.350200
  C      2.890800    0.986800   -2.348700
  O      3.532500    1.196900   -3.514000
  O      3.521900    1.011200   -1.304600
  H      0.728800    0.902700    1.650800
  H     -0.381000    0.368500    0.478400
  H      0.164300    2.724500    0.249700
  H      1.881400    2.277700    0.044400
  H      0.723400    2.726500   -2.139400
  H     -0.504100    1.473800   -1.759000
  H      1.243800   -0.320900   -1.908800
  H      1.072500    0.640900   -3.406500
  H      1.277300   -0.043900    0.359300

----------------------------
CARTESIAN COORDINATES (A.U.)
----------------------------
  NO LB      ZA    FRAG     MASS         X           Y           Z
   0 N     7.0000    0    14.007    1.130623    1.325076    1.196386
   1 C     6.0000    0    12.011    1.591905    3.642258   -0.242452
   2 C     6.0000    0    12.011    1.069774    3.304186   -3.088190
   3 C     6.0000    0    12.011    2.677553    1.289738   -4.441234
   4 C     6.0000    0    12.011    5.462820    1.864782   -4.438400
   5 O     8.0000    0    15.999    6.675458    2.261813   -6.640498
   6 O     8.0000    0    15.999    6.655426    1.910891   -2.465337
   7 H     1.0000    0     1.008    1.377232    1.705856    3.119560
   8 H     1.0000    0     1.008   -0.719986    0.696364    0.904045
   9 H     1.0000    0     1.008    0.310482    5.148559    0.471865
  10 H     1.0000    0     1.008    3.555331    4.304229    0.083904
  11 H     1.0000    0     1.008    1.367028    5.152338   -4.042880
  12 H     1.0000    0     1.008   -0.952611    2.785078   -3.324028
  13 H     1.0000    0     1.008    2.350441   -0.606413   -3.607109
  14 H     1.0000    0     1.008    2.026731    1.211125   -6.437352
  15 H     1.0000    0     1.008    2.413747   -0.082959    0.678979

--------------------------------
INTERNAL COORDINATES (ANGSTROEM)
--------------------------------
 N      0   0   0     0.000000000000     0.00000000     0.00000000
 C      1   0   0     1.463858329894     0.00000000     0.00000000
 C      2   1   0     1.541454413857   112.39741953     0.00000000
 C      3   2   1     1.540413139388   115.81098065   299.64676513
 C      4   3   2     1.504985697606   113.61098440   296.99139339
 O      5   4   3     1.346790625896   119.82183678   243.21838619
 O      5   4   3     1.220257095861   120.75708707    65.16428537
 H      1   2   3     1.045631765967   108.90538258   184.39259547
 H      1   2   3     1.045777160776   110.22427960   303.67220752
 H      2   1   3     1.112686847231   108.76875676   119.29832164
 H      2   1   3     1.109980351177   109.84739099   236.04153361
 H      3   2   1     1.111959680024   108.44654107   177.28436204
 H      3   2   1     1.111918688574   108.11004869    60.89068206
 H      4   3   2     1.109778865360   110.77299820    60.84247379
 H      4   3   2     1.111805563037   107.24201142   177.51584050
 H      1   2   3     1.044596309586   110.65648725    65.64630884

---------------------------
INTERNAL COORDINATES (A.U.)
---------------------------
 N      0   0   0     0.000000000000     0.00000000     0.00000000
 C      1   0   0     2.766291342359     0.00000000     0.00000000
 C      2   1   0     2.912926690114   112.39741953     0.00000000
 C      3   2   1     2.910958966538   115.81098065   299.64676513
 C      4   3   2     2.844010803945   113.61098440   296.99139339
 O      5   4   3     2.545065442675   119.82183678   243.21838619
 O      5   4   3     2.305951724152   120.75708707    65.16428537
 H      1   2   3     1.975957674607   108.90538258   184.39259547
 H      1   2   3     1.976232430976   110.22427960   303.67220752
 H      2   1   3     2.102673414082   108.76875676   119.29832164
 H      2   1   3     2.097558877759   109.84739099   236.04153361
 H      3   2   1     2.101299267209   108.44654107   177.28436204
 H      3   2   1     2.101221804594   108.11004869    60.89068206
 H      4   3   2     2.097178124744   110.77299820    60.84247379
 H      4   3   2     2.101008028310   107.24201142   177.51584050
 H      1   2   3     1.974000945622   110.65648725    65.64630884

---------------------
BASIS SET INFORMATION
---------------------
There are 4 groups of distinct atoms

 Group   1 Type N   : 11s6p2d1f contracted to 5s3p2d1f pattern {62111/411/11/1}
 Group   2 Type C   : 11s6p2d1f contracted to 5s3p2d1f pattern {62111/411/11/1}
 Group   3 Type O   : 11s6p2d1f contracted to 5s3p2d1f pattern {62111/411/11/1}
 Group   4 Type H   : 5s1p contracted to 3s1p pattern {311/1}

Atom   0N    basis set group =>   1
Atom   1C    basis set group =>   2
Atom   2C    basis set group =>   2
Atom   3C    basis set group =>   2
Atom   4C    basis set group =>   2
Atom   5O    basis set group =>   3
Atom   6O    basis set group =>   3
Atom   7H    basis set group =>   4
Atom   8H    basis set group =>   4
Atom   9H    basis set group =>   4
Atom  10H    basis set group =>   4
Atom  11H    basis set group =>   4
Atom  12H    basis set group =>   4
Atom  13H    basis set group =>   4
Atom  14H    basis set group =>   4
Atom  15H    basis set group =>   4
---------------------------------
AUXILIARY/J BASIS SET INFORMATION
---------------------------------
There are 4 groups of distinct atoms

 Group   1 Type N   : 12s5p4d2f1g contracted to 6s4p3d1f1g pattern {711111/2111/211/2/1}
 Group   2 Type C   : 12s5p4d2f1g contracted to 6s4p3d1f1g pattern {711111/2111/211/2/1}
 Group   3 Type O   : 12s5p4d2f1g contracted to 6s4p3d1f1g pattern {711111/2111/211/2/1}
 Group   4 Type H   : 5s2p1d contracted to 3s1p1d pattern {311/2/1}

Atom   0N    basis set group =>   1
Atom   1C    basis set group =>   2
Atom   2C    basis set group =>   2
Atom   3C    basis set group =>   2
Atom   4C    basis set group =>   2
Atom   5O    basis set group =>   3
Atom   6O    basis set group =>   3
Atom   7H    basis set group =>   4
Atom   8H    basis set group =>   4
Atom   9H    basis set group =>   4
Atom  10H    basis set group =>   4
Atom  11H    basis set group =>   4
Atom  12H    basis set group =>   4
Atom  13H    basis set group =>   4
Atom  14H    basis set group =>   4
Atom  15H    basis set group =>   4
--------------------------------------------------------------------------
WARNING: There was an error initializing an OpenFabrics device.

  Local host:   ga01
  Local device: mlx5_0
--------------------------------------------------------------------------


           ************************************************************
           *        Program running with 6 parallel MPI-processes     *
           *              working on a common directory               *
           ************************************************************
------------------------------------------------------------------------------
                             ORCA STARTUP CALCULATIONS
                           -- RI-GTO INTEGRALS CHOSEN --
------------------------------------------------------------------------------
------------------------------------------------------------------------------
                   ___                                                        
                  /   \      - P O W E R E D   B Y -                         
                 /     \                                                     
                 |  |  |   _    _      __       _____    __    __             
                 |  |  |  | |  | |    /  \     |  _  \  |  |  /  |          
                  \  \/   | |  | |   /    \    | | | |  |  | /  /          
                 / \  \   | |__| |  /  /\  \   | |_| |  |  |/  /          
                |  |  |   |  __  | /  /__\  \  |    /   |      \           
                |  |  |   | |  | | |   __   |  |    \   |  |\   \          
                \     /   | |  | | |  |  |  |  | |\  \  |  | \   \       
                 \___/    |_|  |_| |__|  |__|  |_| \__\ |__|  \__/        
                                                                              
                      - O R C A' S   B I G   F R I E N D -                    
                                      &                                       
                       - I N T E G R A L  F E E D E R -                       
                                                                              
 v1 FN, 2020, v2 2021, v3 2022-2024                                           
------------------------------------------------------------------------------


----------------------
SHARK INTEGRAL PACKAGE
----------------------

Number of atoms                             ...     16
Number of basis functions                   ...    271
Number of shells                            ...    113
Maximum angular momentum                    ...      3
Integral batch strategy                     ... SHARK/LIBINT Hybrid
RI-J (if used) integral strategy            ... SPLIT-RIJ (Revised 2003 algorithm where possible)
Printlevel                                  ...      1
Contraction scheme used                     ... SEGMENTED contraction
Prescreening option                         ... SCHWARTZ
   Thresh                                   ... 2.500e-11
   Tcut                                     ... 2.500e-12
   Tpresel                                  ... 2.500e-12 
Coulomb Range Separation                    ... NOT USED
Exchange Range Separation                   ... NOT USED
Multipole approximations                    ... NOT USED
Finite Nucleus Model                        ... NOT USED
CABS basis                                  ... NOT available
Auxiliary Coulomb fitting basis             ... AVAILABLE
   # of basis functions in Aux-J            ...    442
   # of shells in Aux-J                     ...    150
   Maximum angular momentum in Aux-J        ...      4
Auxiliary J/K fitting basis                 ... NOT available
Auxiliary Correlation fitting basis         ... NOT available
Auxiliary 'external' fitting basis          ... NOT available

Checking pre-screening integrals            ... done (  0.0 sec) Dimension = 113
Check shell pair data                       ... done (  0.0 sec)
Shell pair information
Shell pair cut-off parameter TPreSel        ...   2.5e-12
Total number of shell pairs                 ...      6441
Shell pairs after pre-screening             ...      5939
Total number of primitive shell pairs       ...     19096
Primitive shell pairs kept                  ...     13403
          la=0 lb=0:   1757 shell pairs
          la=1 lb=0:   1737 shell pairs
          la=1 lb=1:    447 shell pairs
          la=2 lb=0:    792 shell pairs
          la=2 lb=1:    396 shell pairs
          la=2 lb=2:     99 shell pairs
          la=3 lb=0:    392 shell pairs
          la=3 lb=1:    199 shell pairs
          la=3 lb=2:     93 shell pairs
          la=3 lb=3:     27 shell pairs

Calculating one electron integrals          ... done (  0.0 sec)
Calculating RI/J V-Matrix + Cholesky decomp.... done (  0.0 sec)
Calculating Nuclear repulsion               ... done (  0.0 sec) ENN=    314.443758277453 Eh

Diagonalization of the overlap matrix:
Smallest eigenvalue                        ... 2.233e-04
Time for diagonalization                   ...    0.006 sec
Threshold for overlap eigenvalues          ... 1.000e-07
Number of eigenvalues below threshold      ... 0
Time for construction of square roots      ...    0.003 sec
Total time needed                          ...    0.011 sec

-------------------
DFT GRID GENERATION
-------------------

General Integration Accuracy     IntAcc      ... 4.388
Radial Grid Type                 RadialGrid  ... OptM3 with GC (2021)
Angular Grid (max. ang.)         AngularGrid ... 4 (Lebedev-302)
Angular grid pruning method      GridPruning ... 4 (adaptive)
Weight generation scheme         WeightScheme... mBecke (2022)
Basis function cutoff            BFCut       ... 1.0000e-11
Integration weight cutoff        WCut        ... 1.0000e-14
Partially contracted basis set               ... off
Rotationally invariant grid construction     ... off
Angular grids for H and He will be reduced by one unit

Total number of grid points                  ...    71112
Total number of batches                      ...     1118
Average number of points per batch           ...       63
Average number of grid points per atom       ...     4444

--------------------
COSX GRID GENERATION
--------------------

GRIDX 1
-------
General Integration Accuracy     IntAcc      ... 3.816
Radial Grid Type                 RadialGrid  ... OptM3 with GC (2021)
Angular Grid (max. ang.)         AngularGrid ... 1 (Lebedev-50)
Angular grid pruning method      GridPruning ... 4 (adaptive)
Weight generation scheme         WeightScheme... mBecke (2022)
Basis function cutoff            BFCut       ... 1.0000e-11
Integration weight cutoff        WCut        ... 1.0000e-14
Partially contracted basis set               ... on
Rotationally invariant grid construction     ... off
Angular grids for H and He will be reduced by one unit

Total number of grid points                  ...     9113
Total number of batches                      ...       84
Average number of points per batch           ...      108
Average number of grid points per atom       ...      570
UseSFitting                                  ... on

GRIDX 2
-------
General Integration Accuracy     IntAcc      ... 4.020
Radial Grid Type                 RadialGrid  ... OptM3 with GC (2021)
Angular Grid (max. ang.)         AngularGrid ... 2 (Lebedev-110)
Angular grid pruning method      GridPruning ... 4 (adaptive)
Weight generation scheme         WeightScheme... mBecke (2022)
Basis function cutoff            BFCut       ... 1.0000e-11
Integration weight cutoff        WCut        ... 1.0000e-14
Partially contracted basis set               ... on
Rotationally invariant grid construction     ... off
Angular grids for H and He will be reduced by one unit

Total number of grid points                  ...    19470
Total number of batches                      ...      161
Average number of points per batch           ...      120
Average number of grid points per atom       ...     1217
UseSFitting                                  ... on

GRIDX 3
-------
General Integration Accuracy     IntAcc      ... 4.338
Radial Grid Type                 RadialGrid  ... OptM3 with GC (2021)
Angular Grid (max. ang.)         AngularGrid ... 3 (Lebedev-194)
Angular grid pruning method      GridPruning ... 4 (adaptive)
Weight generation scheme         WeightScheme... mBecke (2022)
Basis function cutoff            BFCut       ... 1.0000e-11
Integration weight cutoff        WCut        ... 1.0000e-14
Partially contracted basis set               ... on
Rotationally invariant grid construction     ... off
Angular grids for H and He will be reduced by one unit

Total number of grid points                  ...    42636
Total number of batches                      ...      342
Average number of points per batch           ...      124
Average number of grid points per atom       ...     2665
UseSFitting                                  ... on
Initializing property integral containers    ... done (  0.0 sec)

SHARK setup successfully completed in   0.7 seconds

Maximum memory used throughout the entire STARTUP-calculation: 25.8 MB
[ga01:1276094] 5 more processes have sent help message help-mpi-btl-openib.txt / error in device init
[ga01:1276094] Set MCA parameter "orte_base_help_aggregate" to 0 to see all help / error messages
--------------------------------------------------------------------------
WARNING: There was an error initializing an OpenFabrics device.

  Local host:   ga01
  Local device: mlx5_0
--------------------------------------------------------------------------


           ************************************************************
           *        Program running with 6 parallel MPI-processes     *
           *              working on a common directory               *
           ************************************************************
-------------------------------------------------------------------------------
                                 ORCA GUESS
                   Start orbitals & Density for SCF / CASSCF
-------------------------------------------------------------------------------

------------
SCF SETTINGS
------------
Hamiltonian:
 Density Functional     Method          .... DFT(GTOs)
 Exchange Functional    Exchange        .... B88
   X-Alpha parameter    XAlpha          ....  0.666667
   Becke's b parameter  XBeta           ....  0.004200
 Correlation Functional Correlation     .... LYP
 LDA part of GGA corr.  LDAOpt          .... VWN-5
 Gradients option       PostSCFGGA      .... off
 Hybrid DFT is turned on
   Fraction HF Exchange ScalHFX         ....  0.200000
   Scaling of DF-GGA-X  ScalDFX         ....  0.720000
   Scaling of DF-GGA-C  ScalDFC         ....  0.810000
   Scaling of DF-LDA-C  ScalLDAC        ....  1.000000
   Perturbative correction              ....  0.000000
   NL short-range parameter             ....  4.800000
 RI-approximation to the Coulomb term is turned on
   Number of AuxJ basis functions       .... 442
   RIJ-COSX (HFX calculated with COS-X)).... on


General Settings:
 Integral files         IntName         .... 04_Aminobutyric-acid_zwitterion
 Hartree-Fock type      HFTyp           .... RHF
 Total Charge           Charge          ....    0
 Multiplicity           Mult            ....    1
 Number of Electrons    NEL             ....   56
 Basis Dimension        Dim             ....  271
 Nuclear Repulsion      ENuc            ....    314.4437582775 Eh

Convergence Acceleration:
 AO-DIIS                CNVDIIS         .... on
   Start iteration      DIISMaxIt       ....    12
   Startup error        DIISStart       ....  0.200000
   # of expansion vecs  DIISMaxEq       ....     5
   Bias factor          DIISBfac        ....   1.050
   Max. coefficient     DIISMaxC        ....  10.000
 MO-DIIS                CNVKDIIS        .... off
 Trust-Rad. Augm. Hess. CNVTRAH         .... auto
   Auto Start mean grad. ratio tolernc. ....  1.125000
   Auto Start start iteration           ....    50
   Auto Start num. interpolation iter.  ....    10
   Max. Number of Micro iterations      ....    24
   Max. Number of Macro iterations      .... Maxiter - #DIIS iter
   Number of Davidson start vectors     ....     2
   Converg. threshold    (grad. norm)   ....   1.000e-05
   Grad. Scal. Fac. for Micro threshold ....   0.100
   Minimum threshold for Micro iter.    ....   1.000e-02
   NR start threshold (gradient norm)   ....   1.000e-04
   Initial trust radius                 ....   0.400
   Minimum AH scaling param. (alpha)    ....   1.000
   Maximum AH scaling param. (alpha)    .... 1000.000
   Quad. conv. algorithm                .... NR
   White noise on init. David. guess    .... on
   Maximum white noise                  ....   0.010
   Pseudo random numbers                .... off
   Inactive MOs                         .... canonical
   Orbital update algorithm             .... Taylor
   Preconditioner                       .... Diag
   Full preconditioner red. dimension   ....   250
 SOSCF                  CNVSOSCF        .... on
   Start iteration      SOSCFMaxIt      ....   150
   Startup grad/error   SOSCFStart      ....  0.003300
   Hessian update       SOSCFHessUp     .... L-BFGS
 Level Shifting         CNVShift        .... on
   Level shift para.    LevelShift      ....    0.2500
   Turn off err/grad.   ShiftErr        ....    0.0010
 Zerner damping         CNVZerner       .... off
 Static damping         CNVDamp         .... on
   Fraction old density DampFac         ....    0.7000
   Max. Damping (<1)    DampMax         ....    0.9800
   Min. Damping (>=0)   DampMin         ....    0.0000
   Turn off err/grad.   DampErr         ....    0.1000

SCF Procedure:
 Maximum # iterations   MaxIter         ....   125
 SCF integral mode      SCFMode         .... Direct
   Integral package                     .... SHARK and LIBINT hybrid scheme
 Reset frequency        DirectResetFreq ....    20
 Integral Threshold     Thresh          ....  2.500e-11 Eh
 Primitive CutOff       TCut            ....  2.500e-12 Eh

Convergence Tolerance:
 Convergence Check Mode ConvCheckMode   .... Total+1el-Energy
 Convergence forced     ConvForced      .... 0
 Energy Change          TolE            ....  1.000e-08 Eh
 1-El. energy change                    ....  1.000e-05 Eh
 Orbital Gradient       TolG            ....  1.000e-05
 Orbital Rotation angle TolX            ....  1.000e-05
 DIIS Error             TolErr          ....  5.000e-07

------------------------------
INITIAL GUESS: MODEL POTENTIAL
------------------------------
Loading Hartree-Fock densities                     ... done
Calculating cut-offs                               ... done
Initializing the effective Hamiltonian             ... done
Setting up the integral package (SHARK)            ... done
Starting the Coulomb interaction                   ... done (   0.0 sec)
Making the grid                                    ... done (   0.1 sec)
Mapping shells                                     ... done
Starting the XC term evaluation                    ... done (   0.0 sec)
  promolecular density results
     # of electrons  =     55.994484863
     EX              =    -46.170330536
     EC              =     -1.889436072
     EX+EC           =    -48.059766608
Transforming the Hamiltonian                       ... done (   0.0 sec)
Diagonalizing the Hamiltonian                      ... done (   0.0 sec)
Back transforming the eigenvectors                 ... done (   0.0 sec)
Now organizing SCF variables                       ... done
                      ------------------
                      INITIAL GUESS DONE (   0.2 sec)
                      ------------------
             **** ENERGY FILE WAS UPDATED (04_Aminobutyric-acid_zwitterion.en.tmp) ****
Finished Guess after   0.4 sec
Maximum memory used throughout the entire GUESS-calculation: 17.1 MB
[ga01:1276123] 5 more processes have sent help message help-mpi-btl-openib.txt / error in device init
[ga01:1276123] Set MCA parameter "orte_base_help_aggregate" to 0 to see all help / error messages
--------------------------------------------------------------------------
WARNING: There was an error initializing an OpenFabrics device.

  Local host:   ga01
  Local device: mlx5_0
--------------------------------------------------------------------------


           ************************************************************
           *        Program running with 6 parallel MPI-processes     *
           *              working on a common directory               *
           ************************************************************

-------------------------------------------------------------------------------------------
                                      ORCA LEAN-SCF
                              memory conserving SCF solver
-------------------------------------------------------------------------------------------

--------------------
CPCM SOLVATION MODEL
--------------------
CPCM parameters:
  Epsilon                                         ...      80.1510
  Refrac                                          ...       1.3328
  Rsolv                                           ...       1.3000
  Surface type                                    ... GAUSSIAN VDW
  Discretization scheme                           ... Constant charge density
    Threshold for H atoms                         ...       5.0000 (charges/Ang^2)
    Threshold for non-H atoms                     ...       5.0000 (charges/Ang^2)
  Epsilon function type                           ...         CPCM
Solvent:                                          ... WATER
Radii:
  Scheme                                          ... Element-dependent radii
  Radius for N  used is    3.5149 Bohr (=   1.8600 Ang.)
  Radius for C  used is    3.8550 Bohr (=   2.0400 Ang.)
  Radius for O  used is    3.4469 Bohr (=   1.8240 Ang.)
  Radius for H  used is    2.4944 Bohr (=   1.3200 Ang.)
Calculating surface                               ...        done! (  0.0s)
Cavity surface points                             ...         1363
Cavity Volume                                     ...     905.0608
Cavity Surface-area                               ...     540.1001
Calculating surface distance matrix               ...        done! (  0.0s)
Performing Cholesky decomposition & store         ...        done! (  0.1s)
Overall time for CPCM initialization              ...                 0.1s

----------------------------------------D-I-I-S--------------------------------------------
Iteration    Energy (Eh)           Delta-E    RMSDP     MaxDP     DIISErr   Damp  Time(sec)
-------------------------------------------------------------------------------------------
               ***  Starting incremental Fock matrix formation  ***
    1    -362.6817493743378691     0.00e+00  3.74e-03  3.58e-01  3.71e-01  0.700   1.3
    2    -362.8390754196700527    -1.57e-01  3.38e-03  3.60e-01  1.46e-01  0.700   0.8
                               ***Turning on AO-DIIS***
    3    -362.8930347628626123    -5.40e-02  1.11e-03  9.94e-02  3.61e-02  0.700   0.8
    4    -362.9271184704382449    -3.41e-02  1.03e-03  6.37e-02  1.55e-02  0.000   0.8
    5    -363.0047764401076620    -7.77e-02  8.36e-04  9.66e-02  7.77e-03  0.000   0.8
[ga01:1276151] 5 more processes have sent help message help-mpi-btl-openib.txt / error in device init
[ga01:1276151] Set MCA parameter "orte_base_help_aggregate" to 0 to see all help / error messages
                              *** Initializing SOSCF ***
---------------------------------------S-O-S-C-F--------------------------------------
Iteration    Energy (Eh)           Delta-E    RMSDP     MaxDP     MaxGrad    Time(sec)
--------------------------------------------------------------------------------------
    6    -363.0052091992545229    -4.33e-04  2.97e-04  3.38e-02  2.32e-03     0.8
               *** Restarting incremental Fock matrix formation ***
    7    -363.0052426159728611    -3.34e-05  2.26e-04  2.58e-02  5.11e-04     1.3
    8    -363.0052339222595492     8.69e-06  3.87e-05  1.38e-03  1.09e-03     1.0
    9    -363.0052494646354262    -1.55e-05  3.47e-05  3.85e-03  7.66e-05     1.0
   10    -363.0052492842418133     1.80e-07  1.00e-05  1.04e-03  9.70e-05     1.0
   11    -363.0052497862566270    -5.02e-07  6.44e-06  7.13e-04  1.61e-05     0.9
   12    -363.0052497725681633     1.37e-08  3.62e-06  3.98e-04  2.28e-05     0.8
   13    -363.0052497922744124    -1.97e-08  2.54e-07  2.71e-05  6.67e-07     0.8
                  *** Gradient check signals convergence ***

               *****************************************************
               *                     SUCCESS                       *
               *           SCF CONVERGED AFTER  13 CYCLES          *
               *****************************************************

Recomputing exchange energy using gridx3       ... done (    1.870 sec)
Old exchange energy                            :     -9.388044040 Eh
New exchange energy                            :     -9.388048231 Eh
Exchange energy change after final integration :     -0.000004192 Eh
Total energy after final integration           :   -363.005253984 Eh
             **** ENERGY FILE WAS UPDATED (04_Aminobutyric-acid_zwitterion.en.tmp) ****

----------------
TOTAL SCF ENERGY
----------------

Total Energy       :       -363.00525398378073 Eh           -9877.87514 eV

Components:
Nuclear Repulsion  :        314.44375827745273 Eh            8556.44966 eV
Electronic Energy  :       -677.33334381574650 Eh          -18431.17731 eV
One Electron Energy:      -1117.88434492859164 Eh          -30419.17951 eV
Two Electron Energy:        440.55100111284514 Eh           11988.00220 eV
CPCM Dielectric    :         -0.11566425398067 Eh              -3.14738 eV

Virial components:
Potential Energy   :       -724.08139649948248 Eh          -19703.25649 eV
Kinetic Energy     :        361.07614251570169 Eh            9825.38135 eV
Virial Ratio       :          2.00534267219828

DFT components:
N(Alpha)           :       28.000005594161 electrons
N(Beta)            :       28.000005594161 electrons
N(Total)           :       56.000011188322 electrons
E(X)               :      -37.337578735694 Eh       
E(C)               :       -2.234951698548 Eh       
E(XC)              :      -39.572530434242 Eh       

CPCM Solvation Model Properties:
Surface-charge          :         -0.02184331152093
Corrected charge        :         -0.00000000000000
Outlying charge corr.   :          0.00003723408341 Eh               0.00101 eV
Free-energy (cav+disp)  :  This term is not implemented in the current solvation scheme

---------------
SCF CONVERGENCE
---------------

  Last Energy change         ...    1.9706e-08  Tolerance :   1.0000e-08
  Last MAX-Density change    ...    2.7113e-05  Tolerance :   1.0000e-07
  Last RMS-Density change    ...    2.5409e-07  Tolerance :   5.0000e-09
  Last DIIS Error            ...    2.3189e-03  Tolerance :   5.0000e-07
  Last Orbital Gradient      ...    6.6687e-07  Tolerance :   1.0000e-05
  Last Orbital Rotation      ...    1.3161e-06  Tolerance :   1.0000e-05


----------------
ORBITAL ENERGIES
----------------

  NO   OCC          E(Eh)            E(eV) 
   0   2.0000     -19.060786      -518.6704 
   1   2.0000     -19.039798      -518.0992 
   2   2.0000     -14.432985      -392.7415 
   3   2.0000     -10.243150      -278.7303 
   4   2.0000     -10.224300      -278.2173 
   5   2.0000     -10.183676      -277.1119 
   6   2.0000     -10.166761      -276.6516 
   7   2.0000      -1.016990       -27.6737 
   8   2.0000      -0.995202       -27.0808 
   9   2.0000      -0.892537       -24.2872 
  10   2.0000      -0.788070       -21.4445 
  11   2.0000      -0.705687       -19.2027 
  12   2.0000      -0.616776       -16.7833 
  13   2.0000      -0.577006       -15.7011 
  14   2.0000      -0.567198       -15.4342 
  15   2.0000      -0.508754       -13.8439 
  16   2.0000      -0.477478       -12.9929 
  17   2.0000      -0.450116       -12.2483 
  18   2.0000      -0.439218       -11.9517 
  19   2.0000      -0.413266       -11.2455 
  20   2.0000      -0.387744       -10.5511 
  21   2.0000      -0.381339       -10.3768 
  22   2.0000      -0.363109        -9.8807 
  23   2.0000      -0.343617        -9.3503 
  24   2.0000      -0.338020        -9.1980 
  25   2.0000      -0.239927        -6.5288 
  26   2.0000      -0.235877        -6.4185 
  27   2.0000      -0.212285        -5.7766 
  28   0.0000       0.009874         0.2687 
  29   0.0000       0.042865         1.1664 
  30   0.0000       0.055826         1.5191 
  31   0.0000       0.067351         1.8327 
  32   0.0000       0.072242         1.9658 
  33   0.0000       0.095504         2.5988 
  34   0.0000       0.107592         2.9277 
  35   0.0000       0.109109         2.9690 
  36   0.0000       0.127556         3.4710 
  37   0.0000       0.129869         3.5339 
  38   0.0000       0.149032         4.0554 
*Only the first 10 virtual orbitals were printed.

                    ********************************
                    * MULLIKEN POPULATION ANALYSIS *
                    ********************************

-----------------------
MULLIKEN ATOMIC CHARGES
-----------------------
   0 N :   -0.270373
   1 C :   -0.144878
   2 C :   -0.203859
   3 C :   -0.203785
   4 C :    0.213352
   5 O :   -0.693377
   6 O :   -0.488272
   7 H :    0.341722
   8 H :    0.338370
   9 H :    0.159532
  10 H :    0.156885
  11 H :    0.124101
  12 H :    0.130640
  13 H :    0.123996
  14 H :    0.087132
  15 H :    0.328814
Sum of atomic charges:   -0.0000000

--------------------------------
MULLIKEN REDUCED ORBITAL CHARGES
--------------------------------
  0 N s       :     3.452364  s :     3.452364
      pz      :     1.269908  p :     3.769581
      px      :     1.273712
      py      :     1.225960
      dz2     :     0.016290  d :     0.046116
      dxz     :     0.002167
      dyz     :     0.005792
      dx2y2   :     0.007072
      dxy     :     0.014794
      f0      :     0.000476  f :     0.002313
      f+1     :     0.000109
      f-1     :     0.000536
      f+2     :     0.000116
      f-2     :     0.000238
      f+3     :     0.000409
      f-3     :     0.000429

  1 C s       :     3.250800  s :     3.250800
      pz      :     0.894123  p :     2.784589
      px      :     1.077857
      py      :     0.812609
      dz2     :     0.020313  d :     0.101310
      dxz     :     0.019481
      dyz     :     0.029914
      dx2y2   :     0.013977
      dxy     :     0.017625
      f0      :     0.001436  f :     0.008180
      f+1     :     0.000868
      f-1     :     0.002071
      f+2     :     0.001006
      f-2     :     0.000853
      f+3     :     0.000982
      f-3     :     0.000963

  2 C s       :     3.238584  s :     3.238584
      pz      :     0.886676  p :     2.870255
      px      :     0.999082
      py      :     0.984498
      dz2     :     0.024185  d :     0.089256
      dxz     :     0.016095
      dyz     :     0.020094
      dx2y2   :     0.021998
      dxy     :     0.006884
      f0      :     0.001289  f :     0.005763
      f+1     :     0.001182
      f-1     :     0.001094
      f+2     :     0.000536
      f-2     :     0.000284
      f+3     :     0.000577
      f-3     :     0.000802

  3 C s       :     3.202402  s :     3.202402
      pz      :     1.020198  p :     2.918349
      px      :     0.933977
      py      :     0.964174
      dz2     :     0.015511  d :     0.077442
      dxz     :     0.015981
      dyz     :     0.007626
      dx2y2   :     0.026522
      dxy     :     0.011802
      f0      :     0.000868  f :     0.005591
      f+1     :     0.000824
      f-1     :     0.000441
      f+2     :     0.001065
      f-2     :     0.000390
      f+3     :     0.000865
      f-3     :     0.001139

  4 C s       :     3.041486  s :     3.041486
      pz      :     0.768647  p :     2.515432
      px      :     0.972938
      py      :     0.773847
      dz2     :     0.052519  d :     0.205163
      dxz     :     0.058345
      dyz     :     0.058280
      dx2y2   :     0.016713
      dxy     :     0.019307
      f0      :     0.007694  f :     0.024567
      f+1     :     0.004114
      f-1     :     0.002494
      f+2     :     0.004510
      f-2     :     0.003768
      f+3     :     0.000954
      f-3     :     0.001033

  5 O s       :     3.807172  s :     3.807172
      pz      :     1.516824  p :     4.861881
      px      :     1.727431
      py      :     1.617626
      dz2     :     0.007031  d :     0.022952
      dxz     :     0.007947
      dyz     :     0.004933
      dx2y2   :     0.001384
      dxy     :     0.001657
      f0      :     0.000295  f :     0.001372
      f+1     :     0.000486
      f-1     :     0.000194
      f+2     :     0.000175
      f-2     :     0.000196
      f+3     :     0.000013
      f-3     :     0.000012

  6 O s       :     3.757548  s :     3.757548
      pz      :     1.482932  p :     4.701449
      px      :     1.683257
      py      :     1.535259
      dz2     :     0.008117  d :     0.027493
      dxz     :     0.007830
      dyz     :     0.006759
      dx2y2   :     0.002044
      dxy     :     0.002742
      f0      :     0.000449  f :     0.001783
      f+1     :     0.000454
      f-1     :     0.000262
      f+2     :     0.000242
      f-2     :     0.000325
      f+3     :     0.000022
      f-3     :     0.000028

  7 H s       :     0.626757  s :     0.626757
      pz      :     0.019826  p :     0.031521
      px      :     0.005699
      py      :     0.005996

  8 H s       :     0.630055  s :     0.630055
      pz      :     0.005786  p :     0.031575
      px      :     0.018649
      py      :     0.007139

  9 H s       :     0.819634  s :     0.819634
      pz      :     0.004799  p :     0.020834
      px      :     0.007102
      py      :     0.008933

 10 H s       :     0.821364  s :     0.821364
      pz      :     0.003945  p :     0.021750
      px      :     0.013438
      py      :     0.004367

 11 H s       :     0.854791  s :     0.854791
      pz      :     0.005870  p :     0.021108
      px      :     0.004133
      py      :     0.011105

 12 H s       :     0.848467  s :     0.848467
      pz      :     0.003988  p :     0.020894
      px      :     0.012501
      py      :     0.004404

 13 H s       :     0.854887  s :     0.854887
      pz      :     0.005194  p :     0.021117
      px      :     0.004226
      py      :     0.011698

 14 H s       :     0.891285  s :     0.891285
      pz      :     0.012561  p :     0.021583
      px      :     0.004924
      py      :     0.004097

 15 H s       :     0.638812  s :     0.638812
      pz      :     0.006773  p :     0.032374
      px      :     0.012026
      py      :     0.013575



                     *******************************
                     * LOEWDIN POPULATION ANALYSIS *
                     *******************************

----------------------
LOEWDIN ATOMIC CHARGES
----------------------
   0 N :    0.180008
   1 C :   -0.273755
   2 C :   -0.253565
   3 C :   -0.255491
   4 C :   -0.643898
   5 O :   -0.295867
   6 O :   -0.060565
   7 H :    0.241027
   8 H :    0.239365
   9 H :    0.151727
  10 H :    0.147271
  11 H :    0.153877
  12 H :    0.147276
  13 H :    0.146239
  14 H :    0.146024
  15 H :    0.230327

-------------------------------
LOEWDIN REDUCED ORBITAL CHARGES
-------------------------------
  0 N s       :     2.983519  s :     2.983519
      pz      :     1.217016  p :     3.666978
      px      :     1.215054
      py      :     1.234909
      dz2     :     0.051322  d :     0.159316
      dxz     :     0.007327
      dyz     :     0.025201
      dx2y2   :     0.027385
      dxy     :     0.048081
      f0      :     0.000969  f :     0.010178
      f+1     :     0.000842
      f-1     :     0.002142
      f+2     :     0.001392
      f-2     :     0.001955
      f+3     :     0.001487
      f-3     :     0.001391

  1 C s       :     2.803914  s :     2.803914
      pz      :     1.004379  p :     2.984909
      px      :     1.071418
      py      :     0.909112
      dz2     :     0.102681  d :     0.434095
      dxz     :     0.065543
      dyz     :     0.121245
      dx2y2   :     0.065493
      dxy     :     0.079133
      f0      :     0.006677  f :     0.050837
      f+1     :     0.006370
      f-1     :     0.011412
      f+2     :     0.008263
      f-2     :     0.007794
      f+3     :     0.005228
      f-3     :     0.005092

  2 C s       :     2.792880  s :     2.792880
      pz      :     0.997770  p :     3.043242
      px      :     1.016688
      py      :     1.028785
      dz2     :     0.102195  d :     0.380901
      dxz     :     0.062414
      dyz     :     0.089357
      dx2y2   :     0.089903
      dxy     :     0.037031
      f0      :     0.005823  f :     0.036541
      f+1     :     0.008102
      f-1     :     0.006181
      f+2     :     0.004939
      f-2     :     0.004086
      f+3     :     0.003175
      f-3     :     0.004234

  3 C s       :     2.792623  s :     2.792623
      pz      :     1.021003  p :     3.063355
      px      :     1.026047
      py      :     1.016305
      dz2     :     0.076033  d :     0.362734
      dxz     :     0.067819
      dyz     :     0.044578
      dx2y2   :     0.108292
      dxy     :     0.066012
      f0      :     0.004627  f :     0.036778
      f+1     :     0.005708
      f-1     :     0.002626
      f+2     :     0.006456
      f-2     :     0.004355
      f+3     :     0.005708
      f-3     :     0.007296

  4 C s       :     2.785036  s :     2.785036
      pz      :     0.971148  p :     2.733573
      px      :     1.012846
      py      :     0.749579
      dz2     :     0.302279  d :     0.969355
      dxz     :     0.287655
      dyz     :     0.196895
      dx2y2   :     0.098647
      dxy     :     0.083879
      f0      :     0.047711  f :     0.155933
      f+1     :     0.026225
      f-1     :     0.012900
      f+2     :     0.031145
      f-2     :     0.027973
      f+3     :     0.005020
      f-3     :     0.004959

  5 O s       :     3.499896  s :     3.499896
      pz      :     1.544075  p :     4.744500
      px      :     1.663252
      py      :     1.537173
      dz2     :     0.016805  d :     0.047726
      dxz     :     0.017696
      dyz     :     0.007842
      dx2y2   :     0.003048
      dxy     :     0.002335
      f0      :     0.001011  f :     0.003744
      f+1     :     0.001338
      f-1     :     0.000470
      f+2     :     0.000483
      f-2     :     0.000357
      f+3     :     0.000043
      f-3     :     0.000042

  6 O s       :     3.403901  s :     3.403901
      pz      :     1.552144  p :     4.584649
      px      :     1.600053
      py      :     1.432452
      dz2     :     0.022889  d :     0.065972
      dxz     :     0.023206
      dyz     :     0.010786
      dx2y2   :     0.005594
      dxy     :     0.003498
      f0      :     0.001735  f :     0.006043
      f+1     :     0.001975
      f-1     :     0.000626
      f+2     :     0.000935
      f-2     :     0.000590
      f+3     :     0.000114
      f-3     :     0.000068

  7 H s       :     0.664830  s :     0.664830
      pz      :     0.059372  p :     0.094144
      px      :     0.016465
      py      :     0.018307

  8 H s       :     0.666357  s :     0.666357
      pz      :     0.016899  p :     0.094277
      px      :     0.057329
      py      :     0.020050

  9 H s       :     0.790813  s :     0.790813
      pz      :     0.013317  p :     0.057460
      px      :     0.021448
      py      :     0.022695

 10 H s       :     0.792131  s :     0.792131
      pz      :     0.011523  p :     0.060598
      px      :     0.037013
      py      :     0.012061

 11 H s       :     0.789888  s :     0.789888
      pz      :     0.015491  p :     0.056235
      px      :     0.012266
      py      :     0.028478

 12 H s       :     0.796129  s :     0.796129
      pz      :     0.011600  p :     0.056595
      px      :     0.031678
      py      :     0.013317

 13 H s       :     0.796345  s :     0.796345
      pz      :     0.016022  p :     0.057417
      px      :     0.012401
      py      :     0.028994

 14 H s       :     0.798327  s :     0.798327
      pz      :     0.031138  p :     0.055649
      px      :     0.012883
      py      :     0.011628

 15 H s       :     0.673776  s :     0.673776
      pz      :     0.020093  p :     0.095897
      px      :     0.036849
      py      :     0.038955



                      *****************************
                      * MAYER POPULATION ANALYSIS *
                      *****************************

  NA   - Mulliken gross atomic population
  ZA   - Total nuclear charge
  QA   - Mulliken gross atomic charge
  VA   - Mayer's total valence
  BVA  - Mayer's bonded valence
  FA   - Mayer's free valence

  ATOM       NA         ZA         QA         VA         BVA        FA
  0 N      7.2704     7.0000    -0.2704     3.5215     3.5215    -0.0000
  1 C      6.1449     6.0000    -0.1449     3.8066     3.8066    -0.0000
  2 C      6.2039     6.0000    -0.2039     3.8593     3.8593     0.0000
  3 C      6.2038     6.0000    -0.2038     3.5885     3.5885    -0.0000
  4 C      5.7866     6.0000     0.2134     4.5864     4.5864    -0.0000
  5 O      8.6934     8.0000    -0.6934     1.7169     1.7169    -0.0000
  6 O      8.4883     8.0000    -0.4883     1.8793     1.8793    -0.0000
  7 H      0.6583     1.0000     0.3417     0.8797     0.8797    -0.0000
  8 H      0.6616     1.0000     0.3384     0.8846     0.8846    -0.0000
  9 H      0.8405     1.0000     0.1595     0.9577     0.9577    -0.0000
 10 H      0.8431     1.0000     0.1569     0.9907     0.9907    -0.0000
 11 H      0.8759     1.0000     0.1241     0.9732     0.9732    -0.0000
 12 H      0.8694     1.0000     0.1306     0.9635     0.9635     0.0000
 13 H      0.8760     1.0000     0.1240     0.9718     0.9718    -0.0000
 14 H      0.9129     1.0000     0.0871     1.0126     1.0126    -0.0000
 15 H      0.6712     1.0000     0.3288     0.9030     0.9030    -0.0000

  Mayer bond orders larger than 0.100000
B(  0-N ,  1-C ) :   0.9032 B(  0-N ,  7-H ) :   0.8672 B(  0-N ,  8-H ) :   0.8648 
B(  0-N , 15-H ) :   0.8668 B(  1-C ,  2-C ) :   0.9824 B(  1-C ,  9-H ) :   0.9527 
B(  1-C , 10-H ) :   0.9519 B(  2-C ,  3-C ) :   0.9447 B(  2-C , 11-H ) :   0.9586 
B(  2-C , 12-H ) :   0.9631 B(  3-C ,  4-C ) :   0.9173 B(  3-C , 13-H ) :   0.9504 
B(  3-C , 14-H ) :   0.9528 B(  4-C ,  5-O ) :   1.7530 B(  4-C ,  6-O ) :   1.8774 


-------
TIMINGS
-------

Total SCF time: 0 days 0 hours 0 min 14 sec 

Total time                  ....      14.520 sec
Sum of individual times     ....      14.463 sec  ( 99.6%)

SCF preparation             ....       0.369 sec  (  2.5%)
Fock matrix formation       ....      13.671 sec  ( 94.2%)
  Startup                   ....       0.026 sec  (  0.2% of F)
  Split-RI-J                ....       0.971 sec  (  7.1% of F)
  Chain of spheres X        ....       9.182 sec  ( 67.2% of F)
  XC integration            ....       2.059 sec  ( 15.1% of F)
    Basis function eval.    ....       0.582 sec  ( 28.3% of XC)
    Density eval.           ....       0.473 sec  ( 23.0% of XC)
    XC-Functional eval.     ....       0.090 sec  (  4.3% of XC)
    XC-Potential eval.      ....       0.796 sec  ( 38.7% of XC)
  CPCM terms                ....       1.351 sec  (  9.9% of F)
Diagonalization             ....       0.000 sec  (  0.0%)
Density matrix formation    ....       0.055 sec  (  0.4%)
Total Energy calculation    ....       0.039 sec  (  0.3%)
Population analysis         ....       0.017 sec  (  0.1%)
Orbital Transformation      ....       0.033 sec  (  0.2%)
Orbital Orthonormalization  ....       0.000 sec  (  0.0%)
DIIS solution               ....       0.173 sec  (  1.2%)
SOSCF solution              ....       0.105 sec  (  0.7%)
Finished LeanSCF after  14.6 sec

Maximum memory used throughout the entire LEANSCF-calculation: 27.7 MB


-------------------------------------------------------------------------------
                          DFT DISPERSION CORRECTION                            
                                                                               
                                DFTD4 V3.4.0                                   
-------------------------------------------------------------------------------
The B3LYP functional is recognized
Active option DFTDOPT                   ...         5   

-------------------------   ----------------
Dispersion correction           -0.019150773
-------------------------   ----------------


-------------------------   --------------------
FINAL SINGLE POINT ENERGY      -363.024404756749
-------------------------   --------------------

--------------------------------------------------------------------------
WARNING: There was an error initializing an OpenFabrics device.

  Local host:   ga01
  Local device: mlx5_0
--------------------------------------------------------------------------


           ************************************************************
           *        Program running with 6 parallel MPI-processes     *
           *              working on a common directory               *
           ************************************************************
------------------------------------------------------------------------------
                         ORCA SCF GRADIENT CALCULATION
------------------------------------------------------------------------------

Nuc. rep. gradient        (SHARK) ... done (  0.0 sec)
HCore & Overlap gradient  (SHARK) ... done (  0.1 sec)
Split-RIJ-J gradient      (SHARK) ... done (  0.3 sec)
COSX-gradient                     ... [ga01:1276410] 5 more processes have sent help message help-mpi-btl-openib.txt / error in device init
[ga01:1276410] Set MCA parameter "orte_base_help_aggregate" to 0 to see all help / error messages
done (  5.8 sec)
XC gradient                       ... done (  0.8 sec)
CPCM gradient                     ... done (  0.4 sec)
Dispersion correction             ... done (  0.0 sec)

-------------------
DISPERSION GRADIENT
-------------------

   1   N   :   -0.000320697   -0.000104774    0.000670938
   2   C   :   -0.000273217    0.000303403    0.000363580
   3   C   :   -0.000425197    0.000219402   -0.000134587
   4   C   :   -0.000046061   -0.000175380   -0.000449295
   5   C   :    0.000453006   -0.000078323   -0.000395081
   6   O   :    0.000372114   -0.000009625   -0.000353679
   7   O   :    0.000761579   -0.000073453   -0.000033360
   8   H   :   -0.000011623   -0.000011006    0.000249155
   9   H   :   -0.000164255   -0.000082225    0.000114024
  10   H   :   -0.000057253    0.000076959    0.000092775
  11   H   :   -0.000003449    0.000066126    0.000127317
  12   H   :   -0.000101607    0.000143169   -0.000073423
  13   H   :   -0.000141859    0.000044189   -0.000068400
  14   H   :   -0.000010818   -0.000144612   -0.000104504
  15   H   :   -0.000032148   -0.000042823   -0.000156779
  16   H   :    0.000001485   -0.000131025    0.000151319

Difference to translation invariance:
           :    0.0000000000    0.0000000000    0.0000000000

Difference to rotation invariance:
           :    0.0000000000   -0.0000000000    0.0000000000

Norm of the Dispersion gradient    ...    0.0016947484
RMS gradient                       ...    0.0002446159
MAX gradient                       ...    0.0007615790

------------------
CARTESIAN GRADIENT
------------------

   1   N   :    0.001171257    0.013950639   -0.016352502
   2   C   :   -0.003964066   -0.039735519    0.019657328
   3   C   :    0.004758742    0.000225427   -0.001635421
   4   C   :    0.013974643    0.003811521    0.015611134
   5   C   :   -0.047975625   -0.008632578    0.081122226
   6   O   :    0.045148252    0.009296438   -0.041818594
   7   O   :   -0.005378633    0.001464512   -0.044861022
   8   H   :    0.004001010    0.009051175    0.016637092
   9   H   :   -0.018525003   -0.001165996   -0.005116753
  10   H   :   -0.006992417    0.013160813    0.000961460
  11   H   :    0.012507648    0.010062434    0.000292512
  12   H   :    0.002783407    0.009676562   -0.008274678
  13   H   :   -0.009902846   -0.004651209   -0.000570906
  14   H   :   -0.002573479   -0.008552914    0.003460791
  15   H   :   -0.002556637    0.001774036   -0.013007821
  16   H   :    0.013523747   -0.009735343   -0.006104845

Difference to translation invariance:
           :    0.0000000000    0.0000000000    0.0000000000

Difference to rotation invariance:
           :    0.0000121516   -0.0004245915   -0.0006688099

Norm of the Cartesian gradient     ...    0.1410645175
RMS gradient                       ...    0.0203609093
MAX gradient                       ...    0.0811222258

-------
TIMINGS
-------

Total SCF gradient time     ....        7.468 sec

Densities                   ....       0.001 sec  (  0.0%)
One electron gradient       ....       0.056 sec  (  0.8%)
RI-J Coulomb gradient       ....       0.350 sec  (  4.7%)
COSX gradient               ....       5.843 sec  ( 78.2%)
XC gradient                 ....       0.788 sec  ( 10.6%)
CPCM gradient               ....       0.405 sec  (  5.4%)
   A-Matrix (El+Nuc)        ....       0.053 sec  (  0.7%)
   Potential                ....       0.352 sec  (  4.7%)

Maximum memory used throughout the entire SCFGRAD-calculation: 35.4 MB
------------------------------------------------------------------------------
                         ORCA GEOMETRY RELAXATION STEP
------------------------------------------------------------------------------

Reading the OPT-File                    .... done
Getting information on internals        .... done
Copying old internal coords+grads       .... done
Making the new internal coordinates     .... (2022 redundants) done
Validating the new internal coordinates .... (2022 redundants) done
Calculating the B-matrix                .... done
Calculating the G,G- and P matrices     .... done
Transforming gradient to internals      .... done
Projecting the internal gradient        .... done
Number of atoms                         ....  16
Number of internal coordinates          ....  65
Current Energy                          ....  -363.024404757 Eh
Current gradient norm                   ....     0.141064517 Eh/bohr
Maximum allowed component of the step   ....  0.300
Current trust radius                    ....  0.300
Evaluating the initial hessian          ....  (Almloef) done
Projecting the Hessian                  .... done
Forming the augmented Hessian           .... done
Diagonalizing the augmented Hessian     .... done
Last element of RFO vector              ....  0.971075538
Lowest eigenvalues of augmented Hessian:
 -0.018002228  0.010323910  0.010520271  0.012429276  0.012948250
Length of the computed step             ....  0.245884564
The final length of the internal step   ....  0.245884564
Converting the step to Cartesian space:
 Initial RMS(Int)=    0.0304982266
Transforming coordinates:
 Iter   0:  RMS(Cart)=    0.0559482130 RMS(Int)=    0.7756654576
 Iter   5:  RMS(Cart)=    0.0000000138 RMS(Int)=    0.0000000085
done
Storing new coordinates                 .... done

                                .--------------------.
          ----------------------|Geometry convergence|-------------------------
          Item                value                   Tolerance       Converged
          ---------------------------------------------------------------------
          RMS gradient        0.0119647900            0.0000300000      NO
          MAX gradient        0.0591513884            0.0001000000      NO
          RMS step            0.0304982266            0.0006000000      NO
          MAX step            0.0877792298            0.0010000000      NO
          ........................................................
          Max(Bonds)      0.0465      Max(Angles)    3.75
          Max(Dihed)        3.52      Max(Improp)    0.00
          ---------------------------------------------------------------------

The optimization has not yet converged - more geometry cycles are needed


    ---------------------------------------------------------------------------
                         Redundant Internal Coordinates
                            (Angstroem and degrees)

        Definition                    Value    dE/dq     Step     New-Value
    ----------------------------------------------------------------------------
     1. B(C   1,N   0)                1.4639 -0.015847  0.0189    1.4827   
     2. B(C   2,C   1)                1.5415  0.009559 -0.0134    1.5280   
     3. B(C   3,C   2)                1.5404  0.000673 -0.0009    1.5395   
     4. B(C   4,C   3)                1.5050 -0.007611  0.0094    1.5144   
     5. B(O   5,C   4)                1.3468  0.059151 -0.0465    1.3003   
     6. B(O   6,C   4)                1.2203 -0.041144  0.0205    1.2408   
     7. B(H   7,N   0)                1.0456  0.018441 -0.0245    1.0211   
     8. B(H   8,N   0)                1.0458  0.018464 -0.0246    1.0212   
     9. B(H   9,C   1)                1.1127  0.014018 -0.0212    1.0915   
    10. B(H  10,C   1)                1.1100  0.014924 -0.0224    1.0876   
    11. B(H  11,C   2)                1.1120  0.012654 -0.0191    1.0928   
    12. B(H  12,C   2)                1.1119  0.010755 -0.0162    1.0957   
    13. B(H  13,C   3)                1.1098  0.009513 -0.0143    1.0955   
    14. B(H  14,C   3)                1.1118  0.013083 -0.0198    1.0920   
    15. B(H  15,N   0)                1.0446  0.017343 -0.0230    1.0216   
    16. A(H   8,N   0,H  15)          110.06  0.005297   -1.13    108.93   
    17. A(H   7,N   0,H   8)          108.79  0.005158   -0.78    108.02   
    18. A(C   1,N   0,H   8)          110.22 -0.005096    0.85    111.07   
    19. A(C   1,N   0,H  15)          110.66 -0.002344    0.38    111.03   
    20. A(C   1,N   0,H   7)          108.91 -0.006965    1.29    110.19   
    21. A(H   7,N   0,H  15)          108.15  0.004131   -0.63    107.51   
    22. A(H   9,C   1,H  10)          106.95 -0.002295    0.99    107.94   
    23. A(C   2,C   1,H  10)          110.88 -0.002001    0.17    111.05   
    24. A(N   0,C   1,H  10)          109.85  0.004743   -1.47    108.37   
    25. A(C   2,C   1,H   9)          107.81 -0.003148    1.14    108.94   
    26. A(N   0,C   1,C   2)          112.40 -0.000209   -0.22    112.18   
    27. A(N   0,C   1,H   9)          108.77  0.002729   -0.50    108.27   
    28. A(C   1,C   2,H  11)          108.45  0.004646   -1.09    107.36   
    29. A(C   3,C   2,H  12)          107.97 -0.002183    0.51    108.47   
    30. A(C   1,C   2,H  12)          108.11 -0.000546    0.40    108.51   
    31. A(C   3,C   2,H  11)          108.62 -0.002722    0.44    109.06   
    32. A(C   1,C   2,C   3)          115.81 -0.001334    0.26    116.07   
    33. A(H  11,C   2,H  12)          107.60  0.002417   -0.58    107.03   
    34. A(H  13,C   3,H  14)          107.20  0.001487   -0.09    107.11   
    35. A(C   2,C   3,C   4)          113.61 -0.000146   -0.06    113.55   
    36. A(C   4,C   3,H  14)          108.17 -0.003410    0.84    109.01   
    37. A(C   2,C   3,H  14)          107.24  0.000238    0.32    107.56   
    38. A(C   4,C   3,H  13)          109.58  0.001910   -0.75    108.83   
    39. A(C   2,C   3,H  13)          110.77 -0.000120   -0.21    110.57   
    40. A(O   5,C   4,O   6)          119.39 -0.030633    3.75    123.14   
    41. A(C   3,C   4,O   6)          120.76  0.012401   -1.34    119.41   
    42. A(C   3,C   4,O   5)          119.82  0.018172   -2.24    117.58   
    43. D(H   9,C   1,N   0,H   8)     62.97 -0.002137    0.98     63.95   
    44. D(H   9,C   1,N   0,H   7)    -56.31 -0.001109    0.63    -55.68   
    45. D(H   9,C   1,N   0,H  15)   -175.06 -0.000463    0.38   -174.67   
    46. D(C   2,C   1,N   0,H  15)     65.65  0.001782   -0.57     65.08   
    47. D(C   2,C   1,N   0,H   7)   -175.61  0.001136   -0.32   -175.93   
    48. D(C   2,C   1,N   0,H   8)    -56.33  0.000108    0.03    -56.30   
    49. D(C   3,C   2,C   1,N   0)    -60.35 -0.002201    1.91    -58.44   
    50. D(H  11,C   2,C   1,H  10)    -59.33  0.003209    0.06    -59.28   
    51. D(H  11,C   2,C   1,H   9)     57.43 -0.002514    2.01     59.43   
    52. D(H  11,C   2,C   1,N   0)    177.28 -0.001332    2.01    179.29   
[...]
      py      :     1.235711
      dz2     :     0.045324  d :     0.150543
      dxz     :     0.011843
      dyz     :     0.024353
      dx2y2   :     0.020881
      dxy     :     0.048141
      f0      :     0.001360  f :     0.009848
      f+1     :     0.000541
      f-1     :     0.001934
      f+2     :     0.001611
      f-2     :     0.001533
      f+3     :     0.001066
      f-3     :     0.001804

  1 C s       :     2.799383  s :     2.799383
      pz      :     1.010242  p :     2.973739
      px      :     1.068060
      py      :     0.895438
      dz2     :     0.096193  d :     0.428496
      dxz     :     0.071162
      dyz     :     0.117115
      dx2y2   :     0.051185
      dxy     :     0.092841
      f0      :     0.006911  f :     0.049853
      f+1     :     0.005660
      f-1     :     0.011368
      f+2     :     0.008844
      f-2     :     0.006285
      f+3     :     0.004343
      f-3     :     0.006443

  2 C s       :     2.782353  s :     2.782353
      pz      :     1.004637  p :     3.050234
      px      :     1.020368
      py      :     1.025229
      dz2     :     0.100604  d :     0.384474
      dxz     :     0.062609
      dyz     :     0.090185
      dx2y2   :     0.092308
      dxy     :     0.038768
      f0      :     0.006110  f :     0.037674
      f+1     :     0.008444
      f-1     :     0.006080
      f+2     :     0.004719
      f-2     :     0.004558
      f+3     :     0.003377
      f-3     :     0.004385

  3 C s       :     2.792915  s :     2.792915
      pz      :     1.026409  p :     3.064572
      px      :     1.017411
      py      :     1.020752
      dz2     :     0.092119  d :     0.351776
      dxz     :     0.053018
      dyz     :     0.033806
      dx2y2   :     0.099000
      dxy     :     0.073833
      f0      :     0.004822  f :     0.035732
      f+1     :     0.003951
      f-1     :     0.003160
      f+2     :     0.006764
      f-2     :     0.004839
      f+3     :     0.006574
      f-3     :     0.005623

  4 C s       :     2.779205  s :     2.779205
      pz      :     0.939391  p :     2.714414
      px      :     1.009763
      py      :     0.765260
      dz2     :     0.290578  d :     0.994838
      dxz     :     0.267997
      dyz     :     0.189587
      dx2y2   :     0.137778
      dxy     :     0.108897
      f0      :     0.029970  f :     0.158487
      f+1     :     0.039114
      f-1     :     0.020657
      f+2     :     0.025549
      f-2     :     0.022285
      f+3     :     0.010088
      f-3     :     0.010823

  5 O s       :     3.425362  s :     3.425362
      pz      :     1.564751  p :     4.605371
      px      :     1.597621
      py      :     1.442999
      dz2     :     0.013946  d :     0.060420
      dxz     :     0.019420
      dyz     :     0.009849
      dx2y2   :     0.009172
      dxy     :     0.008033
      f0      :     0.000784  f :     0.005389
      f+1     :     0.001327
      f-1     :     0.000543
      f+2     :     0.001001
      f-2     :     0.001071
      f+3     :     0.000307
      f-3     :     0.000356

  6 O s       :     3.428049  s :     3.428049
      pz      :     1.462263  p :     4.626908
      px      :     1.649044
      py      :     1.515602
      dz2     :     0.019767  d :     0.060696
      dxz     :     0.019656
      dyz     :     0.014071
      dx2y2   :     0.004004
      dxy     :     0.003198
      f0      :     0.001385  f :     0.004986
      f+1     :     0.001209
      f-1     :     0.001226
      f+2     :     0.000564
      f-2     :     0.000490
      f+3     :     0.000061
      f-3     :     0.000051

  7 H s       :     0.687779  s :     0.687779
      pz      :     0.061119  p :     0.102734
      px      :     0.021471
      py      :     0.020143

  8 H s       :     0.688019  s :     0.688019
      pz      :     0.018953  p :     0.102740
      px      :     0.047949
      py      :     0.035839

  9 H s       :     0.797082  s :     0.797082
      pz      :     0.016404  p :     0.060854
      px      :     0.027583
      py      :     0.016867

 10 H s       :     0.794821  s :     0.794821
      pz      :     0.012639  p :     0.061035
      px      :     0.031080
      py      :     0.017316

 11 H s       :     0.792113  s :     0.792113
      pz      :     0.016543  p :     0.059246
      px      :     0.013728
      py      :     0.028976

 12 H s       :     0.796739  s :     0.796739
      pz      :     0.012603  p :     0.059416
      px      :     0.032759
      py      :     0.014053

 13 H s       :     0.797335  s :     0.797335
      pz      :     0.014865  p :     0.059908
      px      :     0.015711
      py      :     0.029333

 14 H s       :     0.800398  s :     0.800398
      pz      :     0.033851  p :     0.059468
      px      :     0.012463
      py      :     0.013154

 15 H s       :     0.653770  s :     0.653770
      pz      :     0.042487  p :     0.160056
      px      :     0.093674
      py      :     0.023895



                      *****************************
                      * MAYER POPULATION ANALYSIS *
                      *****************************

  NA   - Mulliken gross atomic population
  ZA   - Total nuclear charge
  QA   - Mulliken gross atomic charge
  VA   - Mayer's total valence
  BVA  - Mayer's bonded valence
  FA   - Mayer's free valence

  ATOM       NA         ZA         QA         VA         BVA        FA
  0 N      7.2837     7.0000    -0.2837     3.3997     3.3997    -0.0000
  1 C      6.1506     6.0000    -0.1506     3.8696     3.8696    -0.0000
  2 C      6.1938     6.0000    -0.1938     3.8655     3.8655    -0.0000
  3 C      6.2409     6.0000    -0.2409     3.6793     3.6793    -0.0000
  4 C      5.7247     6.0000     0.2753     4.4701     4.4701    -0.0000
  5 O      8.5296     8.0000    -0.5296     1.9059     1.9059    -0.0000
  6 O      8.5729     8.0000    -0.5729     1.7902     1.7902     0.0000
  7 H      0.6898     1.0000     0.3102     0.9026     0.9026     0.0000
  8 H      0.6947     1.0000     0.3053     0.9075     0.9075    -0.0000
  9 H      0.8453     1.0000     0.1547     0.9637     0.9637    -0.0000
 10 H      0.8472     1.0000     0.1528     0.9675     0.9675     0.0000
 11 H      0.8797     1.0000     0.1203     0.9698     0.9698    -0.0000
 12 H      0.8769     1.0000     0.1231     0.9632     0.9632    -0.0000
 13 H      0.8841     1.0000     0.1159     0.9712     0.9712    -0.0000
 14 H      0.9000     1.0000     0.1000     0.9931     0.9931    -0.0000
 15 H      0.6862     1.0000     0.3138     0.9706     0.9706    -0.0000

  Mayer bond orders larger than 0.100000
B(  0-N ,  1-C ) :   0.9048 B(  0-N ,  7-H ) :   0.8862 B(  0-N ,  8-H ) :   0.8848 
B(  0-N , 15-H ) :   0.7414 B(  1-C ,  2-C ) :   0.9872 B(  1-C ,  9-H ) :   0.9622 
B(  1-C , 10-H ) :   0.9635 B(  2-C ,  3-C ) :   0.9519 B(  2-C , 11-H ) :   0.9641 
B(  2-C , 12-H ) :   0.9593 B(  3-C ,  4-C ) :   0.9432 B(  3-C , 13-H ) :   0.9448 
B(  3-C , 14-H ) :   0.9560 B(  4-C ,  5-O ) :   1.9005 B(  4-C ,  6-O ) :   1.5868 
B(  6-O , 15-H ) :   0.2183 

-------
TIMINGS
-------

Total SCF time: 0 days 0 hours 0 min 6 sec 

Total time                  ....       6.912 sec
Sum of individual times     ....       6.874 sec  ( 99.4%)

SCF preparation             ....       0.381 sec  (  5.5%)
Fock matrix formation       ....       6.314 sec  ( 91.4%)
  Startup                   ....       0.012 sec  (  0.2% of F)
  Split-RI-J                ....       0.312 sec  (  4.9% of F)
  Chain of spheres X        ....       4.895 sec  ( 77.5% of F)
  XC integration            ....       0.662 sec  ( 10.5% of F)
    Basis function eval.    ....       0.176 sec  ( 26.7% of XC)
    Density eval.           ....       0.163 sec  ( 24.6% of XC)
    XC-Functional eval.     ....       0.027 sec  (  4.1% of XC)
    XC-Potential eval.      ....       0.245 sec  ( 37.0% of XC)
  CPCM terms                ....       0.411 sec  (  6.5% of F)
Diagonalization             ....       0.000 sec  (  0.0%)
Density matrix formation    ....       0.016 sec  (  0.2%)
Total Energy calculation    ....       0.015 sec  (  0.2%)
Population analysis         ....       0.055 sec  (  0.8%)
Orbital Transformation      ....       0.016 sec  (  0.2%)
Orbital Orthonormalization  ....       0.000 sec  (  0.0%)
DIIS solution               ....       0.021 sec  (  0.3%)
SOSCF solution              ....       0.056 sec  (  0.8%)
Finished LeanSCF after   7.0 sec

Maximum memory used throughout the entire LEANSCF-calculation: 30.5 MB


-------------------------------------------------------------------------------
                          DFT DISPERSION CORRECTION                            
                                                                               
                                DFTD4 V3.4.0                                   
-------------------------------------------------------------------------------
The B3LYP functional is recognized
Active option DFTDOPT                   ...         5   

-------------------------   ----------------
Dispersion correction           -0.020306994
-------------------------   ----------------


-------------------------   --------------------
FINAL SINGLE POINT ENERGY      -363.049132538283
-------------------------   --------------------

                                *** OPTIMIZATION RUN DONE ***

--------------------------------------------------------------------------
WARNING: There was an error initializing an OpenFabrics device.

  Local host:   ga01
  Local device: mlx5_0
--------------------------------------------------------------------------


           ************************************************************
           *        Program running with 6 parallel MPI-processes     *
           *              working on a common directory               *
           ************************************************************

------------------------------------------------------------------------------
                              ORCA PROPERTY CALCULATIONS
------------------------------------------------------------------------------

GBWName                                 ... 04_Aminobutyric-acid_zwitterion.gbw
Number of atoms                         ...     16
Number of basis functions               ...    271
Max core memory                         ...   5000 MB

Electric properties:
Dipole moment                           ... YES
Quadrupole moment                       ...  NO
Static polarizability (Dipole/Dipole)   ...  NO
Static polarizability (Dipole/Quad.)    ...  NO
Static polarizability (Quad./Quad.)     ...  NO
Static polarizability (Velocity)        ...  NO

Atomic electric properties:
Dipole moment                           ...  NO
Quadrupole moment                       ...  NO
Static polarizability                   ...  NO

Choice of electric origin               ... Center of mass
Position of electric origin             ...     3.481547     2.004248    -2.522666

General magnetic properties:
Magnetizability                         ...  NO

EPR properties:
g-Tensor (aka g-matrix)                 ...  NO
Zero-Field splitting spin-orbit         ...  NO
Zero-field splitting spin-spin          ...  NO
Hyperfine couplings                     ...  NO (   0 nuclei)
Quadrupole couplings                    ...  NO (   0 nuclei)
Contact density                         ...  NO (   0 nuclei)

NMR properties:
Chemical shifts                         ...  NO (   0 nuclei)
Spin-rotation constants                 ...  NO (   0 nuclei)
Spin-spin couplings                     ...  NO (   0 nuclei,    0 pairs)

Choice of magnetic origin               ... GIAO
Position of magnetic origin             ...     0.000000     0.000000     0.000000

Properties with geometric perturbations:
SCF Hessian                             ...  NO
IR spectrum                             ...  NO
VCD spectrum                            ...  NO
X-ray spectroscopy properties:
SCF XES/XAS/RIXS spectra                ...  NO


-------------
DIPOLE MOMENT
-------------

Method             : SCF
Type of density    : Electron Density
Multiplicity       :   1
Irrep              :   0
Energy             :  -363.0288255443546177 Eh
Relativity type    : 
Basis              : AO
                                X                 Y                 Z
Electronic contribution:      4.554280558      -1.531198606      -0.785675912
Nuclear contribution   :     -9.233562957       1.794296870       4.303053827
                        -----------------------------------------
Total Dipole Moment    :     -4.679282399       0.263098263       3.517377915
                        -----------------------------------------
Magnitude (a.u.)       :      5.859765512
Magnitude (Debye)      :     14.894340260



--------------------
Rotational spectrum 
--------------------
 
Rotational constants in cm-1:             0.143083             0.066012             0.052562 
Rotational constants in MHz :          4289.525637          1978.983560          1575.774087 

Dipole components along the rotational axes: 
x,y,z [a.u.] :    -5.788563    -0.233025    -0.880394 
x,y,z [Debye]:   -14.713357    -0.592303    -2.237784 

 

Dipole moment calculation done in   0.0 sec 

Maximum memory used throughout the entire PROP-calculation: 16.6 MB
[ga01:1287679] 5 more processes have sent help message help-mpi-btl-openib.txt / error in device init
[ga01:1287679] Set MCA parameter "orte_base_help_aggregate" to 0 to see all help / error messages
--------------------------------------------------------------------------
WARNING: There was an error initializing an OpenFabrics device.

  Local host:   ga01
  Local device: mlx5_0
--------------------------------------------------------------------------
[ga01:1287707] 5 more processes have sent help message help-mpi-btl-openib.txt / error in device init
[ga01:1287707] Set MCA parameter "orte_base_help_aggregate" to 0 to see all help / error messages

--------------------------------
SUGGESTED CITATIONS FOR THIS RUN
--------------------------------

Below you find a list of papers that are relevant to this ORCA run
We neither can nor want to force you to cite these papers, but we appreciate if you do
You receive ORCA, which is the product of decades of hard work by many enthusiastic individuals, for free
The only thing we kindly ask in return is that you cite our papers,
We deeply appreciate it, if you show your appreciation for ORCA by not just citing the generic ORCA reference.

Please note that relegating all ORCA citations to the supporting information does *not* help us.
SI sections are not indexed - citations you put there will not count into any citation statistics
But we need these citations in order to attract the funding resources that allow us to do what we are doing

Therefore, if you are a happy ORCA user, please consider citing a few of the papers listed below in the main body of your paper

In addition to the list printed below, the program has created the file 04_Aminobutyric-acid_zwitterion.bibtex that contains the list in bibtex format
You can import this file easily into all common literature databanks and citation aid programs


List of essential papers. We consider these as the minimum necessary citations

  1. Neese,F.
     Software update: the ORCA program system, version 5.0
     WIRES Comput. Molec. Sci., 2022 12(1)e1606
     doi.org/10.1002/wcms.1606

List of papers to cite with high priority. The work reported in these papers was absolutely
necessary for this run to complete.
Our perspective: the developers of density functionals and basis sets usually get cited in chemistry papers
Good! But without the algorithms to do something with them, the functionals or basis sets would not do anything.
Hence, in our opinion, the algorithm design and method developments papers are equally worthy of getting cited

  1. Neese,F.
     An improvement of the resolution of the identity approximation for the formation of the Coulomb matrix
     J. Comp. Chem., 2003 24(14)1740-1747
     doi.org/10.1002/jcc.10318
  2. Neese,F.; Wennmohs,F.; Hansen,A.; Becker,U.
     Efficient, approximate and parallel Hartree-Fock and hybrid DFT calculations. A 'chain-of-spheres' algorithm for the Hartree-Fock exchange
     Chem. Phys., 2009 356(1-3)98-109
     doi.org/10.1016/j.chemphys.2008.10.036
  3. Garcia-Rates,M.; Neese,F.
     Effect of the Solute Cavity on the Solvation Energy and its Derivatives within the Framework of the Gaussian Charge Scheme
     J. Comput. Chem., 2020 41 922-939
     doi.org/10.1002/jcc.26139
  4. Helmich-Paris,B.; de Souza,B.; Neese,F.; Izsák,R.
     An improved chain of spheres for exchange algorithm
     J. Chem. Phys., 2021 155 104109
     doi.org/doi: 10.1063/5.0058766.
  5. Neese,F.
     The SHARK Integral Generation and Digestion System
     J. Comp. Chem., 2022  1-16
     doi.org/10.1002/jcc.26942
  6. Caldeweyher,E.; Bannwarth,C.; Grimme,S.
     Extension of the D3 dispersion coefficient model
     J. Chem. Phys., 2017 147 034112
     doi.org/10.1063/1.4993215
  7. Caldeweyher,E.; Ehlert,S.; Hansen,A.; Neugebauer,H.; Spicher,S.; Bannwarth,C.; Grimme,S.
     A generally applicable atomic-charge dependent London dispersion correction
     J. Chem. Phys., 2019 150 154122
     doi.org/10.1063/1.5090222
  8. Caldeweyher,E.; Mewes,J.; Ehlert,S.; Grimme,S.
     Extension and evaluation of the D4 London-dispersion model for periodic systems
     Phys. Chem. Chem. Phys., 2020 22(16)8499-8512
     doi.org/10.1039/D0CP00502A
  9. Wittmann,L.; Gordiy,I.; Friede,M.; Helmich-Paris,B.; Grimme,S.; Hansen,A.; Bursch,M.
     Extension of the D3 and D4 London Dispersion Corrections to the full Actinides Series
     Phys. Chem. Chem. Phys., 2024 26(32)21379-21394
     doi.org/https://doi.org/10.1039/D4CP01514B 

List of suggested additional citations. These are papers that are important in the 'surrounding' of 
of this run, or papers that preceded the highly important papers. If you like your results we are grateful for a citation.

  1. Izsak,R.; Neese,F.
     An overlap fitted chain of spheres exchange method
     J. Chem. Phys., 2011 135 144105
     doi.org/10.1063/1.3646921
  2. Izsak,R.; Hansen,A.; Neese,F.
     The resolution of identity and chain of spheres approximations for the LPNO-CCSD singles Fock term
     Molec. Phys., 2012 110 2413-2417
     doi.org/10.1080/00268976.2012.687466
  3. Neese,F.
     The ORCA program system
     WIRES Comput. Molec. Sci., 2012 2(1)73-78
     doi.org/10.1002/wcms.81
  4. Izsak,R.; Neese,F.; Klopper,W.
     Robust fitting techniques in the chain of spheres approximation to the Fock exchange: The role of the complementary space
     J. Chem. Phys., 2013 139 
     doi.org/10.1063/1.4819264
  5. Neese,F.
     Software update: the ORCA program system, version 4.0
     WIRES Comput. Molec. Sci., 2018 8(1)1-6
     doi.org/10.1002/wcms.1327
  6. Neese,F.; Wennmohs,F.; Becker,U.; Riplinger,C.
     The ORCA quantum chemistry program package
     J. Chem. Phys., 2020 152 Art. No. L224108
     doi.org/10.1063/5.0004608

List of optional additional citations

  1. Neese,F.
     Approximate second-order SCF convergence for spin unrestricted wavefunctions
     Chem. Phys. Lett., 2000 325(1-3)93-98
     doi.org/10.1016/s0009-2614(00)00662-x

Timings for individual modules:

Sum of individual times          ...      401.037 sec (=   6.684 min)
Startup calculation              ...       20.894 sec (=   0.348 min)   5.2 %
SCF iterations                   ...      229.093 sec (=   3.818 min)  57.1 %
Property calculations            ...        0.461 sec (=   0.008 min)   0.1 %
SCF Gradient evaluation          ...      150.520 sec (=   2.509 min)  37.5 %
Geometry relaxation              ...        0.068 sec (=   0.001 min)   0.0 %
                             ****ORCA TERMINATED NORMALLY****
TOTAL RUN TIME: 0 days 0 hours 6 minutes 49 seconds 541 msec
