34
 energy: -56.597886204402 gnorm: 0.176744580997 xtb: 6.7.1 (edcfbbe)
C            0.00071700000000       -0.52255800000000        0.67804400000000
C            0.00015500000000        0.09392700000000        2.05036800000000
O           -0.00019500000000       -0.63013100000000        3.03226200000000
O           -0.00079700000000        1.43155900000000        2.21643300000000
C            0.00098900000000        0.52531100000000       -0.44326000000000
N           -0.00030100000000       -0.11659100000000       -1.75665200000000
H            0.90259300000000       -1.16292800000000        0.57888800000000
H           -0.90264000000000       -1.16023800000000        0.57901700000000
H           -0.90200200000000        1.16741300000000       -0.35103700000000
H            0.90366600000000        1.16894900000000       -0.35172000000000
H           -0.85706900000000       -0.70553200000000       -1.86752300000000
H            0.85322800000000       -0.71006900000000       -1.86779500000000
H            0.00165600000000        0.62088700000000       -2.49702600000000
O           -2.34825900000000       -3.67443900000000        1.62631900000000
H           -1.83302800000000       -2.82882600000000        1.63555700000000
H           -1.89814700000000       -4.24656300000000        2.29765100000000
O           -3.42554000000000       -1.78417400000000       -0.77552600000000
H           -3.12097400000000       -0.84224200000000       -0.80030900000000
H           -2.68396300000000       -2.27327300000000       -0.33796600000000
O           -3.21512500000000        1.22482000000000       -2.48013200000000
H           -3.90099700000000        0.99085600000000       -1.80526000000000
H           -2.35234400000000        1.10233900000000       -2.00979200000000
O           -1.97845200000000       -3.80946200000000       -2.96385100000000
H           -2.46835900000000       -4.04430300000000       -2.13593000000000
H           -1.31790200000000       -3.12978000000000       -2.67693700000000
O           -3.01670800000000        1.89727500000000        1.02084400000000
H           -2.11087500000000        1.73747700000000        1.38764500000000
H           -3.63086200000000        1.56437800000000        1.72270500000000
O            0.14312800000000       -4.75013900000000        0.74822800000000
H            0.18218500000000       -4.30883200000000        1.63385500000000
H           -0.73210100000000       -4.47763000000000        0.37362600000000
O            2.44207900000000       -3.56995700000000       -1.52751600000000
H            1.62100400000000       -4.12283000000000       -1.55539500000000
H            2.34164800000000       -3.01756600000000       -0.71180200000000
34
 energy: -56.623555502223 gnorm: 0.096606706175 xtb: 6.7.1 (edcfbbe)
C            0.00186799480526       -0.50801518340119        0.66746495865290
C            0.00519134746890        0.10066617515177        2.06118974251537
O           -0.00814964708584       -0.64807375921645        3.04697435158798
O           -0.04123481171063        1.38974935623668        2.16711051673078
C            0.00248340284980        0.53425982269358       -0.44569440243478
N            0.00189860412502       -0.11591645393486       -1.76880126719344
H            0.88932754868353       -1.15076574062733        0.59596349374236
H           -0.88939758353235       -1.14593471155927        0.59269047577690
H           -0.87938017820811        1.17623324144968       -0.33729684984011
H            0.88671541729118        1.17150326277928       -0.33557793162168
H           -0.84147545744574       -0.70175578913794       -1.88385174921929
H            0.84203946448707       -0.70721682781466       -1.87884300097558
H            0.00781482757879        0.60309823968109       -2.50965984343023
O           -2.29300800305980       -3.67410942436168        1.57312881314680
H           -1.83306822942307       -2.81818583450274        1.70420288857999
H           -1.95161140576536       -4.23634365487123        2.29927005727200
O           -3.38724607089944       -1.78757970136701       -0.82128294554563
H           -3.11830550421870       -0.85090771467507       -0.77675192401347
H           -2.70630901958936       -2.27310329396637       -0.31790840584573
O           -3.20734943598404        1.17640764001870       -2.48026722352610
H           -3.90239797820508        1.02018491598886       -1.81605154340630
H           -2.37239525040103        1.14933940292702       -1.97450871413522
O           -1.98331280246978       -3.81585744256002       -2.96015453477819
H           -2.49225222737880       -4.03334391027413       -2.16123638184845
H           -1.34076563938553       -3.14274454017383       -2.68140354460814
O           -2.99178601211671        1.82646298056481        0.99729441721847
H           -2.10826047277611        1.78531886912242        1.42820944590016
H           -3.61563774358185        1.60076170262846        1.71497441760668
O            0.17386218477345       -4.71235718768174        0.72505248875290
H            0.20445779622820       -4.33929795672953        1.62382979405370
H           -0.73295577097367       -4.51619200942629        0.41031537068720
O            2.39223457558156       -3.52027469216127       -1.55809163930956
H            1.63739028188044       -4.14172562932235       -1.53575802324297
H            2.34742379845818       -3.05715615147787       -0.69851830724955
34
 energy: -56.633186925272 gnorm: 0.055523763377 xtb: 6.7.1 (edcfbbe)
C           -0.00538545394328       -0.50420636352411        0.65046358542138
C           -0.05622983980674        0.11977904977548        2.06894317720450
O           -0.00163146508745       -0.67728737211278        3.03788365553549
O           -0.05669901993517        1.34605249708589        2.13405149446130
C            0.00313960023918        0.54097341488063       -0.44528030004831
N            0.00301220578005       -0.11320400710823       -1.78022022697611
H            0.87810066225857       -1.13959568927795        0.61441645396701
H           -0.88179002037799       -1.14451043555479        0.58639276910651
H           -0.86624915667392        1.17777106526166       -0.33072668343619
H            0.87613595730466        1.17050086178223       -0.32691839334056
H           -0.83097942072027       -0.69351802708615       -1.89772763541484
H            0.82909206096920       -0.70726794181375       -1.88647276723651
H            0.01396177230157        0.58820729685023       -2.52321313456885
O           -2.27816606563397       -3.63178919147944        1.57898494696359
H           -1.81824426205969       -2.80859370365573        1.76021110040024
H           -2.00171277770498       -4.22955154642787        2.27962074020281
O           -3.33966205137582       -1.79214910749363       -0.86992093405262
H           -3.11479834194965       -0.86012208254324       -0.74389460744827
H           -2.73951414878191       -2.28271121609915       -0.28425822324700
O           -3.19423186282664        1.14524813195349       -2.46959847409530
H           -3.91183433633789        1.03933416173099       -1.84245500564701
H           -2.39530347283997        1.20645585992637       -1.92569504454879
O           -1.98087708439602       -3.82671143119135       -2.95480158634030
H           -2.52400861215942       -4.01618331357739       -2.18963099443238
H           -1.35432508825359       -3.15850224917532       -2.68652695806710
O           -2.95321656962223        1.83894755181710        1.02483647139171
H           -2.09382068751933        1.76790372965537        1.43389987392326
H           -3.58913912234014        1.59906018832705        1.69088248117048
O            0.20451095248481       -4.68157097077702        0.69415672713935
H            0.25807878967005       -4.36589348242012        1.59813494945091
H           -0.72504123692624       -4.54035328901764        0.44427900856646
O            2.35172165481822       -3.49529790811298       -1.55910613033246
H            1.64729170999611       -4.15029424079302       -1.52377778488748
H            2.34422273145066       -3.08379223980539       -0.69091955078525
34
 energy: -56.638241200404 gnorm: 0.104075295004 xtb: 6.7.1 (edcfbbe)
C           -0.00177719372991       -0.51783185530236        0.64226505575019
C           -0.03539752177438        0.13045102295292        2.06906673180527
O           -0.03490053477365       -0.68829704422584        3.02221052241636
O           -0.14523386287345        1.35136901283998        2.12725209108302
C            0.00771210495022        0.53564924479495       -0.44420800736084
N            0.00345528672792       -0.11060049145758       -1.78642615157518
H            0.88287778107552       -1.14881597943327        0.61418090156392
H           -0.88219452818974       -1.15224339801111        0.58185275488853
H           -0.86190217247154        1.17528321658366       -0.33030406588214
H            0.88587977086826        1.16207492646486       -0.33000081495003
H           -0.83452458082633       -0.68607831839313       -1.90423106399354
H            0.82505586539992       -0.71261768520682       -1.89032638683414
H            0.01918330218798        0.58893586553508       -2.53200903064047
O           -2.21196661198937       -3.61107249400930        1.51150503399553
H           -1.79826143801503       -2.77224313136214        1.85634462003323
H           -2.08279837350942       -4.23071080131498        2.27861799107804
O           -3.28952249976861       -1.80355602605249       -0.92556809032253
H           -3.10747240584521       -0.86426031974493       -0.70759229170617
H           -2.76596359894029       -2.29895346425838       -0.24384666788077
O           -3.17368235043148        1.09116970567986       -2.47147102446841
H           -3.93511739821090        1.07352325014147       -1.86596515591481
H           -2.40948292458538        1.27684563180356       -1.85808570723244
O           -1.97050048565170       -3.85906701597802       -2.95883854966760
H           -2.58246586598504       -3.99163457049918       -2.22036444017286
H           -1.37200406960172       -3.16142593700707       -2.69331785989000
O           -2.90877477198962        1.74322987381159        0.98455706613655
H           -2.06411908097239        1.81724106293442        1.48647476293545
H           -3.58127129976294        1.65117537073793        1.68678813611359
O            0.24036158284018       -4.64803853466987        0.65722300531134
H            0.31678390632956       -4.40569958835687        1.59232758124732
H           -0.72444758327591       -4.55800338605557        0.47859556794681
O            2.28060808133181       -3.42403143324152       -1.60150756037638
H            1.65626086487432       -4.18726097226981       -1.50287899248607
H            2.35201060658963       -3.12737773743118       -0.65630696095135
34
 energy: -56.639405177613 gnorm: 0.080017899266 xtb: 6.7.1 (edcfbbe)
C            0.00232392158375       -0.53327817807127        0.63389362560502
C           -0.00959102882507        0.12737766821794        2.06741587969220
O           -0.06298990628081       -0.69902087692917        3.01136637159187
O           -0.25898608706038        1.36247283142747        2.11860161236043
C            0.00861286573314        0.52480972889747       -0.44949903413038
N           -0.00037777014607       -0.11109722466993       -1.79775554693837
H            0.88993037163657       -1.15837702267152        0.61073056777681
H           -0.88125944573776       -1.16550800174768        0.57446146875688
H           -0.86209708626123        1.16852953587033       -0.33231060510148
H            0.89145990801781        1.15123179607588       -0.33656041045428
H           -0.84536042970650       -0.68115489259095       -1.91505778944577
H            0.81781522373833       -0.72244878289865       -1.90009770027000
H            0.01972835703466        0.58992866092441       -2.54512227395328
O           -2.24001336552586       -3.55750834929578        1.57064147219924
H           -1.77955575493484       -2.76502345223605        1.86628787263706
H           -2.09065456211281       -4.22154044473261        2.25973447359461
O           -3.28458595466309       -1.79866152416415       -0.87793749775035
H           -3.10010666626180       -0.87523700499996       -0.70155454431665
H           -2.76922245102477       -2.31465218921038       -0.25331483397592
O           -3.16117343114200        1.14250009210040       -2.44170319915331
H           -3.95065566929541        1.07495358693978       -1.89478956868101
H           -2.42451891888188        1.26524999055874       -1.84160721614674
O           -1.93669760938020       -3.88915413191384       -2.95318412394396
H           -2.60901870499268       -3.96266913472980       -2.23835818924828
H           -1.36549651448358       -3.15773734488563       -2.69256060280842
O           -2.87019871863989        1.69526145119685        0.97938561154793
H           -2.03415041354527        1.82601305675729        1.51705592090593
H           -3.56521972041611        1.66504649622195        1.68546800576256
O            0.24902135230840       -4.64010439883855        0.63445004834361
H            0.37030978907020       -4.41630968860010        1.57055642818530
H           -0.70647347152044       -4.53548353178610        0.48144679506317
O            2.29524076320702       -3.48360528887137       -1.54201205696769
H            1.63547473691493       -4.16387054184335       -1.52366113861253
H            2.32489439159482       -3.10380488950277       -0.67839682212453
34
 energy: -56.644087097786 gnorm: 0.071462118007 xtb: 6.7.1 (edcfbbe)
C           -0.00383932402427       -0.53573471854743        0.63199774198792
C           -0.08939193661692        0.11380393044730        2.06687678893807
O           -0.04286874374571       -0.70182361758261        3.01030221572377
O           -0.25758646606788        1.36319581586688        2.12394017735970
C            0.00939848832489        0.51692728876420       -0.45840495521449
N           -0.00211625002273       -0.11382351928636       -1.80603163735759
H            0.89362063113594       -1.15324199294714        0.62283134289844
H           -0.88065312792327       -1.17713424534421        0.55527241965829
H           -0.86337723225049        1.16214410696365       -0.33771682203345
H            0.89525429855315        1.14430312028383       -0.34238284713957
H           -0.85596693203528       -0.67734703686465       -1.92145900586190
H            0.81405728877968       -0.73312353915549       -1.90702388453858
H            0.02109869579225        0.59168247231475       -2.55303842773067
O           -2.23885167209140       -3.53219161231005        1.58992762748073
H           -1.77194133735393       -2.75753386051660        1.88097335510941
H           -2.09512328389490       -4.20818777710686        2.24715042776629
O           -3.25043115058950       -1.80645254920300       -0.90075507681876
H           -3.10175137964016       -0.87792347559799       -0.66726590045668
H           -2.78518450881272       -2.32460675884722       -0.22769597849592
O           -3.14715438441969        1.14189838030756       -2.43004004158116
H           -3.96070098271359        1.08000192042138       -1.91660350553924
H           -2.43757582623726        1.28827014608701       -1.80868440924578
O           -1.95239730052099       -3.88652437854300       -2.95527930448004
H           -2.60193419047034       -3.96657349056970       -2.24341820566268
H           -1.37171735909120       -3.15806665755092       -2.69929922293974
O           -2.86198485286581        1.82255076984911        1.05218044663850
H           -2.02141893287970        1.74405245032419        1.45485023295621
H           -3.53626822734991        1.59821393804689        1.66294307483197
O            0.24379295755450       -4.65017097173116        0.63589204121529
H            0.40350226868049       -4.41144335305563        1.55435970928313
H           -0.68436823591669       -4.50733422223073        0.47700750752238
O            2.25807556500450       -3.44536171851884       -1.55661623540672
H            1.64027058465643       -4.18072517580962       -1.51475885656822
H            2.33194085905423       -3.12459166835840       -0.65401779229934
34
 energy: -56.645164219688 gnorm: 0.088641165532 xtb: 6.7.1 (edcfbbe)
C           -0.01363952986405       -0.53281839522566        0.62735376228345
C           -0.19166934780607        0.10021662215143        2.06357220675188
O           -0.02951413925664       -0.71354693210704        3.00325991131102
O           -0.23329911254149        1.33261716697025        2.13586393190226
C            0.01177796488697        0.51527726026754       -0.46509779142296
N           -0.00482603958880       -0.11713795767940       -1.80990557839744
H            0.89138258980203       -1.14376312005620        0.63594303941446
H           -0.87772720529065       -1.18702425869011        0.52976051146793
H           -0.85854506829019        1.16043946158506       -0.34341547029939
H            0.89893688414116        1.13817769430530       -0.34955056191945
H           -0.86519173213792       -0.67036326643573       -1.92449802932394
H            0.80490158424934       -0.74377510428217       -1.91244789452851
H            0.02222928060573        0.58968557349042       -2.55451490321972
O           -2.19094872054831       -3.50298225321878        1.53906555586426
H           -1.73786538695034       -2.72691669004835        1.96076208015672
H           -2.15614594091218       -4.21009209476636        2.23097805691954
O           -3.22653133928337       -1.81309097641631       -0.88826689066072
H           -3.08720584832815       -0.89089068885269       -0.65990403351540
H           -2.79129061393736       -2.33958297289476       -0.20090021392529
O           -3.13007432335094        1.09490675261870       -2.43713164931690
H           -3.97123076132158        1.08471185380201       -1.94720122631569
H           -2.45187400218924        1.36653518794032       -1.74064120476283
O           -1.95740749814048       -3.89110132219717       -2.95717763053653
H           -2.61339714285445       -3.95154734645322       -2.25820818330356
H           -1.38067274090518       -3.16019163412390       -2.71000254973991
O           -2.82840497535916        1.75047179507108        1.01256389137248
H           -1.99657676737111        1.77010575003256        1.50320674623546
H           -3.53806957061796        1.63887065144502        1.64957076654948
O            0.28078168376020       -4.60409886373330        0.59748701302670
H            0.44775741874245       -4.43452203281902        1.54208438600376
H           -0.69915766997824       -4.52311508687557        0.51228283961225
O            2.23011988946393       -3.43874974118569       -1.55194870635570
H            1.62296557316357       -4.18096620048683       -1.51869445758975
H            2.31682060801066       -3.12861083113224       -0.64823472373804
34
 energy: -56.644285692510 gnorm: 0.122163956513 xtb: 6.7.1 (edcfbbe)
C           -0.01254324644906       -0.53573939808135        0.62029905265306
C           -0.15598571661690        0.09168923662279        2.05904657021848
O           -0.06944545146890       -0.72732559768765        2.99206685036107
O           -0.29474657610200        1.31001329271538        2.13939125355617
C            0.01482468633877        0.51316458079018       -0.46925323040120
N           -0.00971050617136       -0.12107295580323       -1.81360484880384
H            0.88733567200017       -1.14841117896436        0.63229374519919
H           -0.87538679981564       -1.19043423142818        0.52009308012175
H           -0.85088260402547        1.16088639076265       -0.34652087354560
H            0.90419976429854        1.12974288168172       -0.35980803226285
H           -0.87418429488507       -0.66494374635726       -1.92760367810347
H            0.79258020505983       -0.75434264011479       -1.91902076054307
H            0.02108915285968        0.58435372257787       -2.55708820815242
O           -2.19325011795090       -3.47757707672843        1.56338286054348
H           -1.73182093222157       -2.71961916698926        1.95949828624026
H           -2.15268231656106       -4.18474463720428        2.22950641395780
O           -3.17191155667170       -1.83040532879017       -0.94538283773207
H           -3.09069966057556       -0.89359747807731       -0.61232027948806
H           -2.81220337304364       -2.35024202343550       -0.14868385057583
O           -3.13216549778129        1.17300326485607       -2.39491062470516
H           -3.96695202997898        1.06748653853637       -1.95017486464996
H           -2.46353808101654        1.33713432731400       -1.74738689480109
O           -1.95621187788676       -3.90475181864487       -2.95713427530449
H           -2.64053792795358       -3.93268891640184       -2.27431007056961
H           -1.39084382493234       -3.16508601912004       -2.71924086006350
O           -2.80326825269747        1.69019799615278        0.97701035787871
H           -1.97205751027993        1.78824071567998        1.52994440118099
H           -3.53307604444902        1.66853694259548        1.64606182117651
O            0.28610533338288       -4.61464472652273        0.60097327571050
H            0.47840871056409       -4.42364099242890        1.52224389281085
H           -0.67321800449583       -4.50163918101438        0.50567986442986
O            2.16575878276178       -3.35401883275643       -1.59583069615887
H            1.63917157486620       -4.21378248729234       -1.48927231999149
H            2.33425632190122       -3.16861345644288       -0.60393152018643
34
 energy: -56.643067580186 gnorm: 0.100485796976 xtb: 6.7.1 (edcfbbe)
C           -0.01328417068007       -0.54477853825015        0.61659002877343
C           -0.01570984106374        0.08300845399728        2.05855682649791
O           -0.13236589609325       -0.74408668559568        2.98464776984465
O           -0.39054776769616        1.31342507276826        2.14310492305886
C            0.01222781423427        0.51080874305628       -0.46805173112423
N           -0.01597277963088       -0.12203731205637       -1.81458536709977
H            0.87943308421886       -1.15757723032097        0.62400441653936
H           -0.88214295061708       -1.19402209417185        0.51669102991931
H           -0.85024672965222        1.16429551661950       -0.34663080272687
H            0.90587925885750        1.12300261253583       -0.36412443447315
H           -0.88288106556209       -0.66089424212888       -1.92982104602656
H            0.78204348349796       -0.76044602457673       -1.92107739135840
H            0.01897624989107        0.58263873118049       -2.55858377506998
O           -2.17043604050971       -3.48040292813101        1.55891168939130
H           -1.74775234861715       -2.71598925295821        1.96196133392411
H           -2.15106242850388       -4.15172725974929        2.24104565585186
O           -3.18257738262091       -1.82547294663754       -0.86869772925459
H           -3.09151293298905       -0.90388291504456       -0.62170019469034
H           -2.79293933694429       -2.35436160950995       -0.17879182911384
O           -3.11353564967923        1.12717404323603       -2.40364798440441
H           -3.97605955211864        1.08860335959603       -1.97206804435488
H           -2.47746551084278        1.37609798215280       -1.71108247403115
O           -1.94686068529879       -3.90272200058308       -2.95238786711820
H           -2.63681288890817       -3.92468508064433       -2.27500095232810
H           -1.37749417939543       -3.16492172816129       -2.72141285867652
O           -2.81009817691424        1.76646438445119        1.02181930174013
H           -1.96732371291146        1.73721698633679        1.47532893625488
H           -3.50547172282515        1.62132040000867        1.64820304084955
O            0.27483132162796       -4.62100441387503        0.60741604766136
H            0.49016608896078       -4.41582999231304        1.51031652054354
H           -0.65075392856574       -4.47433276169823        0.49532113782960
O            2.18802702610440       -3.41206808078074       -1.54693999017593
H            1.61813887296846       -4.18785634694653       -1.50768916248096
H            2.30799247828153       -3.13782884180623       -0.63561202417192
34
 energy: -56.653840819716 gnorm: 0.065128617340 xtb: 6.7.1 (edcfbbe)
C           -0.01819559087796       -0.54466718835957        0.61679762228430
C           -0.15985662836842        0.06898699344594        2.05756563312513
O           -0.09716360851598       -0.75478891439591        2.98475432462104
O           -0.30003276114230        1.30298645453111        2.15045139523694
C            0.01429317901404        0.50930640393398       -0.47143984567604
N           -0.01783888961309       -0.12315052280258       -1.81557742899427
H            0.88512349619871       -1.15360990078869        0.63213908625737
H           -0.88000568844612       -1.20082521805866        0.49849886720889
H           -0.84900032895097        1.16476093102541       -0.34822735291875
H            0.91041256437031        1.12139808542309       -0.36481601628486
H           -0.89080724352967       -0.65743805350803       -1.92821204988860
H            0.77811420588550       -0.76701192502929       -1.92265859447674
H            0.01858938926713        0.58437824618916       -2.55923340046366
O           -2.15939054867587       -3.46677683930334        1.55379381188125
H           -1.73466185182841       -2.70815334724921        1.96659561342703
H           -2.16609212253310       -4.14374934806881        2.24211428662882
O           -3.16074657668859       -1.83004424872970       -0.88413855522379
H           -3.08852499390074       -0.90568066823991       -0.60268827759729
H           -2.80221706850936       -2.35857712105074       -0.15359310569271
O           -3.10925908956413        1.13830847721431       -2.39626215330563
H           -3.97826051490633        1.08852778982902       -1.97670616197447
H           -2.48356141008216        1.37365325140340       -1.70051994359619
O           -1.94025623755875       -3.90791446228881       -2.95466867872371
H           -2.64355045068195       -3.90632679035445       -2.28465456568159
H           -1.37723157641104       -3.15705344336227       -2.72897729888225
O           -2.80701184153363        1.71928437142423        0.99972525647766
H           -1.96995235668786        1.74686834928329        1.48002048937168
H           -3.49941286886154        1.64866855376983        1.65560579639819
O            0.29739703700637       -4.58749925862263        0.57467624752817
H            0.51379891125169       -4.44532982270599        1.51357088041088
H           -0.66830936669868       -4.47765090643407        0.51910013852584
O            2.19256216441833       -3.44400531388838       -1.51824423031128
H            1.59727243664161       -4.16683406225055       -1.51836625377475
H            2.29018423051570       -3.12291255198140       -0.65041253591628
34
 energy: -56.633811638547 gnorm: 0.183131140358 xtb: 6.7.1 (edcfbbe)
C           -0.01182275798983       -0.54860244548006        0.61026400493169
C           -0.23049093275604        0.05302700248413        2.05152360606659
O           -0.09296279419090       -0.77631749809521        2.97684949185360
O           -0.32440448429396        1.27916611682316        2.15361703241926
C            0.01913352836713        0.50456192511874       -0.47715362711180
N           -0.02661200034072       -0.12880154068815       -1.81960956181988
H            0.89278942089547       -1.15818429200091        0.62546943735956
H           -0.86873703491873       -1.20871689526586        0.48573976738353
H           -0.84034148899105        1.16234717850982       -0.34790188733307
H            0.91785760200736        1.11168756186385       -0.37486803201329
H           -0.90687687733799       -0.65261244899494       -1.92696450573237
H            0.76116807346814       -0.78165332399244       -1.93027369479492
H            0.01262105962977        0.57840695099590       -2.56259279891754
O           -2.15842116562103       -3.41805821894171        1.57242858195978
H           -1.70555441188960       -2.68677233171199        1.99383011546453
H           -2.19105848579598       -4.13555367158330        2.22487317912050
O           -3.17482475072381       -1.82417625226806       -0.77015349486229
H           -3.06602237589129       -0.93124578292813       -0.63878778206563
H           -2.77274404728614       -2.37558913947398       -0.17960796016535
O           -3.09188022372975        1.09585095099556       -2.40060723817026
H           -3.98295917401528        1.09588570980670       -2.00329267246122
H           -2.50112411207431        1.44200294692180       -1.63966434147297
O           -1.95423782289449       -3.90566495080785       -2.95015356240547
H           -2.64201822872871       -3.90298871547587       -2.28712578774779
H           -1.37735189820790       -3.16796348598978       -2.73385155857119
O           -2.79210838210925        1.66280482844044        0.96702169938707
H           -1.95538358772760        1.74646041055183        1.48102715272496
H           -3.49252080819711        1.68270807481808        1.65825446453344
O            0.30484919648496       -4.59356192866661        0.57788140095899
H            0.54148909092962       -4.42276578731729        1.49010254173365
H           -0.64129792923269       -4.44678137598928        0.51007411833942
O            2.09812027968224       -3.30737274704611       -1.60473709051613
H            1.62011685752138       -4.21544936703317       -1.48706448431350
H            2.33001866596192       -3.18894945757948       -0.57853351376159
34