166
 energy: -276.883820601372 gnorm: 0.662388176300 xtb: 6.7.1 (edcfbbe)
N           -0.44376700000000       -0.47181200000000        1.74520500000000
C            0.69351000000000        0.10436000000000        1.02689900000000
C            0.25232500000000        0.99958500000000       -0.14624500000000
C           -0.57382300000000        0.30680200000000       -1.24485700000000
C            0.17276200000000       -0.78812900000000       -1.95771100000000
O            0.40822200000000       -0.68794500000000       -3.15102700000000
O            0.54634400000000       -1.90328400000000       -1.30373900000000
H           -0.08747200000000       -1.00411400000000        2.57127000000000
H           -1.08118400000000        0.28586300000000        2.08138600000000
H            1.28097900000000        0.73286000000000        1.73117400000000
H            1.36804500000000       -0.70373400000000        0.67713900000000
H            1.15866700000000        1.44313000000000       -0.61117500000000
H           -0.35578800000000        1.83434200000000        0.26527400000000
H           -1.51736400000000       -0.10080200000000       -0.82923500000000
H           -0.85273400000000        1.08677100000000       -1.98587200000000
H           -0.96872000000000       -1.13389300000000        1.13151600000000
O            3.27631000000000        2.11605700000000        2.11111000000000
H            2.66915700000000        1.71473600000000        2.78261300000000
H            3.06577200000000        3.08342800000000        2.13302400000000
O           -4.25085000000000       -0.21393900000000       -1.76142400000000
H           -3.41954600000000       -0.49540700000000       -1.30281800000000
H           -3.96464700000000        0.51323600000000       -2.36963200000000
O           -2.48917100000000       -3.96798600000000        1.73582100000000
H           -2.99596300000000       -4.26416900000000        0.93829500000000
H           -1.54431900000000       -4.16927600000000        1.51822000000000
O            1.04394300000000        3.82566000000000        3.66060100000000
H            1.87454100000000        3.29012700000000        3.72322900000000
H            0.83443400000000        3.84632000000000        2.69298000000000
O            3.56931100000000       -2.39300800000000        3.11174000000000
H            4.00209900000000       -2.49602100000000        2.22704100000000
H            3.05374300000000       -3.22949000000000        3.23462800000000
O            1.23546700000000       -4.04491000000000        3.06483100000000
H            0.42285900000000       -4.61078400000000        3.05668200000000
H            1.07230400000000       -3.38683400000000        3.78658400000000
O           -0.46981600000000        1.17608400000000        5.89961000000000
H           -0.79308500000000        0.91420500000000        6.79823500000000
H            0.28985700000000        0.56625900000000        5.72177800000000
O            2.14703500000000       -1.01980900000000        2.55160100000000
H            1.69890500000000       -1.90136500000000        2.60305900000000
H            1.71501900000000       -0.48012000000000        3.26062300000000
O           -4.27360800000000       -1.97062400000000       -0.25705600000000
H           -3.97637400000000       -2.41559200000000       -1.09028200000000
H           -4.00635100000000       -2.59287100000000        0.46543700000000
O           -0.34115500000000       -1.93959000000000        4.54176600000000
H            0.34288500000000       -1.22419200000000        4.51167300000000
H           -0.02031800000000       -2.56026500000000        5.24350500000000
O            0.83610800000000       -1.21458800000000        6.44962700000000
H            0.00496700000000       -0.99348400000000        6.94047100000000
H            1.51117800000000       -0.58536100000000        6.80874700000000
O            0.84617400000000       -3.11679500000000        0.25732700000000
H           -0.11744900000000       -3.21474400000000        0.05129900000000
H            1.30530700000000       -3.63267200000000       -0.45237800000000
O           -2.27860000000000       -1.84069400000000       -0.20403700000000
H           -1.95494800000000       -2.03008300000000       -1.12054700000000
H           -2.01212400000000       -2.63593400000000        0.32245800000000
O           -1.68189600000000       -1.59178100000000        5.98424600000000
H           -1.59664600000000       -0.62225000000000        5.80161800000000
H           -2.22243900000000       -1.93955400000000        5.23093300000000
O           -3.52674000000000       -1.06975100000000        2.73654700000000
H           -3.35536000000000       -1.90015900000000        2.22501800000000
H           -3.68171800000000       -1.37771300000000        3.66485400000000
O            3.55675600000000       -0.54745300000000        0.66526900000000
H            4.16198200000000       -0.17840900000000       -0.02619300000000
H            3.09139900000000        0.24423400000000        1.03579300000000
O           -2.12703100000000        2.20667400000000        5.30653100000000
H           -2.41622500000000        1.27191900000000        5.45888000000000
H           -1.53120400000000        2.15651600000000        4.51717200000000
O            4.21150200000000        0.44567200000000        2.69026600000000
H            4.08595600000000       -0.53184000000000        2.59373000000000
H            4.81464200000000        0.69315400000000        1.94488800000000
O            2.85836400000000       -3.23436000000000        0.74310400000000
H            2.34531400000000       -3.72734300000000        1.43184100000000
H            2.57040700000000       -2.29250200000000        0.84604800000000
O            2.11631300000000        3.81921500000000        0.53405900000000
H            1.46725900000000        3.17475800000000        0.91355100000000
H            2.02370200000000        3.71631800000000       -0.44647600000000
O            2.26724600000000       -1.17339000000000        5.05335100000000
H            2.05208100000000       -2.13872400000000        5.00389000000000
H            3.11705300000000       -1.08267100000000        4.55314100000000
O            2.51243800000000        1.26562200000000        4.72513900000000
H            3.39142100000000        0.89605600000000        4.45789100000000
H            2.27176100000000        0.76510400000000        5.54499800000000
O           -0.13986700000000       -1.00625400000000       -5.04837400000000
H            0.37614000000000       -0.45272400000000       -5.68708500000000
H           -0.40619800000000       -1.80437400000000       -5.57056600000000
O           -1.02592800000000        2.91912100000000       -3.59691400000000
H           -0.51886300000000        2.31462200000000       -4.19530900000000
H           -0.51358900000000        2.91644400000000       -2.74949800000000
O           -1.67272400000000        3.32015200000000       -0.37637800000000
H           -1.74260500000000        3.59476400000000       -1.32522800000000
H           -2.09520900000000        4.06031800000000        0.12787900000000
O           -1.61062900000000        3.22611200000000        2.78911600000000
H           -2.52029300000000        3.58544700000000        2.94404000000000
H           -1.03171700000000        3.74261100000000        3.40450400000000
O           -2.36621400000000        0.32871400000000       -3.55729700000000
H           -2.18892900000000        1.29797600000000       -3.45875000000000
H           -1.47571700000000       -0.09619400000000       -3.47314500000000
O           -0.64133100000000       -2.93261000000000        2.83208000000000
H           -0.06119900000000       -2.92887600000000        2.02955700000000
H           -1.46166800000000       -2.45655300000000        2.54742300000000
O            3.39615700000000        1.29441400000000       -1.82483700000000
H            2.86012500000000        0.64870500000000       -1.29915700000000
H            2.84190300000000        2.11465200000000       -1.84984400000000
O           -2.67142200000000        2.51015900000000        1.25238800000000
H           -3.61482000000000        2.21323500000000        1.30186500000000
H           -2.15491400000000        1.67510200000000        1.12388900000000
O           -3.10345000000000        1.94351200000000       -0.61604800000000
H           -3.83986000000000        1.29018800000000       -0.50891100000000
H           -3.07074800000000        2.12309300000000       -1.58933800000000
O            2.75189100000000       -0.26330900000000       -3.07832600000000
H            2.88914200000000        0.55821300000000       -3.61393300000000
H            3.65352900000000       -0.49121700000000       -2.73814900000000
O            2.63277600000000       -3.17945700000000       -2.77903900000000
H            2.80285400000000       -2.26230400000000       -3.11147900000000
H            1.74879900000000       -3.12293400000000       -2.33631900000000
O            1.76610400000000       -1.26537500000000       -4.50086700000000
H            1.88412700000000       -2.15542600000000       -4.91858700000000
H            2.27296000000000       -0.64762900000000       -5.08576000000000
O            0.97164100000000        2.41249200000000        5.27708500000000
H            0.14830400000000        2.96175300000000        5.24484300000000
H            1.15269100000000        2.29330800000000        6.24333000000000
O           -0.61268700000000       -2.50053500000000       -3.70720600000000
H           -0.85316400000000       -2.30194100000000       -2.76734300000000
H            0.37111400000000       -2.61257400000000       -3.69321600000000
O           -0.10165900000000        4.43609700000000        0.80155500000000
H           -0.46574200000000        3.60257400000000        1.19308400000000
H            0.10777200000000        4.19863400000000       -0.13672100000000
O            3.87328800000000        1.79905800000000        0.05044700000000
H            4.35152200000000        2.55127400000000        0.48180900000000
H            2.91440700000000        2.02682800000000        0.14678100000000
O            0.19691000000000       -5.18762900000000        0.14173500000000
H           -0.76651800000000       -5.10210400000000       -0.07064200000000
H            0.27176300000000       -4.88391700000000        1.08129300000000
O            2.02496700000000        2.36125300000000       -3.65854600000000
H            1.40844000000000        1.78115000000000       -4.17234200000000
H            1.43234700000000        3.00948600000000       -3.20115300000000
O            0.28993000000000       -4.47819100000000       -2.52065700000000
H           -0.34086800000000       -4.43583600000000       -3.28283200000000
H           -0.12321000000000       -3.90762500000000       -1.82468100000000
O           -2.04762100000000       -3.93630100000000       -2.36795500000000
H           -2.67322100000000       -3.19759300000000       -2.57662900000000
H           -2.07059700000000       -4.00944900000000       -1.38066800000000
O           -1.26623100000000        0.62936300000000       -5.32495600000000
H           -1.89224900000000       -0.12835600000000       -5.44567800000000
H           -1.83190600000000        1.43637100000000       -5.42171800000000
O           -1.76043800000000        0.12822100000000        3.95533800000000
H           -1.76381200000000       -0.81195300000000        3.64441500000000
H           -0.80137800000000        0.35139200000000        4.06027300000000
O           -3.26374300000000       -1.37881900000000       -4.08508400000000
H           -2.34939900000000       -1.69881700000000       -4.29048300000000
H           -3.30848000000000       -1.37385300000000       -3.09584800000000
O            0.16929100000000        2.03707700000000        3.47188200000000
H            0.86856300000000        1.34577100000000        3.58903900000000
H           -0.05287300000000        2.00429300000000        2.50742300000000
O           -3.64667300000000       -0.30903400000000        0.67528500000000
H           -4.21901000000000        0.30972700000000        1.19507000000000
H           -2.75278300000000       -0.23119600000000        1.09423000000000
O           -2.14613800000000       -3.89200400000000        3.75968300000000
H           -2.84148100000000       -3.18789300000000        3.79624800000000
H           -1.51243400000000       -3.65262500000000        4.48199200000000
O            2.97395100000000       -2.10764600000000       -1.12498600000000
H            2.50474800000000       -1.27276800000000       -0.87311400000000
H            3.85125800000000       -2.04618600000000       -0.66983000000000
O           -3.46178500000000        0.91854600000000        2.94230200000000
H           -2.74954200000000        1.60067800000000        3.03184200000000
H           -3.68416200000000        0.66824100000000        3.87424000000000
166
 energy: -277.265522555847 gnorm: 0.410238520687 xtb: 6.7.1 (edcfbbe)
N           -0.44401447671119       -0.46673188382528        1.73948528879093
C            0.69178991056821        0.11236507979341        1.01618189848159
C            0.25205154743900        1.00574554349583       -0.14163236966367
C           -0.57445843844196        0.31719866247121       -1.22981940352207
C            0.17827461195301       -0.77313074682758       -1.94315106564431
O            0.40511830909936       -0.63763046332397       -3.12835435956002
O            0.51123283775038       -1.86752664832327       -1.33103773677226
H           -0.08908426652622       -1.00229559502155        2.56127667419645
H           -1.08015443784783        0.28143187181784        2.08078055768818
H            1.27517005408200        0.73006190421167        1.71881948458753
H            1.35271733300758       -0.69654534014941        0.67026196540332
H            1.15138630403080        1.43816898072352       -0.61025530983549
H           -0.35595768048523        1.83007729689993        0.25944225799266
H           -1.50973305310593       -0.09190697877301       -0.82870647080589
H           -0.84766800840315        1.07905601087624       -1.97656741118848
H           -0.96459563708740       -1.12462485534838        1.12803305826414
O            3.24858936827749        2.14857821882309        2.13555425783724
H            2.66788581325840        1.72629379129600        2.79343040412897
H            3.05786364409176        3.09583882519115        2.13823859447732
O           -4.25039811201597       -0.21130749345342       -1.77594368012834
H           -3.43321248521988       -0.48671667231756       -1.30340006591137
H           -3.96517873112764        0.50542949335931       -2.37267698684960
O           -2.49980944399404       -3.97003523054293        1.69598787361825
H           -3.00074140682607       -4.27382147082776        0.92896806920498
H           -1.55410349420681       -4.17418789927956        1.52078283267611
O            1.08371368336103        3.89740827672581        3.64029300821447
H            1.86568050656305        3.30383661130587        3.72437232660167
H            0.84190139456504        3.86127529090788        2.69358960312560
O            3.62235191009274       -2.43437403423716        3.13164574105367
H            3.99809618290794       -2.50104372781271        2.23131964840529
H            3.06271558005219       -3.23003441507031        3.23244907352260
O            1.25357885548426       -4.06697111780557        3.08196177324813
H            0.43616474544288       -4.60667607946669        3.06019340274264
H            1.07137589808235       -3.39449677711342        3.77780687091849
O           -0.47820095245523        1.11732343792119        5.93372190290538
H           -0.79624682954445        0.90112445118437        6.81338670187998
H            0.29323932365406        0.55382332945494        5.73333631351123
O            2.10657859931655       -1.00753243481845        2.55086987062970
H            1.69734664701550       -1.89243355227274        2.60425182645832
H            1.71575789271611       -0.48101783991680        3.26711304945183
O           -4.34642361811822       -2.02566862551214       -0.27083032432321
H           -3.99449480489308       -2.42547390228335       -1.08831407062691
H           -4.02069823244172       -2.59367638514824        0.46013325965212
O           -0.28865267504100       -1.94392622689730        4.53451145735244
H            0.35728044913325       -1.22299540203953        4.51961334117820
H           -0.01728776348931       -2.54984905711343        5.24284799260516
O            0.82788436004736       -1.20608535036833        6.49397796410014
H            0.00022694357640       -0.99757764123243        6.95212566666098
H            1.50485798260738       -0.59055529238875        6.82071575733901
O            0.82580293638779       -3.12654531574377        0.28362429492923
H           -0.11754095304909       -3.20447063657383        0.04758144903112
H            1.29779302822671       -3.61262695022118       -0.43232300773353
O           -2.20508980740325       -1.84426707248386       -0.20647032190455
H           -1.93999930148850       -2.03435688028360       -1.11850916023850
H           -2.00443172466309       -2.63957434526321        0.32362748809593
O           -1.75153014243506       -1.57690447626918        6.03506437377593
H           -1.60108579579421       -0.62862424003367        5.80034292863070
H           -2.21933200877067       -1.93518669838715        5.24803429832555
O           -3.52906600654813       -1.11858088703758        2.75000849576136
H           -3.36140798810304       -1.91773563700591        2.22687205729211
H           -3.68775114234330       -1.38814431512192        3.66728898399940
O            3.55783431252283       -0.54589429178563        0.64947142885309
H            4.15888903600337       -0.17804492278997       -0.02058051000936
H            3.10271965590707        0.23567992317021        1.03459364068773
O           -2.16954190956650        2.22668607695429        5.29203809625515
H           -2.41872222657493        1.29017628101999        5.45404861935602
H           -1.54170927198603        2.16330487997638        4.52762172729926
O            4.25851550679713        0.41964389161946        2.71855010055226
H            4.08830936853970       -0.53388257170993        2.59679463191400
H            4.80994749859948        0.68631920102806        1.95692664321221
O            2.89521898362240       -3.24490060029868        0.78238403082904
H            2.35021303641769       -3.73008399158315        1.43335829876076
H            2.57998553522250       -2.31003991237684        0.84789179463139
O            2.12905423582373        3.80948599191045        0.52358038690801
H            1.47521319886044        3.18271253075975        0.90939516197888
H            2.02588494803123        3.72050919786647       -0.44023000412271
O            2.29404942791638       -1.18573690368126        5.04138300455773
H            2.06513343757165       -2.13239798686682        5.00431436110999
H            3.12277218016503       -1.09108510747867        4.54718038058907
O            2.53919725447005        1.24881110504432        4.72132608930288
H            3.40001969436186        0.89200793909429        4.45405366552952
H            2.28360911579859        0.76657699764208        5.53174419721862
O           -0.16909788165658       -1.01649169775370       -5.10717961418945
H            0.36712544710481       -0.45665010919082       -5.69898867048009
H           -0.40961025128316       -1.81213858366604       -5.59188908836879
O           -1.01731142125109        2.92077398250728       -3.59556469967756
H           -0.52555143825055        2.31708667516475       -4.19051946920671
H           -0.51757023740892        2.91353977702739       -2.75422623983596
O           -1.64772099280972        3.35975452417296       -0.40861569424647
H           -1.74274528300555        3.60567153335216       -1.33544336290869
H           -2.09203913714261        4.05521360077587        0.11614435639948
O           -1.60923927522726        3.25332677415306        2.81928401532662
H           -2.51022878540826        3.59210288391104        2.94901444571069
H           -1.02828011514322        3.75153763201763        3.41350765903321
O           -2.36663941796514        0.35716286036784       -3.49934201657264
H           -2.18140276355039        1.30976456851699       -3.45276328184301
H           -1.48230549486522       -0.08465707149424       -3.47431439461229
O           -0.63325160112143       -2.92349303948374        2.76532897940503
H           -0.05239233137434       -2.92070537890195        1.99942744723243
H           -1.45585482701374       -2.45646681964338        2.53569891618633
O            3.39233579805989        1.31012938925553       -1.83739777488311
H            2.86853215987158        0.65982268819344       -1.31223115228829
H            2.84678182528206        2.11335586832325       -1.85516772702620
O           -2.69272801389682        2.49344205259394        1.27943009019881
H           -3.61627007704274        2.20985406138306        1.30428655241453
H           -2.16737896829642        1.68159752791131        1.12174416538786
O           -3.13564388594425        1.92455304875163       -0.65981477168944
H           -3.84828565205247        1.27843356811102       -0.52175298676305
H           -3.08138897709670        2.11328054163867       -1.60527911163828
O            2.77925334066266       -0.26785160593463       -3.07859735524879
H            2.89180726999453        0.55018329456692       -3.60517970747741
H            3.65960689504206       -0.48896693950207       -2.73791074761173
O            2.61749291093768       -3.20536990778297       -2.83465224712159
H            2.79743897651138       -2.27740200997870       -3.11059320151602
H            1.76110053956592       -3.12453707760904       -2.34380818539115
O            1.81960765515730       -1.29981476363913       -4.53989709763484
H            1.89576657727628       -2.17138920088446       -4.93940825663312
H            2.28631617397086       -0.65877940899141       -5.09955779106724
O            0.99137369154034        2.46964646797948        5.31467352926053
H            0.15453104642732        2.96559409902448        5.25660462770585
H            1.15542476980216        2.30928451604681        6.25356445480033
O           -0.63112371780226       -2.54449509912744       -3.70179873294895
H           -0.84630888003510       -2.30810838047049       -2.77693832687240
H            0.35230357320937       -2.60802612588962       -3.69413943825397
O           -0.09408458013571        4.44668304076416        0.81200073868683
H           -0.47216275310060        3.62047822012208        1.19497516579779
H            0.10054894477057        4.20905916292937       -0.12058379458215
O            3.89700792613766        1.82434596293758        0.07177635424434
H            4.35555882487711        2.55913420691576        0.48976560637911
H            2.93568015736641        2.03040114076421        0.15289834279208
O            0.17463477688990       -5.23672476515531        0.15512465320004
H           -0.76538527467685       -5.11232294786429       -0.06993736010489
H            0.27336589856374       -4.89287898155166        1.07252243852727
O            2.01219498454690        2.37012494155810       -3.66927218324105
H            1.41098413703658        1.78262797328632       -4.16613420293538
H            1.43375051331770        3.00739047874672       -3.20839421529726
O            0.29030261684442       -4.49809977971811       -2.51738620183988
H           -0.33067248679410       -4.43939082681574       -3.27395564785495
H           -0.10877862915287       -3.91229121269590       -1.83579727022891
O           -2.07530899196003       -3.93853037565667       -2.35566542307440
H           -2.67735665739377       -3.20463990702200       -2.58002166914885
H           -2.07870448291584       -4.01005996354159       -1.38283326470836
O           -1.27559604936304        0.66656415615001       -5.38884569868252
H           -1.88636015767955       -0.10604434494649       -5.44763505588216
H           -1.84375829963623        1.44998551309656       -5.43195412174463
O           -1.73670992078511        0.11040596064977        3.96597509654030
H           -1.75670140828958       -0.80969093072920        3.64863923923116
H           -0.79892694907907        0.35256943607420        4.06445889939861
O           -3.28063567930846       -1.44082891812108       -4.09359630394469
H           -2.35395607878739       -1.70193153212090       -4.28685617736640
H           -3.31696606602513       -1.37063198276001       -3.11029724888422
O            0.14345907158358        1.96855433166155        3.44693786091286
H            0.87299358415928        1.33997798262501        3.58466394607546
H           -0.05586891078959        1.99177793690879        2.49808491945242
O           -3.64217276707933       -0.26883591273773        0.67949153309656
H           -4.21568762366867        0.31109854467350        1.20071475624639
H           -2.76075631065177       -0.22039597913882        1.09724832697621
O           -2.18450652787365       -3.91716502885525        3.82050711748041
H           -2.84183066951347       -3.19619381201370        3.80372803824958
H           -1.52068191255959       -3.65350386715802        4.48680185635489
O            2.99959651253590       -2.07701349487955       -1.12033445054532
H            2.50740964773005       -1.27360442476557       -0.86941007950660
H            3.85373645340802       -2.04220406994603       -0.66522086250206
O           -3.49750509775350        0.96918099857399        2.95366325280479
H           -2.75631197978236        1.60521102038136        3.03455528712847
H           -3.68583126149834        0.68053212353442        3.86515256799389
166
 energy: -277.505065897774 gnorm: 0.256011120005 xtb: 6.7.1 (edcfbbe)
N           -0.44551787298129       -0.45892062303686        1.73107772994051
C            0.68882665505664        0.12301727271305        1.00265788950662
C            0.25034716042867        1.01633298681898       -0.13674952819016
C           -0.57473797785800        0.33037617532360       -1.21330182969881
C            0.18078438200628       -0.76407717696123       -1.93540868689914
O            0.40098965441996       -0.57694869129065       -3.12538757877455
O            0.47557402182206       -1.83401789347916       -1.35276693161900
H           -0.09114979964110       -0.99949066651809        2.54650745702953
H           -1.08009168608375        0.27802890980415        2.08005779667461
H            1.27057466735814        0.72898188515251        1.70180925364920
H            1.33341177938685       -0.68829318642169        0.65728958085933
H            1.14407734790828        1.43429478333755       -0.61034455627880
H           -0.35797048825494        1.83055353552365        0.25422002011387
H           -1.50262511977242       -0.07915207540478       -0.82457932823878
H           -0.84065875514488        1.07423474524096       -1.96419639562181
H           -0.96108683111282       -1.11137423274929        1.11971242331437
O            3.21746236943381        2.17621779475646        2.16669075591416
H            2.66518403283710        1.73636164338663        2.81484548739928
H            3.05068442474269        3.11116830491365        2.14853271296512
O           -4.25303833996308       -0.21535718718440       -1.79461200072296
H           -3.45107330799888       -0.47791050972095       -1.30135716744328
H           -3.96751652516314        0.49436424246600       -2.38049599628779
O           -2.51093118886786       -3.96468974928341        1.65071999318886
H           -3.01201058011396       -4.29245756181123        0.91727157802189
H           -1.56592234953628       -4.18237600637002        1.52767019523763
O            1.10875594842851        3.94114775907597        3.61581691375804
H            1.85455346136654        3.31817628872887        3.72680184153978
H            0.84888772965633        3.87671291810856        2.68910463253905
O            3.67117153058029       -2.46787463786534        3.15226031491941
H            3.99378316900508       -2.50629004939074        2.23668769740535
H            3.07334973498632       -3.22837885598492        3.23231580080871
O            1.27405908377670       -4.09096647854554        3.10342479500266
H            0.45217381516304       -4.60512526022486        3.06551425347736
H            1.06865373138103       -3.40216049273833        3.76925339795428
O           -0.48479389143400        1.06243700410532        5.96305982217564
H           -0.79718936110335        0.89394892292743        6.83458081055246
H            0.29712799761300        0.54194222814951        5.74309653903015
O            2.07695064157431       -1.00939603893659        2.55880077036034
H            1.69626981632445       -1.89067377371385        2.60741005613593
H            1.72376020346098       -0.48526612496902        3.27901291710080
O           -4.39415125511104       -2.07829834168328       -0.27814822157860
H           -4.00987477718483       -2.43366686194991       -1.08558272694736
H           -4.03197352746896       -2.59685687985198        0.45770018834966
O           -0.24873645726534       -1.95102850396054        4.53849579762414
H            0.36889099749325       -1.22132173672047        4.53337081825917
H           -0.01548813890007       -2.54063193850740        5.24963985898345
O            0.82370493033999       -1.20074988901120        6.54509924332172
H           -0.00794915545796       -1.00541967153967        6.96913097599954
H            1.50283200597182       -0.59580640728217        6.83945139977817