37
 energy: -59.757555734966 gnorm: 0.180371218183 xtb: 6.7.1 (edcfbbe)
N            0.00260500000000        0.26833900000000        2.34949800000000
C            0.00561000000000       -0.53426800000000        1.12782400000000
C           -0.01360500000000        0.36044200000000       -0.11757000000000
C           -0.00658000000000       -0.48411400000000       -1.39958300000000
C            0.00530900000000        0.34606300000000       -2.65559300000000
O            0.01598000000000        1.56658800000000       -2.61114500000000
O            0.01013600000000       -0.27058000000000       -3.85192000000000
H            0.84383000000000        0.88923800000000        2.37341700000000
H           -0.86762500000000        0.84621600000000        2.39703300000000
H           -0.88589600000000       -1.19861800000000        1.12403900000000
H            0.91775600000000       -1.17084600000000        1.11100500000000
H            0.88289000000000        1.01613200000000       -0.10393900000000
H           -0.92488100000000        0.99783100000000       -0.09978000000000
H           -0.91002800000000       -1.12912700000000       -1.41351300000000
H            0.89428700000000       -1.13411000000000       -1.40682800000000
H            0.03021100000000       -0.36918600000000        3.17705500000000
O            0.96710000000000       -3.54021300000000       -2.44720400000000
H            0.73961700000000       -3.49319600000000       -3.40983100000000
H            0.75828100000000       -4.47290800000000       -2.18819200000000
O           -1.92427800000000       -3.23059800000000        4.09634100000000
H           -2.14064500000000       -4.14785200000000        3.79230000000000
H           -2.51390000000000       -3.08279100000000        4.87807800000000
O           -0.54450400000000       -4.10292800000000       -0.47341400000000
H           -0.68924500000000       -3.28854500000000       -1.01787800000000
H           -1.25089800000000       -4.72955700000000       -0.77167000000000
O           -1.38088800000000       -3.16960500000000        1.97763800000000
H           -1.34463000000000       -4.07126700000000        1.56983800000000
H           -0.45918700000000       -3.00617900000000        2.30070500000000
O            0.07749400000000       -3.54836700000000        6.51602100000000
H            0.93609600000000       -3.08423000000000        6.34872100000000
H           -0.51642800000000       -3.24248800000000        5.78505700000000
O            1.57830800000000       -4.18971400000000        3.29740600000000
H            1.74221800000000       -4.35048200000000        2.33413100000000
H            1.65022800000000       -3.20749300000000        3.40076200000000
O           -2.65028400000000       -3.03027200000000       -1.96863000000000
H           -2.20676500000000       -3.69838800000000       -2.54959700000000
H           -3.29625100000000       -3.55662900000000       -1.43357200000000
37
 energy: -59.785882291806 gnorm: 0.085802511756 xtb: 6.7.1 (edcfbbe)
N            0.00155118646784        0.26725083600552        2.35401185125121
C            0.00425661504386       -0.53918461317374        1.12175947126665
C           -0.01184191876472        0.35544497255601       -0.11643266410139
C           -0.00786628677265       -0.48447142822197       -1.39528177437790
C            0.00545073671671        0.35184536564651       -2.66449530818343
O            0.01745330804277        1.58973813795287       -2.60724861570811
O            0.00745447630914       -0.27770905089720       -3.79694325018717
H            0.82788418952892        0.88636251883004        2.37923757392452
H           -0.85431380153570        0.84246828389859        2.39763762255470
H           -0.87344662244304       -1.19791141142626        1.11607200631453
H            0.90405715790982       -1.16511454111277        1.09793190650622
H            0.86625557631020        1.01414210366729       -0.12499912630807
H           -0.90553050814006        0.99259627536768       -0.11766250263824
H           -0.89990876652601       -1.12323924440951       -1.42798985010476
H            0.87344652520264       -1.13944933938964       -1.42103869784546
H            0.01905975041305       -0.35472637243583        3.17632822894716
O            1.00949588345779       -3.54590203040491       -2.49088701291067
H            0.74577628769986       -3.48694293141136       -3.42144834695873
H            0.78118024061840       -4.45198992923559       -2.20682197715498
O           -1.92050060030170       -3.24411781790005        4.21494862841810
H           -2.15159292583250       -4.11425871930512        3.84055862908806
H           -2.55987271039174       -3.09455500134310        4.93052611569190
O           -0.57169312714467       -4.12874210258459       -0.43518818541966
H           -0.67834824314877       -3.32120146457499       -0.97384633310353
H           -1.25440674764062       -4.73460749753908       -0.76377141477238
O           -1.33979441520060       -3.14898086493547        1.88745579814296
H           -1.32287727697580       -4.04855947637562        1.52454085658952
H           -0.45942725889480       -3.04269899281914        2.29510937860897
O            0.06680654447716       -3.52688648574771        6.51797223168066
H            0.92367732652573       -3.09959150058425        6.35247438121364
H           -0.49818212423469       -3.26449900016464        5.76441738246675
O            1.55558381482130       -4.17575662916040        3.28061717753407
H            1.74900547663581       -4.35165106623420        2.34419312181809
H            1.67373324497740       -3.21692728225862        3.38853810050315
O           -2.64971683506332       -3.03735658723741       -1.96698369578302
H           -2.23791326778036       -3.68424403716601       -2.56450319244661
H           -3.30345690436648       -3.54227507587558       -1.45177851451649
37
 energy: -59.797171384269 gnorm: 0.032690199732 xtb: 6.7.1 (edcfbbe)
N           -0.00132727233826        0.26788057028788        2.35722740713370
C            0.00553430858868       -0.53886968994468        1.11255188843090
C           -0.01150486443245        0.35517012744047       -0.11876269557487
C           -0.01246150099481       -0.48546476603118       -1.39172296347127
C            0.00407069481378        0.35635130233012       -2.67976760066405
O            0.01964232647120        1.60693220400622       -2.58993907123890
O            0.00319892675874       -0.27241091111761       -3.75413680833092
H            0.81444395859113        0.88556902657422        2.38477886187804
H           -0.84716920976138        0.84225569969866        2.39148918302689
H           -0.86469328691581       -1.19109686313040        1.10479332114195
H            0.89847922023323       -1.15588880063364        1.08607465454024
H            0.85805881735622        1.01122903117533       -0.14758983589571
H           -0.89574697942910        0.98972792331640       -0.13662596609773
H           -0.90261769554529       -1.11214612835530       -1.44515386522383
H            0.85591385428593       -1.14347829303264       -1.43865647881419
H            0.00200592137660       -0.34496802959604        3.17516601528977
O            1.03122229900969       -3.54438796100256       -2.52431711314352
H            0.76568093446610       -3.47198618035651       -3.43787402363453
H            0.81414691875967       -4.43642244572527       -2.22803730631770
O           -1.88255695995065       -3.26047479612493        4.35491963971893
H           -2.13506818403668       -4.07738135478340        3.89381711275249
H           -2.60853727707025       -3.09420396047371        4.97793359087543
O           -0.53200554283868       -4.21162049096677       -0.47798833711447
H           -0.66599448596390       -3.35744414703233       -0.91672074361731
H           -1.27002995815955       -4.75354601832599       -0.75989476657394
O           -1.33234477540058       -3.14718213044171        1.91636376332047
H           -1.32229289026416       -3.99803118089697        1.47916539245985
H           -0.46530424338012       -3.07196056261836        2.31672861915128
O            0.05014811571676       -3.50698427565100        6.51984330003479
H            0.91096966632663       -3.11602982510897        6.35805385710959
H           -0.48364874203431       -3.30926293914270        5.72780827870110
O            1.51782970858786       -4.15393308646482        3.25446166588870
H            1.75753543565309       -4.36037650821184        2.34569967226857
H            1.71704894124047       -3.21694198005501        3.36876727930277
O           -2.65081477488048       -3.04120423615607       -1.96709556621555
H           -2.28435788849023       -3.66623972563094       -2.59955333908265
H           -3.32601551634874       -3.51888059781875       -1.47479702201360
37
 energy: -59.803358376199 gnorm: 0.059491132218 xtb: 6.7.1 (edcfbbe)
N           -0.00570578836364        0.26818418961718        2.35810056982077
C            0.00802953560798       -0.53718208608845        1.10729729661068
C           -0.01046738820479        0.35703472010677       -0.12150956025604
C           -0.01764134254500       -0.48395121466167       -1.39097771613206
C            0.00584237577146        0.36149578269497       -2.69301000777788
O            0.02599193018350        1.61492438296271       -2.57877084532892
O           -0.00276336659212       -0.27212457255376       -3.75393436868872
H            0.81002441303233        0.88458208116893        2.39021017397300
H           -0.84939026409864        0.84628693684760        2.38040059890276
H           -0.86224236271335       -1.18925968597875        1.09948649583103
H            0.90392878722249       -1.14970317502689        1.08162251719611
H            0.86096592346139        1.00955703808084       -0.16199687504897
H           -0.89382187551192        0.99213671219119       -0.14665383767389
H           -0.91503597887215       -1.09918009666800       -1.45704561487750
H            0.84508930987737       -1.14801488058298       -1.44990072055253
H           -0.01657347942093       -0.34431247882932        3.17641620193304
O            1.10776735958710       -3.54212840229326       -2.57727560831849
H            0.76778620902600       -3.44659640141707       -3.47171142809284
H            0.84453623391862       -4.41409605288706       -2.25370158029397
O           -1.87628872196011       -3.25238187104333        4.45560478996867
H           -2.09401385013401       -4.05360825251772        3.97049222500972
H           -2.62922947871278       -3.08564504554017        5.03777412050936
O           -0.55544737438484       -4.27872505897837       -0.43535822004173
H           -0.63018843737237       -3.41266172553110       -0.86083510758580
H           -1.29929138770369       -4.79071377193196       -0.75818973972202
O           -1.31932651479739       -3.13697229932732        1.92553298573150
H           -1.31474876742800       -3.94118165353360        1.38246232657606
H           -0.46660351894811       -3.13288599354124        2.39345359352413
O            0.01755475789877       -3.47576016185985        6.54393381575654
H            0.90123463672456       -3.14262210870602        6.35287648870162
H           -0.48431697099527       -3.37224551950484        5.69352000916626
O            1.43823098436151       -4.11919220199989        3.22181238997298
H            1.78140314788270       -4.37710822786414        2.34407567527599
H            1.79248683323932       -3.20237339336650        3.34289399642014
O           -2.61756983012244       -3.04358818702314       -1.93456524294279
H           -2.34227406333923       -3.64326307122517       -2.65747666900119
H           -3.37649367557357       -3.49042625319010       -1.51804312854381
37
 energy: -59.806091482728 gnorm: 0.065306903864 xtb: 6.7.1 (edcfbbe)
N           -0.01287385059343        0.26824656377977        2.35686319713561
C            0.01103085906581       -0.53475030492338        1.10090432772596
C           -0.00905590499820        0.35909949414933       -0.12670605070779
C           -0.02417415168313       -0.48249922746329       -1.39232052238981
C            0.00659689999039        0.36823992463772       -2.70897803672386
O            0.03531007358189        1.62087225900630       -2.57079567221944
O           -0.00901211449876       -0.27563585076750       -3.76811036752652
H            0.80632043029218        0.88231445193088        2.39728163828044
H           -0.85573845978762        0.85241794592591        2.36341080572863
H           -0.85895442685236       -1.19159106939158        1.09404660072050
H            0.91294160267759       -1.14283941803787        1.07860331923785
H            0.86622967711835        1.00849000946122       -0.17733271931435
H           -0.89312424586781        0.99614500139618       -0.15572235993400
H           -0.93125443720479       -1.08584918450908       -1.46848008555157
H            0.83415367895500       -1.15373083708864       -1.46157762920798
H           -0.04281718511660       -0.34717918410995        3.17607868314437
O            1.19669027319503       -3.53807507899225       -2.62359431784825
H            0.78398834813688       -3.41851433889415       -3.49875434623673
H            0.87563355601523       -4.38711240445059       -2.26972334728129
O           -1.85939209139723       -3.24240508445604        4.58953763566779
H           -2.05455977361258       -4.01117617894345        4.04144927857525
H           -2.65676704352018       -3.07583897968335        5.11134613498624
O           -0.57476332171687       -4.36530802791671       -0.39803458438245
H           -0.58102853283226       -3.48097302647074       -0.80175125906541
H           -1.33370583890047       -4.83601489070299       -0.76879699613573
O           -1.30370573353423       -3.14032253013321        1.94552199915026
H           -1.28097111341689       -3.88130955989374        1.27039649144704
H           -0.46816419269193       -3.20256914926209        2.47212785872574
O            0.00415550993594       -3.50152831362326        6.52631094382609
H            0.88325715641646       -3.16279382081951        6.34627664648921
H           -0.52077319390110       -3.38699671370392        5.71752862561667
O            1.51920805236418       -4.08348116460900        3.20553250327047
H            1.74163980383649       -4.37480404313338        2.32653239623982
H            1.76011031832979       -3.17951869710069        3.29979978029964
O           -2.64507785178876       -3.03832866822577       -1.96076856757328
H           -2.37601479904532       -3.61923646704177       -2.68484549335159
H           -3.41389997694999       -3.45914543594166       -1.54624651081618
37
 energy: -59.810356290709 gnorm: 0.042956335340 xtb: 6.7.1 (edcfbbe)
N           -0.01673160107139        0.26870917321152        2.35244528324600
C            0.01486259258265       -0.53271068814352        1.09766337797608
C           -0.00536362435226        0.35883846613359       -0.13275923175253
C           -0.02692957743621       -0.48311671603781       -1.39846051021971
C            0.00603924932426        0.37334737651615       -2.71270982764825
O            0.04517295892845        1.61998154088699       -2.57503040460829
O           -0.00915197388968       -0.27274682597693       -3.78428495953048
H            0.80738507167351        0.87903311267357        2.40282649236616
H           -0.85915544265809        0.85713228107376        2.35146014887908
H           -0.85212625994294       -1.19733002883856        1.09088997043505
H            0.92054730089698       -1.13899050559622        1.08067899701821
H            0.87218486372101        1.00759492525217       -0.18099106181924
H           -0.88877071282076        0.99984554059305       -0.15418702317140
H           -0.93846846074082       -1.08216356754864       -1.46967963788760
H            0.83025444493916       -1.15785687282537       -1.46550087287088
H           -0.05780337568907       -0.35059105466220        3.17108891523080
O            1.17577663422447       -3.52135326819317       -2.62441706993575
H            0.83312506687856       -3.40703672738473       -3.50820387760063
H            0.89702559319378       -4.38124672527639       -2.29098180290335
O           -1.87712868765632       -3.21955423651398        4.63964448755732
H           -2.03839620971905       -3.98334681436568        4.06915914466818
H           -2.66879478646178       -3.07335477175735        5.15572035264208
O           -0.58126312617747       -4.40838934240785       -0.39288386825248
H           -0.56188455170219       -3.52800652777243       -0.79994427532918
H           -1.34579399605846       -4.86406352762708       -0.77383729147061
O           -1.30808365163175       -3.17225684110247        1.95764965584524
H           -1.21457290073481       -3.89803098622926        1.29976152972263
H           -0.48604504470097       -3.18023107653509        2.44487651506900
O            0.01041242326620       -3.50969332728535        6.55868586926421
H            0.88554151426484       -3.18233296220551        6.33495437572540
H           -0.54942675482820       -3.40832020876262        5.77964778241779
O            1.44342762346183       -4.03487637582366        3.18258707169476
H            1.73643989185320       -4.39151434166447        2.33043259524496
H            1.82917690070300       -3.14492321531488        3.26007351586765
O           -2.67161177801842       -3.03621926153611       -1.99381604582542
H           -2.38919383589826       -3.60625835927655       -2.69840585017204
H           -3.42923777772242       -3.44166925967980       -1.56714246987176
37
 energy: -59.808795924592 gnorm: 0.093493595856 xtb: 6.7.1 (edcfbbe)
N           -0.02084384502493        0.26797771723335        2.34555710472759
C            0.02015344593060       -0.53427617066889        1.09527325451745
C           -0.00064466667670        0.35407192168811       -0.13976550187375
C           -0.02923022862345       -0.48614791425280       -1.40874983374637
C            0.00815775366455        0.38080643975360       -2.71028772333566
O            0.05590562631638        1.61912833069699       -2.57861481866083
O           -0.00651128315634       -0.25507671661875       -3.79403749899586
H            0.80772989831263        0.87246831261689        2.40947267436566
H           -0.86032678999925        0.86063977546490        2.33845713160286
H           -0.83916212606562       -1.21003653125446        1.08830086043949
H            0.92914777217202       -1.13598830325834        1.08523492205503
H            0.87757776085933        1.00260092790768       -0.18156953915306
H           -0.88035015079547        1.00120337955015       -0.14837319095184
H           -0.94269014759440       -1.08166807256638       -1.47132524974844
H            0.82552504030836       -1.16376849871889       -1.47011679991662
H           -0.07296325214502       -0.35325895257385        3.16229760981546
O            1.16984904902890       -3.51811034698620       -2.62421229890733
H            0.84579132262304       -3.37423455931442       -3.50473273648242
H            0.89649710675578       -4.38532367174370       -2.32661901309518
O           -1.89177446632402       -3.20038246358378        4.67768149658065
H           -2.03097020951770       -3.94965804319833        4.07265363339924
H           -2.71705112678181       -3.06347672914851        5.16085745534155
O           -0.57905582958940       -4.44097940279074       -0.40693303323111
H           -0.56303887800790       -3.57971612361719       -0.82668038346947
H           -1.34561591847706       -4.89257405051943       -0.76477077551551
O           -1.28839067341551       -3.17626037072509        1.95320938146006
H           -1.16260676657333       -3.88191189140199        1.32573233750418
H           -0.49414186084604       -3.21974472851772        2.49792494939666
O            0.01983937989059       -3.47512603036385        6.66002957560969
H            0.90331371979374       -3.21384584769695        6.31579741049473
H           -0.56661060563596       -3.48187527545136        5.85268019056695
O            1.41293646713233       -3.98387269003487        3.15316346533650
H            1.72318197710685       -4.37939412918871        2.32067649192818
H            1.86049905892967       -3.11067959107951        3.21875696956802
O           -2.58738140289783       -3.05595160243089       -1.92275390128228
H           -2.46554780948059       -3.58314989697705       -2.78883543293231
H           -3.47975934119559       -3.41611020023230       -1.62836918341141
37
 energy: -59.813321840165 gnorm: 0.061221456517 xtb: 6.7.1 (edcfbbe)
N           -0.02619974775394        0.26727177428141        2.34022930574086
C            0.01993987939288       -0.53686486479954        1.09200059064667
C           -0.00129856589089        0.35096507310126       -0.14400386549112
C           -0.03125444878923       -0.48777745059166       -1.41489483012909
C            0.01136418652630        0.38254883643892       -2.71094193425298
O            0.05793745968096        1.61978432421743       -2.57920329603251
O           -0.00630258080342       -0.24459326713439       -3.79427465439543
H            0.80257297361728        0.86958309558336        2.40964889408432
H           -0.86346854915474        0.86134079073528        2.33024400819301
H           -0.83620441888355       -1.21519888745089        1.08298662136092
H            0.93038813428796       -1.13494361968791        1.08421478946983
H            0.87706502240630        0.99871529624963       -0.18543766795035
H           -0.87920362462717        0.99989054136136       -0.15079753221543
H           -0.94409230968427       -1.08294967425410       -1.47732503964801
H            0.82172344000768       -1.16638736252132       -1.47534786785168
H           -0.08260739953755       -0.35273607717088        3.15629291873311
O            1.21071130108508       -3.52240957872295       -2.61606942240475
H            0.85134903009417       -3.35182871257006       -3.49199475384687
H            0.90421452129433       -4.38769383711817       -2.32813653847735
O           -1.90091724755891       -3.19459778542730        4.68612556497921
H           -2.03489014407125       -3.93734760971606        4.08586060160772
H           -2.73593796420096       -3.04843978865445        5.15534931864568
O           -0.58772659711133       -4.45502770395090       -0.40155526119647
H           -0.55517623965602       -3.60133635914403       -0.83450856491008
H           -1.34796133036876       -4.90593558490117       -0.76535749742775
O           -1.27420714424361       -3.17475143610390        1.94869467651660
H           -1.14655575922516       -3.85749461142996        1.27901323818506
H           -0.49130673634297       -3.26506562772453        2.55895695549690
O            0.03028565847001       -3.49073239317031        6.67602599004707
H            0.89803859787035       -3.21094205204585        6.33747132738748
H           -0.57019433943886       -3.48998639721989        5.88087182035449
O            1.38110257342865       -3.96370293569149        3.13298759425912
H            1.73207636055562       -4.36760351184041        2.31479000169956
H            1.87477078992123       -3.10387180316175        3.20592229400506
O           -2.67500079561408       -3.04283880861920       -2.00382473565030
H           -2.43496315681233       -3.58220829948736       -2.75391661384363
H           -3.44663282886923       -3.41853569166187       -1.59308643568844
37
 energy: -59.808697064577 gnorm: 0.104393496862 xtb: 6.7.1 (edcfbbe)
N           -0.02893430469885        0.26389300344152        2.33767395273118
C            0.02210352617418       -0.54122409983113        1.08902082203028
C           -0.00007408089331        0.34873969204847       -0.14420412325110
C           -0.03116119226918       -0.48720177460063       -1.41605503629650
C            0.01442232528306        0.38165940561922       -2.71293308736744
O            0.06328476212651        1.62386866459948       -2.57460927660355
O           -0.00676822247859       -0.24319001886160       -3.79134524744507
H            0.79872783620585        0.86507530291376        2.41031080327266
H           -0.86409031163654        0.85958809637087        2.32356154501931
H           -0.83435106554955       -1.21646313810819        1.07609563059832
H            0.93366040254609       -1.13629820886617        1.08079688560318
H            0.87952636875415        0.99406893936522       -0.19276678440548
H           -0.87812844548413        0.99647315511376       -0.15685098757702
H           -0.94452253269004       -1.08122634224679       -1.48453780120387
H            0.81910772716732       -1.16882585079723       -1.48228881919647
H           -0.08997340526963       -0.35475896379577        3.15345142747845
O            1.23177023677166       -3.52273614852677       -2.61344001345561
H            0.86730995799537       -3.33462462418452       -3.49158024353391
H            0.91036429728769       -4.39348495513994       -2.33771332213574
O           -1.90964083951489       -3.19589085384131        4.72928369689801
H           -2.05492414486652       -3.92107001712931        4.11929206485723
H           -2.72166398239223       -3.04759717964914        5.19904392759292
O           -0.61468131913656       -4.47705875090395       -0.37934629158759
H           -0.52182489429364       -3.61559732890611       -0.82830209592502
H           -1.38064663159611       -4.91018396296274       -0.77890243758561
O           -1.28228842729504       -3.23273914502885        2.01670829204218
H           -1.10471188225117       -3.86293091915646        1.21306262766117
H           -0.47162761791908       -3.23718943925749        2.47666779880940
O            0.04346332621918       -3.58486036415681        6.60641518365729
H            0.86813710887587       -3.19732476660788        6.40766620595599
H           -0.58155210839071       -3.39646188895780        5.92382747211906
O            1.44211153130602       -3.95456771420148        3.12881771438998
H            1.71645496540943       -4.33340514905797        2.30063470685884
H            1.80725565232865       -3.09803845344050        3.20431115073714
O           -2.66601203015387       -3.04499290444024       -2.00897798025358
H           -2.43734138727600       -3.58490521783485       -2.75839082328427
H           -3.46134319839521       -3.40222007898469       -1.60738753720482
37
 energy: -59.815632140832 gnorm: 0.050673980671 xtb: 6.7.1 (edcfbbe)
N           -0.03179788456570        0.26246804378303        2.33406835515110
C            0.02342455267535       -0.54322382496167        1.08764381357020
C            0.00168957881838        0.34672937060472       -0.14673409649421
C           -0.03121620690286       -0.48727013224399       -1.42052885482839
C            0.01481787987661        0.38517458936751       -2.71078287635765
O            0.07053330715513        1.62503289012459       -2.57489071591261
O           -0.00429408364720       -0.23603902257387       -3.79663421076468
H            0.79772554145914        0.86170021135093        2.41177114090641
H           -0.86604111862150        0.86013571703571        2.31681842052282
H           -0.83018589130980       -1.22352965677963        1.07421284560043
H            0.93700047345925       -1.13605414499518        1.08215595667183
H            0.88211313383991        0.99166328609505       -0.19285978644672
H           -0.87579906662840        0.99609526154927       -0.15562320167277
H           -0.94596708214567       -1.07984248488531       -1.48689522711717
H            0.81884589667258       -1.16990317142872       -1.48510964132458
H           -0.09714354289246       -0.35664097739148        3.14978907313468
O            1.22224176536775       -3.51793074603515       -2.60670508230690
H            0.88125811316389       -3.32095227935047       -3.48454293792375
H            0.91495664179601       -4.39654451960487       -2.35323807394930
O           -1.89541291325741       -3.19238116411730        4.74147438994408
H           -2.05355084228850       -3.90279826921049        4.09453898723791
H           -2.74791389778742       -3.04469934958013        5.18270567250218
O           -0.60669044587488       -4.48391318946959       -0.38746854131911
H           -0.51893291863463       -3.62742375441211       -0.83626667055979
H           -1.38498997412524       -4.90871065937822       -0.76919830770635
O           -1.25481325863715       -3.20395761051417        1.97621299703296
H           -1.13314617452391       -3.86381841583836        1.28079935414450
H           -0.45642893120725       -3.29274388559642        2.52471967207335
O            0.05346906517773       -3.61783040361808        6.61624156346800
H            0.87200228874694       -3.20450511792490        6.41358492742659
H           -0.60174950455492       -3.39346225427943        5.96330598514466
O            1.38789077759865       -3.92726979197046        3.11083892266202
H            1.71224513769369       -4.33737204717743        2.29852741882837
H            1.85626132715373       -3.07847365725791        3.18522189498052
O           -2.64473023359644       -3.05101890338883       -1.99573227826661
H           -2.45903874051751       -3.58431316567862       -2.78205595685115
H           -3.47519476893585       -3.39007877025240       -1.62235493120106
37
 energy: -59.816085790161 gnorm: 0.066599727439 xtb: 6.7.1 (edcfbbe)
N           -0.03768713764110        0.25747336363194        2.32766143154936
C            0.02603741387751       -0.54782056628872        1.08310895789037
C            0.00460513800714        0.34194371788719       -0.15224210839269
C           -0.03169574863908       -0.48900660502305       -1.42852559776249