37
 energy: -59.781100358205 gnorm: 0.171581683308 xtb: 6.7.1 (edcfbbe)
N            0.05814800000000       -0.92758300000000        1.46960700000000
C            0.21195900000000        0.51002000000000        1.25738900000000
C           -0.42029600000000        1.02660100000000       -0.05399500000000
C            0.23290900000000        0.51099500000000       -1.35178600000000
C           -0.12525300000000       -0.89643600000000       -1.75561800000000
O            0.43258500000000       -1.42088200000000       -2.86197900000000
O           -0.94795900000000       -1.55110300000000       -1.13717200000000
H            0.42854800000000       -1.16686800000000        2.41684100000000
H           -0.95187600000000       -1.19383100000000        1.43153800000000
H           -0.27873900000000        1.04478500000000        2.10014800000000
H            1.29199600000000        0.77262900000000        1.27882300000000
H           -0.26331200000000        2.12751800000000       -0.03828000000000
H           -1.51695700000000        0.85134800000000       -0.07337000000000
H            1.33463900000000        0.61768200000000       -1.26361400000000
H           -0.10456000000000        1.15854300000000       -2.18948000000000
H            0.61816600000000       -1.46341800000000        0.77094700000000
O           -1.92023900000000        2.48466100000000       -4.50368100000000
H           -2.35657700000000        2.65243300000000       -3.63071300000000
H           -2.15507400000000        3.27363600000000       -5.05412200000000
O           -1.80058300000000       -3.86116200000000        3.29786900000000
H           -2.00067900000000       -4.59978200000000        2.66936800000000
H           -2.28082700000000       -3.08011700000000        2.92377400000000
O            1.57056300000000        2.85055300000000       -5.01889800000000
H            0.95917700000000        2.64737500000000       -5.77091900000000
H            1.13072000000000        2.45110100000000       -4.22669200000000
O            1.29859700000000       -4.19687100000000       -3.92662400000000
H            1.01986400000000       -3.24687800000000       -3.94744500000000
H            0.76548800000000       -4.62756700000000       -4.64140300000000
O            1.14428200000000       -4.32724400000000        3.73258200000000
H            1.55627900000000       -3.46529100000000        3.47199400000000
H            0.44190900000000       -4.48231800000000        3.05196800000000
O            0.03476900000000       -4.78454000000000        0.90738200000000
H            1.01325300000000       -4.63457200000000        0.93361900000000
H           -0.28805800000000       -4.18994800000000        0.18429300000000
O           -0.42551200000000       -4.78337800000000       -1.92121900000000
H            0.42237100000000       -4.27197300000000       -1.90817900000000
H           -0.99900300000000       -4.29654500000000       -2.56520200000000
37
 energy: -59.803039269756 gnorm: 0.089019173328 xtb: 6.7.1 (edcfbbe)
N            0.05824714842987       -0.92666612773650        1.47076145643443
C            0.21196185542532        0.52029067990306        1.25439217323110
C           -0.40737545660570        1.02955043742801       -0.05227449756000
C            0.23519155809239        0.51139958593143       -1.34932206120542
C           -0.14619196015680       -0.90027354733746       -1.77223963501491
O            0.43627729870126       -1.38856065383567       -2.82136599390724
O           -0.93334550799802       -1.57729269529052       -1.09499832547999
H            0.41305483061221       -1.18056862169046        2.40653623429957
H           -0.93528027965774       -1.19636770226534        1.40724852808669
H           -0.27373996231019        1.04752819676215        2.08526411745804
H            1.27907328434205        0.77361831901622        1.26722723619939
H           -0.27697682700298        2.11931673145520       -0.04403559026614
H           -1.48522128367013        0.82742489191869       -0.07119815614554
H            1.32746788065611        0.60296309330668       -1.29043950149599
H           -0.09045170967192        1.14903534535531       -2.18247568525993
H            0.58897645618185       -1.45939334742878        0.76675172858609
O           -1.90493637537355        2.50825638978143       -4.48948669274214
H           -2.37082797048266        2.65158365603478       -3.64857690417822
H           -2.16726403719293        3.25985349056004       -5.04893762349291
O           -1.78638575405576       -3.84649516139601        3.27088301803890
H           -1.99182065754857       -4.58934800972929        2.67977238741534
H           -2.30860444397900       -3.10027433467793        2.92927982497058
O            1.56441938941241        2.84418764581492       -5.01985099737171
H            0.96981489158616        2.64571033154562       -5.76160559870151
H            1.13144991542953        2.45492672646837       -4.24351835999472
O            1.32843129931945       -4.17233859542635       -3.96402228914429
H            1.01720337650628       -3.24638531845897       -3.92369971699858
H            0.77445970586274       -4.60317067772067       -4.63729675612650
O            1.15431443591249       -4.32823158573792        3.72156135627302
H            1.55725985941307       -3.47925143085735        3.47676103739917
H            0.44582788346753       -4.47618197118721        3.06658817897112
O            0.02751096361933       -4.69706038096179        0.98446403887592
H            1.00798357555802       -4.66632333653567        0.89993953804046
H           -0.28372700884372       -4.24697066061403        0.15942182775860
O           -0.45314128060203       -4.74470342353229       -1.87127342057843
H            0.41875596892338       -4.30490623683795       -1.96178521332797
H           -1.00167306230008       -4.30330870202374       -2.54069866304656
37
 energy: -59.807707001341 gnorm: 0.063127687448 xtb: 6.7.1 (edcfbbe)
N            0.05620640035165       -0.92321278925482        1.46910301254449
C            0.21896257161974        0.53518333933070        1.25084819326450
C           -0.39749587034465        1.02930854893970       -0.05062642141290
C            0.24945069279067        0.50539728086518       -1.33781583688865
C           -0.09352317773041       -0.94782177258454       -1.74098621419994
O            0.36824980071272       -1.33173667119731       -2.81944823104130
O           -0.92205747091426       -1.58653850520316       -1.04596690967184
H            0.38978653648759       -1.19792686404532        2.39309182613799
H           -0.92181535321914       -1.19476377290058        1.36736188078445
H           -0.26544737098478        1.05105316849178        2.07107515814243
H            1.27647916706495        0.77039289240378        1.25761228899465
H           -0.29946576115406        2.10951215606148       -0.05175940577477
H           -1.45592068242280        0.78731115371485       -0.07435391054779
H            1.33103695984402        0.58498477282470       -1.30480556751620
H           -0.07309336333524        1.11939204729020       -2.17710490076238
H            0.54805343364366       -1.45472275638872        0.75212176139618
O           -1.89618024006958        2.53318906052168       -4.47627089281439
H           -2.38265933419976        2.65227487315430       -3.66391721603939
H           -2.17537098249169        3.24862837002043       -5.04606460006008
O           -1.79607412850510       -3.83084606002024        3.25014872881995
H           -1.96384322599329       -4.57583016436616        2.68140986276784
H           -2.34449968543093       -3.11858788897067        2.92828094034340
O            1.56037230715075        2.83572755589905       -5.02098498508914
H            0.98754016062492        2.64148720703401       -5.75700031708534
H            1.13454243062271        2.45992227984134       -4.25796978307250
O            1.30790808096903       -4.14544464046725       -3.95242296657991
H            1.04221244373974       -3.22561451776873       -3.91323905910242
H            0.80551096199256       -4.56308733920805       -4.64592805035817
O            1.16465072770632       -4.32672955020646        3.71676442430632
H            1.56770964740927       -3.49572035605433        3.48660432723970
H            0.44980403289293       -4.46681501568963        3.08885122215993
O            0.03863621997216       -4.70698585221757        0.95337274553021
H            0.98065503931564       -4.65468686762870        0.90727517221229
H           -0.29863442194139       -4.26574834423515        0.17705777460636
O           -0.45086379093116       -4.72197700856522       -1.85447856046004
H            0.41667913733158       -4.32282982427328       -2.02421925608421
H           -1.02678389257529       -4.29456514514722       -2.47786523468971
37
 energy: -59.812345391390 gnorm: 0.077451200988 xtb: 6.7.1 (edcfbbe)
N            0.05018127550161       -0.92279418245370        1.45977314052006
C            0.22790894197280        0.53561522884944        1.25109623082230
C           -0.39688501988901        1.02344151699727       -0.05003379428425
C            0.25115270420005        0.50115063635291       -1.33545865922624
C           -0.11043147194726       -0.94986776942852       -1.75371659498911
O            0.36686381980016       -1.35096786015474       -2.82159054778439
O           -0.88142164518230       -1.60456096847959       -1.00390371799918
H            0.37534924520403       -1.20956935343621        2.38600763905922
H           -0.93322285748095       -1.18541892814116        1.34244937452098
H           -0.25834007765891        1.05268809798476        2.07434161935536
H            1.29105185892673        0.76329072305545        1.25723404612123
H           -0.31064363445598        2.10856901967679       -0.05401177331915
H           -1.45535668223761        0.76450849004158       -0.07604509383063
H            1.33812342300415        0.56972837879758       -1.30733437475799
H           -0.07778379850998        1.11584476678752       -2.17487174305386
H            0.53641110488953       -1.45437248702313        0.73353228281263
O           -1.86073251864767        2.56204359532268       -4.45792096424321
H           -2.41428592428686        2.64537905321647       -3.66821997773632
H           -2.19602320665244        3.24218759590917       -5.06026050116406
O           -1.77343031158001       -3.80371294808558        3.22747094314646
H           -1.94038204136895       -4.57972710412558        2.68768351179124
H           -2.40534401308321       -3.12752149414059        2.93120300785175
O            1.56540758255793        2.83360188023385       -5.02260718030890
H            0.99924596791817        2.63632765011512       -5.77001479165617
H            1.12975171111079        2.46155467808628       -4.25623522018513
O            1.30503610764516       -4.11899401149370       -3.93632076240433
H            1.05004492564285       -3.19319991859441       -3.89783716314419
H            0.82701401709100       -4.52992972443265       -4.65916381072641
O            1.18085615610586       -4.33988018843541        3.71318691712649
H            1.58552249204416       -3.49911435194130        3.49876265555215
H            0.44524060668588       -4.45799121901285        3.09787489092394
O            0.01832515946686       -4.60417517089675        1.04631484990811
H            0.99069169148692       -4.70227747714823        0.86273494126123
H           -0.30693771346092       -4.33424762238139        0.12395691743148
O           -0.45588634477280       -4.69624688487368       -1.81099205131076
H            0.43825179345182       -4.34885101224334       -2.08884649623655
H           -1.06460532349328       -4.29093763450422       -2.43048674984457
37
 energy: -59.811464114010 gnorm: 0.069127667283 xtb: 6.7.1 (edcfbbe)
N            0.04270506849226       -0.92500981500191        1.45167080044266
C            0.23432284175727        0.53047997598083        1.25246907631635
C           -0.39520165508573        1.01518710299235       -0.04993017895527
C            0.24930028103389        0.49752473532295       -1.33706016777012
C           -0.16155353968452       -0.93307149484388       -1.79067425479897
O            0.40107427107736       -1.38863090685691       -2.81625827562985
O           -0.83677082011275       -1.63069872103320       -0.97204166669075
H            0.36061865192010       -1.22357609692518        2.38141241298589
H           -0.94822788205951       -1.17598685230686        1.32288230790677
H           -0.24911902168884        1.05407099246598        2.08068549406553
H            1.30376756525738        0.75412847241198        1.25592609290726
H           -0.32141641393276        2.10681136860371       -0.05655113361572
H           -1.45495313846599        0.74369887517505       -0.07417268768481
H            1.34337308715407        0.55382233576269       -1.30718830014381
H           -0.07897558468478        1.12137993299594       -2.17358643184332
H            0.52795819193858       -1.45721288061432        0.71783452494322
O           -1.84740757658346        2.57973368019720       -4.44751276847616
H           -2.43483588320350        2.64567948849419       -3.66911540385693
H           -2.20546670417000        3.24139901487835       -5.07051669774246
O           -1.76227324913262       -3.77691475896101        3.21199131942194
H           -1.91488142759772       -4.58074314433020        2.69027141808154
H           -2.45611505070216       -3.13469296593833        2.92633551383618
O            1.57308359149926        2.83288823465568       -5.02373890172539
H            1.01332681141371        2.63048040448628       -5.78538940884571
H            1.12116564534224        2.46377874839510       -4.25430375010266
O            1.32950265274678       -4.08206373422907       -3.93613197070387
H            1.04319521278813       -3.15669580797869       -3.86638956599845
H            0.84940562776539       -4.48952628240109       -4.67070641175889
O            1.20546189741894       -4.35894341192181        3.71450843246094
H            1.60449931631714       -3.50136031496046        3.51612544606279
H            0.43672851104695       -4.44627343238665        3.12073367767676
O            0.02543213093742       -4.68349344871700        0.96121168266980
H            0.97621791357501       -4.67895504997333        0.89842544930123
H           -0.32015309281763       -4.29572838270670        0.15790384761150
O           -0.44385790925785       -4.71051055448334       -1.81701494372733
H            0.42521184136167       -4.34794520715016       -2.09994931356227
H           -1.10442416166645       -4.28145709909797       -2.38440426305828
37
 energy: -59.816566085133 gnorm: 0.027147786380 xtb: 6.7.1 (edcfbbe)
N            0.03812043033932       -0.92710803107853        1.45080458164910
C            0.23361821774012        0.52707260492828        1.25002471418417
C           -0.39639520675425        1.00833515287649       -0.05328567578902
C            0.25639283335079        0.48719053539406       -1.33488626714680
C           -0.11108389779187       -0.96540386243536       -1.75611996283105
O            0.37193942314494       -1.37517543082894       -2.84243496654923
O           -0.85629379748444       -1.62340025504316       -1.00046132896506
H            0.35219518198338       -1.23076719613619        2.37851587002302
H           -0.95221466660207       -1.17295788845621        1.31753069671888
H           -0.24191830001286        1.05387392951074        2.07936573837719
H            1.30264287757629        0.74725047002472        1.25037310390027
H           -0.33180171711951        2.09947979419326       -0.06327101723641
H           -1.45306029718444        0.73032550418372       -0.07354423420387
H            1.34599045175640        0.55275179513077       -1.29410961713319
H           -0.06551466526814        1.10335284655414       -2.18020408336539
H            0.51716613608321       -1.46027354086629        0.71389957073854
O           -1.89775344095354        2.56255663764065       -4.46169101491555
H           -2.41622660494199        2.66196129082850       -3.66474774603121
H           -2.18593846762518        3.25190732462028       -5.06151687120404
O           -1.80514551078661       -3.77886545226178        3.23088000177111
H           -1.90380382084416       -4.56577097924535        2.67949363720323
H           -2.43076253288477       -3.12814558846836        2.91004449472341
O            1.57454735922124        2.83258742920539       -5.02558745520067
H            1.02270354081356        2.62711194677070       -5.79031109883708
H            1.11581909746625        2.46652923127832       -4.26058707210341
O            1.34063762179834       -4.05392380230226       -3.92896981057179
H            1.04084263253682       -3.13288292495573       -3.84555530504538
H            0.86651877839665       -4.45637538035725       -4.66851434463779
O            1.21237351575112       -4.36434976431117        3.71753999064502
H            1.61535787688252       -3.50795496207389        3.52906188398870
H            0.44515508986974       -4.43993319722009        3.12480902778635
O            0.01820834989277       -4.65277233405336        0.98378695762667
H            0.97301781256841       -4.69931927520013        0.89240431628637
H           -0.31458831654559       -4.31860275973229        0.13875874767598
O           -0.43938237867951       -4.72495554009069       -1.83055534748697
H            0.40418981975509       -4.34856001609863       -2.09281638138640
H           -1.11483542545037       -4.27321531192423       -2.36037273265808
37
 energy: -59.815183071906 gnorm: 0.081982543879 xtb: 6.7.1 (edcfbbe)
N            0.03027330734841       -0.93215011119241        1.45108400913205
C            0.23517702318446        0.52089846615034        1.24311807951868
C           -0.39744009729913        0.99586694566474       -0.06011845207969
C            0.26276957676480        0.47583931463990       -1.33908123756421
C           -0.07205870599357       -0.99725590488229       -1.73861517404753
O            0.35716596875021       -1.37138419658606       -2.84626555766418
O           -0.85183617878850       -1.63181556023234       -1.00764399653337
H            0.33628270657980       -1.24155893098428        2.37492472485674
H           -0.95728920375033       -1.17032997870181        1.30931594737044
H           -0.22958988756320        1.05142797139843        2.07156345038080
H            1.30265107200925        0.73185306465965        1.23979757746542
H           -0.34259592172267        2.08326049145138       -0.07170884710938
H           -1.44886251794288        0.71074205475527       -0.07651271581863
H            1.34744235678517        0.54069147795791       -1.28824041604902
H           -0.04822821314016        1.08844794566453       -2.18846432148596
H            0.49620800067179       -1.46941319570092        0.71200234981850
O           -1.85813655501180        2.59892254664873       -4.43755243828303
H           -2.45551479188714        2.65996386313323       -3.67755124291699
H           -2.20351949429362        3.24025972265642       -5.07444292270255
O           -1.78091971271596       -3.74899172526007        3.19764479000427
H           -1.88194485195543       -4.55075976412220        2.67945221390686
H           -2.49693825419158       -3.14677742404997        2.91731668592352
O            1.58107006282453        2.82856114219837       -5.02799375335250
H            1.04248867644561        2.62221088148398       -5.79488682910509
H            1.11386538593038        2.47061007857212       -4.27132664614251
O            1.32303176781811       -4.00709747474999       -3.88437346300238
H            1.04934842327279       -3.08568195324928       -3.82250901115528
H            0.89852728056001       -4.39437103421415       -4.66100944162112
O            1.21668644124362       -4.36450810950214        3.72604594296584
H            1.63229518388431       -3.51924434027422        3.54688945912814
H            0.46052191848912       -4.43099977037431        3.13197248776592
O            0.00254947104719       -4.60699786647863        1.00448762361327
H            0.95727465242644       -4.73489634760811        0.88681091665580
H           -0.30475142153042       -4.36300433955384        0.09467020281125
O           -0.48020292801332       -4.65832689754816       -1.73677005096975
H            0.42823733536911       -4.40687828859540       -2.20529952429049
H           -1.13331987560825       -4.27553975317428       -2.31897941942480
37
 energy: -59.818446635782 gnorm: 0.076066113993 xtb: 6.7.1 (edcfbbe)
N            0.02397180292830       -0.93654346723711        1.44845313724737
C            0.23768437102833        0.51505620438628        1.23747386296721
C           -0.39816114125556        0.98667500863287       -0.06518922392948
C            0.26343277888245        0.47055572995303       -1.34492557350510
C           -0.09522254774422       -0.99445116778950       -1.76357931179831
O            0.36602213701563       -1.38363118411683       -2.83969422643083
O           -0.82990252263482       -1.64938614849613       -0.99332354990190
H            0.32485316310373       -1.25036113630045        2.37135784129931
H           -0.96404054419575       -1.16849692160124        1.30191159222879
H           -0.22179014321398        1.04977430184213        2.06582579167169
H            1.30599228710572        0.72026815382908        1.23067324217820
H           -0.34952662930953        2.07345797297861       -0.07762109690011
H           -1.44775484669708        0.69600429820903       -0.08100455577440
H            1.34948015438920        0.52596481555377       -1.29151448728789
H           -0.04189309638300        1.08787235185402       -2.19115309678786
H            0.48284167371855       -1.47733667194031        0.70765719794211
O           -1.84896258340317        2.61496236572973       -4.42720528267433
H           -2.47563534756390        2.66143369996978       -3.68061272104937
H           -2.21280979036986        3.23779000666267       -5.08098074515647
O           -1.77891786887930       -3.73253180981266        3.19089545538221
H           -1.86242548776629       -4.53786137757814        2.67669357899638
H           -2.51807638972145       -3.14971383634364        2.91685188431097
O            1.58296276261219        2.82724987724326       -5.03062590303612
H            1.05357230050906        2.61952292626263       -5.80272322853790
H            1.10622842779280        2.47475985709273       -4.27802658266437
O            1.31870792757812       -3.97627558874326       -3.85704065508573
H            1.05294152988426       -3.05391586949770       -3.79618843544298
H            0.91875089579670       -4.35144691847070       -4.65503325417208
O            1.22689494282695       -4.37272637868246        3.72958641902212
H            1.64687109114862       -3.52730125694780        3.56412115949313
H            0.46866163001781       -4.42503404806479        3.13883352256638
O           -0.00280987657453       -4.56507527889962        1.03622399872224
H            0.95660425199762       -4.76380674223038        0.87524906506619
H           -0.30299564187718       -4.39093725425194        0.08185589103098
O           -0.44021586627162       -4.71829709994180       -1.81937127312116
H            0.38367942216948       -4.36597510495600       -2.15248452777333
H           -1.14829522664838       -4.25866930829710       -2.28761490909655
37
 energy: -59.816365581304 gnorm: 0.081406404978 xtb: 6.7.1 (edcfbbe)
N            0.01679120918499       -0.94128467659771        1.44740593118820
C            0.23873783521545        0.50614526053851        1.23855767928164
C           -0.39749324200719        0.97979110421422       -0.06528715902067
C            0.26890041382476        0.46433782841868       -1.34192711132507
C           -0.13502556061839       -0.97369282084781       -1.79647622636725
O            0.38280368313564       -1.39592875895825       -2.86125162231361
O           -0.80443207014599       -1.66848860931164       -0.98820583480332
H            0.31841554536279       -1.25621026392612        2.37501737555419
H           -0.97833673563967       -1.16626030544977        1.30678621289106
H           -0.22054786983523        1.05001027808624        2.06844131488986
H            1.31235547937994        0.71144150770091        1.22780970134627
H           -0.35207316932775        2.07240869301367       -0.08020496803994
H           -1.45081140662962        0.68512775627322       -0.08635235305942
H            1.36160595583009        0.51854608851368       -1.28520600854008
H           -0.03796684920798        1.08723100663209       -2.18687210327691
H            0.48077453148388       -1.48640437939730        0.70728238351228
O           -1.93828814720732        2.57147666337928       -4.46079224641991
H           -2.42406139380872        2.68507819054424       -3.66256221341738
H           -2.17517262018607        3.26320992266390       -5.06417076936974
O           -1.85512755764001       -3.74603092777288        3.23331534144848
H           -1.85701365470206       -4.52686061041857        2.65428427533053
H           -2.45215522164418       -3.12662973475772        2.88211650530415
O            1.58998494195116        2.82948950549604       -5.02960733412831
H            1.06741079805823        2.61491014945498       -5.81548575965155
H            1.09636928657569        2.47651864359831       -4.27676784344360
O            1.33724097154008       -3.95719354750908       -3.85428929897047
H            1.04490190578231       -3.03076851418382       -3.75659764924278
H            0.91620832535840       -4.31986402199817       -4.64639596810580
O            1.24068674733397       -4.38928236207411        3.72288865715032
H            1.65693262358089       -3.52639113544252        3.57870237249811
H            0.45692428163328       -4.41048057102147        3.14260049280870
O            0.01361210050096       -4.64183063298471        0.96768834538112
H            0.95552256828563       -4.73716450202425        0.89408874546714
H           -0.31930886224927       -4.35936410321712        0.12447659888191
O           -0.43948084355294       -4.72065824950993       -1.81613141938058
H            0.37634278212453       -4.36897231098731       -2.16626564933656
H           -1.16450878174310       -4.25438856013781       -2.27286139472134
37
 energy: -59.822731519963 gnorm: 0.029548446638 xtb: 6.7.1 (edcfbbe)
N            0.01015700106882       -0.94673817142239        1.44803936833837
C            0.23713916963918        0.49910846221842        1.23419900977353
C           -0.39812431990058        0.97205124680931       -0.07015820164383
C            0.27244699399850        0.45629721521678       -1.34536673112115
C           -0.09319822524637       -0.99765481004271       -1.77453362716752
O            0.36530555561393       -1.38284064896626       -2.88160003688946
O           -0.81155434513783       -1.66890319791708       -1.01269357584330
H            0.31155365926089       -1.26167140165934        2.37399986648365
H           -0.98448856318313       -1.16670683956227        1.31083140118824
H           -0.21555090863026        1.04647181612792        2.06344764297551
H            1.31016720706537        0.69961912898028        1.22091621441350
H           -0.35474976072248        2.06286612943000       -0.08449443661521
H           -1.44943891561320        0.67635303339396       -0.09025922120982
H            1.36153498066915        0.51422655461820       -1.28108829003709
H           -0.02823907605422        1.07763144686053       -2.19348318678794
H            0.46875424750705       -1.49585367314559        0.70861421910529
O           -1.90958180548471        2.59114264788673       -4.44431033424658
H           -2.45499040789171        2.68611156399803       -3.66766660746059
H           -2.18384268627423        3.25656513172175       -5.07399343370147
O           -1.79958201386277       -3.71257143678228        3.19410909692718
H           -1.84269949410123       -4.52225054327294        2.67095592772912
H           -2.52835199966733       -3.14359092516215        2.88772070560971
O            1.59440008186586        2.82739743116201       -5.03196539379711
H            1.07891573274437        2.61219347328987       -5.81902998507036
H            1.09422609461519        2.47941264861763       -4.28425882366996
O            1.34141763592720       -3.92820269700579       -3.83664952720632
H            1.04402266181820       -3.00493507809876       -3.72476512922541
H            0.92580827636354       -4.27812582017481       -4.63444589737450
O            1.24202937763981       -4.38796451054009        3.72990541527627
H            1.66637967543371       -3.53305694024535        3.58700866319195
H            0.46868098517050       -4.40876104963015        3.14490253908003
O            0.00778147848470       -4.61774783662373        0.98498946627802
H            0.95079442767923       -4.75367008974929        0.89489937922371
H           -0.31393068676070       -4.38596966839604        0.10163735193163
O           -0.45626337113084       -4.70622031711765       -1.78845785635653
H            0.37193834547346       -4.37986415292018       -2.19768359122586
H           -1.16814900838061       -4.26257512189668       -2.26152138087627
37
 energy: -59.820430769885 gnorm: 0.094564481241 xtb: 6.7.1 (edcfbbe)
N           -0.00474698951080       -0.95824564495086        1.44772103497620
C            0.23679035344168        0.48539755402419        1.22399830552613
C           -0.39873460443302        0.95508078886414       -0.08056791145853
C            0.27495700126334        0.44626517268727       -1.35777710851529