34
 energy: -56.600633572259 gnorm: 0.178408173504 xtb: 6.7.1 (edcfbbe)
H            1.51131700000000       -0.30682800000000       -0.55501400000000
C            0.42356400000000       -0.53272100000000       -0.60971700000000
H            0.15351800000000        0.48284000000000       -2.37712700000000
H            0.30622500000000       -1.51992900000000       -1.10801900000000
N           -0.26687200000000        0.47309100000000       -1.42055200000000
H            0.31243500000000       -1.51306200000000        1.31258500000000
C           -0.16516600000000       -0.64664900000000        0.80679900000000
O            0.75046400000000        1.63132300000000        1.24106600000000
C            0.05694300000000        0.56251400000000        1.67849900000000
H           -0.17036900000000        1.42768900000000       -1.01141000000000
O           -0.37805100000000        0.56237000000000        2.81853100000000
H           -1.27994500000000        0.22829700000000       -1.50380900000000
H           -1.25406300000000       -0.84893600000000        0.72816900000000
O            2.19007500000000       -2.23898400000000        2.46252700000000
H            2.22684500000000       -2.40354900000000        3.43832300000000
H            3.07471300000000       -2.53237300000000        2.12793600000000
O            0.78713000000000       -2.54515600000000        6.11077100000000
H            1.52333900000000       -2.29307700000000        5.49834700000000
H           -0.02332100000000       -2.15185400000000        5.69955900000000
O            3.15479100000000       -2.52702800000000       -1.63626800000000
H            3.37133200000000       -1.61452100000000       -1.95415500000000
H            3.22724100000000       -2.46998500000000       -0.65031200000000
O           -3.23516400000000       -1.47859200000000        0.08310100000000
H           -3.58134100000000       -0.96169200000000       -0.68734400000000
H           -3.99663000000000       -1.52252900000000        0.71464900000000
O           -3.21922200000000        1.80586800000000        0.17035900000000
H           -4.14727300000000        1.50911500000000       -0.00647400000000
H           -2.84211000000000        1.98900500000000       -0.72678100000000
O            1.22923200000000       -3.73279700000000       -1.74478400000000
H            0.66331800000000       -4.48808200000000       -2.04461100000000
H            1.71361800000000       -4.08373600000000       -0.95559200000000
O            1.69060400000000        0.18379000000000       -5.64905300000000
H            0.95575000000000       -0.18229900000000       -6.20274800000000
H            1.63301100000000       -0.31787400000000       -4.79721400000000
34
 energy: -56.626039108578 gnorm: 0.085610169881 xtb: 6.7.1 (edcfbbe)
H            1.49295173555948       -0.29706801567147       -0.54531607181083
C            0.42908672146311       -0.54920538471199       -0.61593561159257
H            0.14299145996763        0.50256427620268       -2.36712385392768
H            0.32550076421371       -1.52463418514767       -1.10790242995144
N           -0.26225352325632        0.47134164851325       -1.41893370918867
H            0.30626701539642       -1.48868311349248        1.31016443270387
C           -0.15554272577337       -0.64058394250054        0.79170484898348
O            0.71140853437939        1.58884163397415        1.19118440224276
C            0.06986195544892        0.57237654426629        1.67936884826549
H           -0.15877464385815        1.40178870372851       -0.97724835045121
O           -0.37901814315212        0.57173238054173        2.83389925167145
H           -1.26442532217509        0.23471545312195       -1.48553263970164
H           -1.23354815481521       -0.84060938425592        0.74422157940924
O            2.20530337090104       -2.25780649156831        2.45879770795528
H            2.22637291926979       -2.41231102950607        3.41569478715514
H            3.08131642708255       -2.53534286738346        2.14374011559207
O            0.78108654631029       -2.53868553052373        6.10820422557892
H            1.50808393361722       -2.28120915178770        5.51985078955026
H           -0.01673735363042       -2.15963721580335        5.70365479264043
O            3.23765364778722       -2.48897780317627       -1.63111887523262
H            3.40831064627343       -1.58754977426460       -1.94305099642233
H            3.23786148145397       -2.42930188513767       -0.66079927289443
O           -3.24541895462445       -1.46685042320381        0.07374986368594
H           -3.60550624580758       -0.97638199927578       -0.68388974803414
H           -3.97696477711535       -1.52989511334915        0.70824970882577
O           -3.20741939062870        1.76405211569993        0.14889052735204
H           -4.14407498823446        1.53923211279747       -0.00131179192143
H           -2.87108393538022        2.02244771315359       -0.72957154652723
O            1.15114278401871       -3.76365910131771       -1.72655456347089
H            0.63430340048237       -4.51974846764808       -2.04626378028295
H            1.67725342541779       -4.10784899297673       -0.98566916701922
O            1.66869961544279        0.19315098064374       -5.63519382092467
H            0.97120602278301       -0.18326740140917       -6.19852924321383
H            1.65004375118300       -0.33933728853165       -4.82119340904427
34
 energy: -56.635408140134 gnorm: 0.030089613807 xtb: 6.7.1 (edcfbbe)
H            1.48670365914523       -0.28204330704970       -0.52743757360594
C            0.43978460133941       -0.56194394630942       -0.61098095421385
H            0.13181158628716        0.53107356835635       -2.35025704827035
H            0.34900542711612       -1.52804851406256       -1.10342074753261
N           -0.25809764692214        0.47123882406816       -1.40610680981186
H            0.30557987911101       -1.47529731394062        1.32074943244045
C           -0.15674668486286       -0.64995310001741        0.78174092816176
O            0.69655244727548        1.54931385881484        1.14092807046568
C            0.04796110356882        0.60872566899626        1.64467456586481
H           -0.14196025328861        1.37305565595249       -0.91674071403126
O           -0.35416177129299        0.56849209957994        2.82930185202030
H           -1.25394923423871        0.24160631109299       -1.45056249807264
H           -1.22684631567193       -0.85025368783207        0.74969893424698
O            2.23150597148914       -2.28292847992220        2.44643642570264
H            2.21751426506570       -2.43240410543462        3.39169908703594
H            3.10812410349388       -2.54815014878527        2.15858845599418
O            0.77014819804292       -2.53060430474655        6.11220828885709
H            1.49657223940040       -2.25375220086410        5.55274513006979
H           -0.02347843595236       -2.16802783299809        5.71329304024911
O            3.29715890007549       -2.46049346334759       -1.62040651985013
H            3.45536457451871       -1.57452974571092       -1.94255975096495
H            3.25129875654853       -2.39337525147076       -0.66385304419332
O           -3.25779398566960       -1.46314855769012        0.05492944949348
H           -3.64039549120298       -0.99240078968056       -0.68939378786398
H           -3.95247095342915       -1.54227797520271        0.71068433969938
O           -3.19806660846534        1.73362668210689        0.11465278402018
H           -4.14455097422619        1.56867044506091        0.00547165930192
H           -2.90401585072163        2.06740100087372       -0.74765266206108
O            1.07382646093657       -3.77645334080896       -1.70929710128166
H            0.60275346825044       -4.53770843005065       -2.05534975579107
H            1.64554775995557       -4.11416028677044       -1.01358795938795
O            1.64609869607388        0.20058737120126       -5.62266197745642
H            0.97964965583186       -0.18005821718956       -6.20088256791313
H            1.67551045241927       -0.37212948621859       -4.84641397132107
34
 energy: -56.640452315701 gnorm: 0.055265176971 xtb: 6.7.1 (edcfbbe)
H            1.48976493527361       -0.28041919275823       -0.51035916278760
C            0.45028730932318       -0.57954690507748       -0.60156975616244
H            0.11982178530450        0.56032178266295       -2.32583940382810
H            0.36912838449316       -1.53789440255752       -1.10639597153403
N           -0.25444172232271        0.47063527245802       -1.37937804825152
H            0.31331407153115       -1.48976906902267        1.33407151053286
C           -0.14722324206130       -0.67346759360145        0.78699220791483
O            0.60555131550475        1.58201772089379        1.04112323812842
C            0.10939430429492        0.60501749522722        1.63844313702165
H           -0.11982364773718        1.34689305397767       -0.84503264864195
O           -0.35304504772552        0.59662011854280        2.80409939942111
H           -1.25096236051334        0.24977454824499       -1.40332119166199
H           -1.21901854695251       -0.85725394848899        0.76456603305705
O            2.26194592800217       -2.32195687882166        2.41976812512544
H            2.19247538114985       -2.46177027932426        3.36527732255861
H            3.15973124369904       -2.56670047522348        2.17981853956490
O            0.75617884960144       -2.52305668616773        6.12407886235523
H            1.49098453519389       -2.20753755498285        5.59629001768456
H           -0.04224976555120       -2.18330795706889        5.71934358035176
O            3.36632800686931       -2.44243633289983       -1.60945319227645
H            3.50239375694987       -1.55904185409204       -1.94813596435297
H            3.24132871731954       -2.34795512088527       -0.65639380608858
O           -3.26313542272911       -1.45105089076578        0.03218267229347
H           -3.69914606099471       -1.01328451443134       -0.70505695464882
H           -3.92118879638106       -1.56703848697723        0.72192402708342
O           -3.17693433024462        1.68489826697577        0.06944982933599
H           -4.15238425184479        1.61478120444608        0.01661390920923
H           -2.94512998231463        2.13263934414215       -0.78008276334147
O            0.98857156168079       -3.77564180850282       -1.68697061999828
H            0.57190089631740       -4.55489101425008       -2.07287862512759
H            1.62719365346629       -4.11934085338309       -1.04626665544781
O            1.60903099124070        0.22956789801777       -5.59598678551026
H            0.99612279300998       -0.18635844004238       -6.21401570625220
H            1.71917275714931       -0.42979744626366       -4.87666815572572
34
 energy: -56.642582158082 gnorm: 0.067290059508 xtb: 6.7.1 (edcfbbe)
H            1.49623972042708       -0.28551656550077       -0.49630474725557
C            0.46026889414379       -0.60096648964505       -0.59441751976212
H            0.10690084703582        0.58802908641439       -2.29908419589912
H            0.39098084798976       -1.55407112502521       -1.11440522002789
N           -0.25184913241063        0.46674144247839       -1.34831711615588
H            0.33171141786386       -1.49319382784024        1.35787399347895
C           -0.13904357094598       -0.69365856830439        0.79393071265367
O            0.53939468513313        1.61092968071857        0.94936653155736
C            0.10617818591124        0.62686467403785        1.61053332246921
H           -0.09547732964492        1.31831267839835       -0.76838307038014
O           -0.30966505116941        0.61539327717746        2.79321215529271
H           -1.25231540789541        0.25616771487850       -1.35316231349495
H           -1.21006513051499       -0.87893562073953        0.77163369787654
O            2.29677145169641       -2.35975611155366        2.38895555080667
H            2.15600650771997       -2.50050171363211        3.33621533069225
H            3.22140380942405       -2.58912849573075        2.20998901143602
O            0.74229223581309       -2.51628418289395        6.14251598231111
H            1.48698484578487       -2.14666550636338        5.64986637500613
H           -0.06528913852608       -2.20335137002899        5.72616624242169
O            3.44241256184444       -2.43014072444396       -1.59393598496566
H            3.55051261005972       -1.54385272775097       -1.95134549831408
H            3.23156878739583       -2.30298067887468       -0.64478327947956
O           -3.26381344348356       -1.43899184940719        0.00808006859011
H           -3.76345701178601       -1.03703408328748       -0.72141197965218
H           -3.88574211275178       -1.59595272770523        0.73354579379870
O           -3.21578894099682        1.79306540860667        0.02631483281852
H           -4.13853550329523        1.59897222245728        0.00405512888356
H           -2.94417252693165        2.10934418342791       -0.80772433388882
O            0.91744853033022       -3.78087529490951       -1.67947541241104
H            0.53539942942316       -4.56942566864969       -2.09016186938186
H            1.59506748168981       -4.11550768566006       -1.07198191079677
O            1.61531749306548        0.20473356794474       -5.59988884010141
H            0.99786581269114       -0.17634541052250       -6.22821788454384
H            1.71042614491266       -0.43176850806967       -4.88901655358074
34
 energy: -56.646867570538 gnorm: 0.054714799481 xtb: 6.7.1 (edcfbbe)
H            1.50674831428293       -0.29883331071538       -0.49537865154011
C            0.46651594125735       -0.61422488267018       -0.59369949797214
H            0.09812277622158        0.60286862939838       -2.28032386872899
H            0.40127966554363       -1.56791962213480       -1.12294770816184
N           -0.25166420713816        0.46190880882716       -1.32554104447517
H            0.35199947438900       -1.48203936206647        1.38224062745296
C           -0.13378123301092       -0.69752140568977        0.79920428238193
O            0.53474293693058        1.61996366155161        0.93102379533966
C            0.02521021736455        0.66768490711739        1.57176335845945
H           -0.07775846145497        1.30043322904426       -0.71761944837610
O           -0.25381954143369        0.61716056276737        2.79745558367323
H           -1.25785391584753        0.25836564825381       -1.32168065921407
H           -1.20222616195065       -0.90326267163207        0.76302814761250
O            2.32046887959944       -2.38045309091202        2.36998203610647
H            2.14335862098155       -2.53452927950471        3.31560736699072
H            3.25731113155402       -2.60778829509133        2.22381063021040
O            0.73663192914013       -2.51180533367352        6.15806725536042
H            1.48222702122023       -2.10186766603971        5.68262148315692
H           -0.07991085284438       -2.21128650432914        5.73393533347700
O            3.45520058118346       -2.41497988109941       -1.57870455206464
H            3.58475273947620       -1.53270442734982       -1.95030013447229
H            3.26701377812234       -2.28863256444399       -0.64205082931581
O           -3.26666186871771       -1.43832760104276       -0.00232777836575
H           -3.79327457615676       -1.05730494208228       -0.73012728444684
H           -3.87824150830873       -1.61009736753276        0.73006652865375
O           -3.17856789558034        1.72514421799660       -0.01669020508321
H           -4.14624658182600        1.63987813654640        0.02731669028227
H           -2.99186454975599        2.19428855138506       -0.85321168931186
O            0.88861699074441       -3.79078185894257       -1.69275317274580
H            0.49968860149438       -4.57297272394472       -2.09420972534443
H            1.55790516343431       -4.09886568200519       -1.07910261843764
O            1.60371034939518        0.20655856536674       -5.58859741840640
H            1.00519978972270       -0.17538072279781       -6.24365150554819
H            1.72110445197182       -0.45902672255275       -4.90696832714438
34
 energy: -56.649975666969 gnorm: 0.044985028941 xtb: 6.7.1 (edcfbbe)
H            1.51666137498378       -0.31938515324948       -0.50342796242090
C            0.47406210484151       -0.62045480446948       -0.59065124241426
H            0.08900122510085        0.60911571959203       -2.26333989677055
H            0.39463656977349       -1.57189863383729       -1.11729245457915
N           -0.24828454980309        0.46013130448861       -1.30834207642211
H            0.36399097351165       -1.47858859250892        1.39097562295612
C           -0.11815104285650       -0.69813157359669        0.80449873152805
O            0.47521835090092        1.64376337650221        0.92438517057641
C            0.04130687344944        0.66022442879278        1.57898943406715
H           -0.05744352864648        1.28821210714469       -0.68363584934182
O           -0.26774754631022        0.63447428681908        2.78427351934019
H           -1.25534901506518        0.26471969074491       -1.29207383065486
H           -1.18603791187092       -0.90827018137185        0.76717741956287
O            2.33980275248743       -2.39791884905322        2.37068528999623
H            2.17826435845021       -2.57319372703940        3.30090925956500
H            3.25881611134152       -2.63155130777426        2.20993216134942
O            0.73471580534856       -2.50496360493953        6.16907496086773
H            1.46351702765806       -2.08173181957035        5.69554621462668
H           -0.08167064251584       -2.19474184137552        5.76189418038768
O            3.45422148758416       -2.40162378859710       -1.56334327879870
H            3.62842145101978       -1.53639959340215       -1.94327093016970
H            3.28338081822168       -2.27737833343160       -0.63714204191783
O           -3.28741011708952       -1.46741566656829       -0.00924116562947
H           -3.77800618476614       -1.06826921637445       -0.72744118523514
H           -3.90047445287591       -1.60629615580926        0.70883754364593
O           -3.18294872383421        1.75040953734766       -0.04980479933444
H           -4.14250226948871        1.65308377341770        0.01314823320161
H           -3.00339366031676        2.21668269785476       -0.88194278832043
O            0.84556710676707       -3.78250899592152       -1.69507529181411
H            0.47427048521386       -4.57245851413455       -2.09704265018577
H            1.54784988812463       -4.07966417129198       -1.10306057998886
O            1.57826747234601        0.22327703048241       -5.57417764541958
H            1.00751986264009       -0.17064172353145       -6.25156391119970
H            1.75586554567973       -0.51695870533633       -4.93822116105112
34
 energy: -56.643337112059 gnorm: 0.125819724939 xtb: 6.7.1 (edcfbbe)
H            1.53111286324166       -0.35281739694480       -0.52129033051388
C            0.48366525468902       -0.62564506760246       -0.58833315503284
H            0.08013825201821        0.61661585747216       -2.24077119593972
H            0.37930374653232       -1.57509241643416       -1.10519438784346
N           -0.24116223022433        0.45738334343440       -1.29021171336227
H            0.37919360822760       -1.47161004867425        1.39752169811179
C           -0.09455878787012       -0.69645409054718        0.81017199751280
O            0.37364505195889        1.67531476946012        0.91949183759135
C            0.09690026325892        0.62778131561879        1.60357438148578
H           -0.02883124102156        1.26956700230073       -0.64073556220298
O           -0.28694038016369        0.66112114943260        2.76499420450091
H           -1.24583446148673        0.27212515453503       -1.25887466117598
H           -1.16258090409789       -0.91398623948463        0.77461874006701
O            2.37615492673531       -2.42426328504847        2.36389210723552
H            2.19334070106996       -2.63245558154255        3.27054358814519
H            3.28397063416218       -2.66328153719985        2.22314226952354
O            0.73217299972216       -2.49678092664504        6.18872965531059
H            1.43036139598405       -2.04610932514579        5.72446633076225
H           -0.08377713853647       -2.17804816208411        5.80584464710128
O            3.50605157548571       -2.40300430067299       -1.53726883964125
H            3.69978480264837       -1.55345900542193       -1.93025831190934
H            3.24212081542378       -2.23922010599455       -0.61488071247014
O           -3.29179576806383       -1.46524686582040       -0.02169344621864
H           -3.80564008711913       -1.10285708235238       -0.73511269815636
H           -3.89132973894308       -1.62953432481604        0.69281809849017
O           -3.16039163258776        1.71128817254085       -0.10468995703067
H           -4.14260103839499        1.70921933059018       -0.00189235365408
H           -3.03164500488650        2.27918971067148       -0.92070879545549
O            0.79747185056130       -3.77592178914348       -1.70529736232515
H            0.44754293659129       -4.57155629670226       -2.11242645145097
H            1.52679278426884       -4.05323619829126       -1.13474926579550
O            1.64475207214988        0.11870145559711       -5.63593183054878
H            0.97341634735016       -0.13332084074177       -6.25444002173985
H            1.68513353132220       -0.45075737433906       -4.93481150336673
34
 energy: -56.653259820103 gnorm: 0.038691466459 xtb: 6.7.1 (edcfbbe)
H            1.53005365280378       -0.35208369671665       -0.52139558927523
C            0.48029512489603       -0.62687985233790       -0.58677132987096
H            0.08007297507705        0.62295730535379       -2.23899121742118
H            0.37579471950902       -1.57845034858270       -1.10474836345487
N           -0.24145104837820        0.45984578175119       -1.28646199246328
H            0.38658198461244       -1.46324082091899        1.40688720974468
C           -0.09963529298358       -0.69493700685719        0.81340031814632
O            0.39664083102755        1.66193769611709        0.92271417135871
C            0.05231253515393        0.64853947130894        1.58957726321250
H           -0.03235220658812        1.27196120823766       -0.63342719035076
O           -0.26451102876746        0.65358228501200        2.78325571024839
H           -1.24683552031061        0.27448637916511       -1.25571175245410
H           -1.16573308192660       -0.92291379202159        0.77606715150189
O            2.39243537768540       -2.42910689623152        2.34530553664474
H            2.16212360851229       -2.65375138929166        3.25924726312209
H            3.32023999392603       -2.66958458989198        2.23785520314185
O            0.73153097359872       -2.49226867558459        6.19340498630063
H            1.43310203966749       -2.01659225925316        5.73482470699448
H           -0.09492005186193       -2.18582477594494        5.81026531986459
O            3.51012890866067       -2.40293281915902       -1.53250327471963
H            3.71170652697879       -1.55300084651241       -1.93119569798024
H            3.24154676949209       -2.22938935544020       -0.60957693004540
O           -3.27743873394367       -1.43817320792827       -0.02548051165222
H           -3.84571848700870       -1.11719319144622       -0.75160884276179
H           -3.87134353731920       -1.65293529565176        0.70575296804321
O           -3.18384998450751        1.76363985760215       -0.11085314403969
H           -4.14044935815006        1.70219066814164       -0.02262996340857
H           -3.01532787076687        2.25148884320090       -0.92120223179758
O            0.78687118374856       -3.77118596303249       -1.70680839948316
H            0.44317163455784       -4.57229240301381       -2.11815770064919
H            1.51788003489022       -4.04825589435233       -1.13910042812239
O            1.61906489518810        0.15540551499932       -5.61520078312591
H            0.98172080782004       -0.13284213884711       -6.26453100964345
H            1.72222962471255       -0.51855079186904       -4.95196445560084
34
 energy: -56.651685451561 gnorm: 0.080091926290 xtb: 6.7.1 (edcfbbe)
H            1.52777010293442       -0.35344782719730       -0.52070560637549
C            0.47388283448201       -0.63011974347752       -0.57852297697845
H            0.07378497701329        0.63769067388987       -2.22663332552924
H            0.36689028888667       -1.58373655496850       -1.10010059587111
N           -0.24468662075087        0.46436651405583       -1.27127558095546
H            0.41796324232541       -1.45473532928905        1.42685483179946
C           -0.09537803712322       -0.70005576210946        0.82982530809741
O            0.35695005893904        1.68324077512154        0.88086526690586
C            0.00143130133673        0.67939163754143        1.57095162614893
H           -0.03471218681804        1.27155213884545       -0.60683926633552
O           -0.18741807688697        0.64184556305334        2.81882521367230
H           -1.25224592588688        0.28204383947612       -1.23610862319435
H           -1.15800829478059       -0.94791196602460        0.79903470724962
O            2.40396862813656       -2.48048028571054        2.33023426208502
H            2.17822070241169       -2.68926731904310        3.24303234774164
H            3.34642004039868       -2.69302476461709        2.23284620040560
O            0.72595144069692       -2.48685439683802        6.20699408018530
H            1.42445086296163       -1.97303047247620        5.76007536566811
H           -0.11719255979008       -2.19845677774020        5.82904682831176
O            3.49588728958547       -2.38592820690427       -1.51083443784466
H            3.74600141249210       -1.54482868141899       -1.91581838272274
H            3.29585728724409       -2.22584659774752       -0.60444451693195
O           -3.30961529560982       -1.50463706017553       -0.05034401820129
H           -3.80872424492534       -1.10411618358212       -0.74414390832843
H           -3.89527043548250       -1.63960369737055        0.69143372137459
O           -3.17008402663036        1.74154865413917       -0.15669289719950
H           -4.13694112307544        1.73313772102072       -0.03329090544425
H           -3.03606839083928        2.30746586247755       -0.94929974026909
O            0.74728496622898       -3.76564312081197       -1.71438883671669
H            0.41552679409416       -4.57199373491522       -2.12547681525861
H            1.49451461481173       -4.02838330473203       -1.16061363152082
O            1.58780537247726        0.19766438792113       -5.58031630720815
H            1.01682068987211       -0.13838225066932       -6.29649520825012
H            1.74490031127825       -0.59581472971856       -4.98743717850576
34
 energy: -56.656508363092 gnorm: 0.021799035313 xtb: 6.7.1 (edcfbbe)
H            1.52947059619086       -0.36088632559858       -0.52845436593395
C            0.47330959990022       -0.62570581173871       -0.57822907881461
H            0.07180810412268        0.63593681257375       -2.22403253583399
H            0.35630597114006       -1.58145825554152       -1.09116979370594
N           -0.24640590210267        0.46316599651084       -1.27252440697582
H            0.41821885305613       -1.44518543612514        1.42767180719504
C           -0.08946848359063       -0.68980998079847        0.83219645962937
O            0.35968509764444        1.67882484402650        0.92869491841794
C            0.02727118807274        0.66247290244724        1.59280604306132
H           -0.03831622827548        1.27016991220309       -0.60606546227147
O           -0.21826982885584        0.65138018448148        2.80958732432719
H           -1.25145483502310        0.27988978013342       -1.23737825399597
H           -1.15178192166175       -0.94286128694146        0.80104706146723
O            2.42311008261317       -2.49025683457497        2.32462491644584
H            2.17996063782990       -2.71916803700233        3.22750152232896
H            3.36130799157626       -2.70734122553047        2.24021338099444
O            0.72568133594087       -2.48175055731726        6.21323318430359
H            1.41042585069133       -1.95974125885714        5.77038312096813
H           -0.11621640502042       -2.18624816138348        5.84768918311651
O            3.52138436329732       -2.39121919621686       -1.49967619259048
H            3.77211596353736       -1.55407825541610       -1.90555365862334
H            3.27483831570953       -2.20912932246434       -0.59081609556810
O           -3.29593162068305       -1.47986275880868       -0.05343951534525
H           -3.84740558737377       -1.12860304080294       -0.75679896401816
H           -3.87297596223802       -1.66325436657079        0.69269774100704
O           -3.17972091700451        1.77038310596179       -0.17441008285509
H           -4.13374736895903        1.73771552080208       -0.05313417413161
H           -3.02877849450792        2.30414143034466       -0.96300251877731
O            0.74639831189165       -3.76607469228896       -1.73171470384758
H            0.40074772210440       -4.56389406394744       -2.12998374067405
H            1.47426704315662       -4.01452954847373       -1.16583844862176
O            1.60488828716216        0.16612077834155       -5.60534599423512
H            1.00654546304052       -0.13861396462320       -6.29812734384182
H            1.72867077662604       -0.57687988679833       -4.99241433259693
34